 Gaussian 16, Revision A.03,

 --------------------------------
 #t pop=none jul-cc-pvdz upbe1pbe
 --------------------------------
 ------------------------
 theory_abbreviation pbe0
 ------------------------
 Symbolic Z-matrix:
 Charge =  0 Multiplicity = 6

 SCF Done:  E(UPBE1PBE) =  -3033.11140746     A.U. after   21 cycles
 Normal termination of Gaussian 16 at Tue Feb 11 13:59:25 2020.

 ---------------------------------------------------------------------
 #t pop=none jul-cc-pvdz guess=read upbe1pbe empiricaldispersion=gd3bj
 ---------------------------------------------------------------------
 -----------------------------
 theory_abbreviation pbe0_d3bj
 -----------------------------
 Symbolic Z-matrix:
 Charge =  0 Multiplicity = 6

 SCF Done:  E(UPBE1PBE) =  -3033.14776047     A.U. after    1 cycles
 Normal termination of Gaussian 16 at Tue Feb 11 14:00:37 2020.

 -----------------------------------------
 #t pop=none jul-cc-pvdz guess=read ub3lyp
 -----------------------------------------
 -------------------------
 theory_abbreviation b3lyp
 -------------------------
 Symbolic Z-matrix:
 Charge =  0 Multiplicity = 6

 SCF Done:  E(UB3LYP) =  -3034.32447844     A.U. after   13 cycles
 Normal termination of Gaussian 16 at Tue Feb 11 14:14:36 2020.

 -------------------------------------------------------------------
 #t pop=none jul-cc-pvdz guess=read ub3lyp empiricaldispersion=gd3bj
 -------------------------------------------------------------------
 ------------------------------
 theory_abbreviation b3lyp_d3bj
 ------------------------------
 Symbolic Z-matrix:
 Charge =  0 Multiplicity = 6

 SCF Done:  E(UB3LYP) =  -3034.39225267     A.U. after    1 cycles
 Normal termination of Gaussian 16 at Tue Feb 11 14:15:48 2020.

 ----------------------------------------
 #t pop=none jul-cc-pvdz guess=read ub97d
 ----------------------------------------
 ------------------------
 theory_abbreviation b97d
 ------------------------
 Symbolic Z-matrix:
 Charge =  0 Multiplicity = 6

 SCF Done:  E(UB97D) =  -3034.57681436     A.U. after   17 cycles

 ----------------------------------------------------------------
 #t pop=none jul-cc-pvdz guess=read ub97d empiricaldispersion=gd3
 ----------------------------------------------------------------
 -------------------------
 theory_abbreviation b97d3
 -------------------------
 Symbolic Z-matrix:
 Charge =  0 Multiplicity = 6

 SCF Done:  E(UB97D) =  -3034.57725631     A.U. after    1 cycles
 SCF Done:  E(UBHandHLYP) =  -3033.96522162     A.U. after   17 cycles
 SCF Done:  E(UBHandH) =  -3026.31293901     A.U. after   16 cycles
 SCF Done:  E(ULC-wPBE) =  -3033.45012008     A.U. after   18 cycles
 SCF Done:  E(UB-P86) =  -3034.62973382     A.U. after   17 cycles
 SCF Done:  E(UmPW1LYP) =  -3034.04231824     A.U. after   15 cycles
 SCF Done:  E(UmPW1PBE) =  -3033.88585820     A.U. after   16 cycles
 SCF Done:  E(UmPW3PBE) =  -3033.65844368     A.U. after   15 cycles
 SCF Done:  E(UM11) =  -3033.80734834     A.U. after   19 cycles
 SCF Done:  E(UN12SX) =  -3033.25108830     A.U. after   17 cycles
 SCF Done:  E(UMN12SX) =  -3033.64717880     A.U. after   17 cycles
 SCF Done:  E(UB1B95) =  -3034.37873681     A.U. after   16 cycles
 Normal termination of Gaussian 16 at Tue Feb 11 23:14:46 2020.
 SCF Done:  E(UB3PW91) =  -3033.97386097     A.U. after   15 cycles
 Normal termination of Gaussian 16 at Tue Feb 11 23:30:10 2020.
 SCF Done:  E(UM06L) =  -3034.19090909     A.U. after   17 cycles
 Normal termination of Gaussian 16 at Tue Feb 11 23:48:47 2020.
 Gaussian 16:  ES64L-G16RevA.03 25-Dec-2016

                         Standard orientation:
 ---------------------------------------------------------------------
 Center     Atomic      Atomic             Coordinates (Angstroms)
 Number     Number       Type             X           Y           Z
 ---------------------------------------------------------------------
      1          8           0       -0.347380   -0.135686   -0.514463
      2          6           0       -1.212631   -1.114898   -0.364060
      3          6           0       -2.634292   -0.394309    0.670170
      4          6           0       -2.791645    0.783086   -0.062908
      5          6           0       -3.705347    0.853884   -1.238395
      6         26           0        1.459955    0.167511   -0.066059
      7         17           0        1.793889    2.191772   -0.862014
      8          6           0       -2.008775    1.993243    0.237896
      9         17           0        2.586424   -1.458817   -1.022863
     10         17           0        1.602094    0.118967    2.142499
     11          1           0       -3.390912   -1.153423    0.470521
     12          1           0       -2.416066    2.888971   -0.235964
     13          1           0       -1.850643    2.155792    1.306142
     14          1           0       -1.007474    1.805568   -0.195698
     15          1           0       -4.498232    1.578566   -1.003585
     16          1           0       -3.182066    1.252697   -2.116981
     17          1           0       -4.172826   -0.100457   -1.483609
     18          6           0       -2.170578   -0.314509    2.117233
     19          1           0       -2.846555    0.332152    2.688121
     20          1           0       -2.188070   -1.300634    2.583811
     21          1           0       -1.157562    0.084552    2.207580
     22          6           0       -0.761566   -2.275894    0.519009
     23          1           0       -1.575548   -2.973363    0.733554
     24          1           0        0.009916   -2.804563   -0.054169
     25          1           0       -0.303574   -1.934108    1.446266
     26          6           0       -1.806181   -1.596520   -1.683284
     27          1           0       -1.026077   -2.188743   -2.174707
     28          1           0       -2.683912   -2.234264   -1.544726
     29          1           0       -2.045037   -0.765707   -2.346855
 ---------------------------------------------------------------------

 SCF Done:  E(UB97D3) =  -3034.61145614     A.U. after   16 cycles
 Normal termination of Gaussian 16 at Wed Feb 12 00:01:59 2020.
