 Gaussian 16, Revision A.03,

 --------------------------------
 #t pop=none jul-cc-pvdz upbe1pbe
 --------------------------------
 ------------------------
 theory_abbreviation pbe0
 ------------------------
 Symbolic Z-matrix:
 Charge =  0 Multiplicity = 6

 SCF Done:  E(UPBE1PBE) =  -3033.13379585     A.U. after   20 cycles
 Normal termination of Gaussian 16 at Tue Feb 11 23:38:17 2020.

 ---------------------------------------------------------------------
 #t pop=none jul-cc-pvdz guess=read upbe1pbe empiricaldispersion=gd3bj
 ---------------------------------------------------------------------
 -----------------------------
 theory_abbreviation pbe0_d3bj
 -----------------------------
 Symbolic Z-matrix:
 Charge =  0 Multiplicity = 6

 SCF Done:  E(UPBE1PBE) =  -3033.17045524     A.U. after    1 cycles
 Normal termination of Gaussian 16 at Tue Feb 11 23:39:24 2020.

 -----------------------------------------
 #t pop=none jul-cc-pvdz guess=read ub3lyp
 -----------------------------------------
 -------------------------
 theory_abbreviation b3lyp
 -------------------------
 Symbolic Z-matrix:
 Charge =  0 Multiplicity = 6

 SCF Done:  E(UB3LYP) =  -3034.35170554     A.U. after   13 cycles
 Normal termination of Gaussian 16 at Tue Feb 11 23:52:29 2020.

 -------------------------------------------------------------------
 #t pop=none jul-cc-pvdz guess=read ub3lyp empiricaldispersion=gd3bj
 -------------------------------------------------------------------
 ------------------------------
 theory_abbreviation b3lyp_d3bj
 ------------------------------
 Symbolic Z-matrix:
 Charge =  0 Multiplicity = 6

 SCF Done:  E(UB3LYP) =  -3034.41964728     A.U. after    1 cycles
 Normal termination of Gaussian 16 at Tue Feb 11 23:53:36 2020.

 ----------------------------------------
 #t pop=none jul-cc-pvdz guess=read ub97d
 ----------------------------------------
 ------------------------
 theory_abbreviation b97d
 ------------------------
 Symbolic Z-matrix:
 Charge =  0 Multiplicity = 6

 SCF Done:  E(UB97D) =  -3034.60240305     A.U. after   15 cycles

 ----------------------------------------------------------------
 #t pop=none jul-cc-pvdz guess=read ub97d empiricaldispersion=gd3
 ----------------------------------------------------------------
 -------------------------
 theory_abbreviation b97d3
 -------------------------
 Symbolic Z-matrix:
 Charge =  0 Multiplicity = 6

 SCF Done:  E(UB97D) =  -3034.60433541     A.U. after    1 cycles
 SCF Done:  E(UBHandHLYP) =  -3033.99375906     A.U. after   18 cycles
 SCF Done:  E(UBHandH) =  -3026.33108931     A.U. after   14 cycles
 SCF Done:  E(ULC-wPBE) =  -3033.47549716     A.U. after   17 cycles
 SCF Done:  E(UB-P86) =  -3034.65205818     A.U. after   17 cycles
 SCF Done:  E(UmPW1LYP) =  -3034.07006881     A.U. after   13 cycles
 SCF Done:  E(UmPW1PBE) =  -3033.90825268     A.U. after   14 cycles
 SCF Done:  E(UmPW3PBE) =  -3033.68116711     A.U. after   13 cycles
 SCF Done:  E(UM11) =  -3033.83300310     A.U. after   17 cycles
 SCF Done:  E(UN12SX) =  -3033.27266186     A.U. after   17 cycles
 SCF Done:  E(UMN12SX) =  -3033.67526216     A.U. after   16 cycles
 SCF Done:  E(UB1B95) =  -3034.40466116     A.U. after   14 cycles
 Normal termination of Gaussian 16 at Wed Feb 12 08:01:11 2020.
 SCF Done:  E(UB3PW91) =  -3033.99731914     A.U. after   15 cycles
 Normal termination of Gaussian 16 at Wed Feb 12 08:16:10 2020.
 SCF Done:  E(UM06L) =  -3034.21999844     A.U. after   17 cycles
 Normal termination of Gaussian 16 at Wed Feb 12 08:34:44 2020.
 Gaussian 16:  ES64L-G16RevA.03 25-Dec-2016

                         Standard orientation:
 ---------------------------------------------------------------------
 Center     Atomic      Atomic             Coordinates (Angstroms)
 Number     Number       Type             X           Y           Z
 ---------------------------------------------------------------------
      1          8           0        0.249730    0.331677   -0.814561
      2          6           0        1.003044    1.317360   -0.640900
      3          6           0        3.184033    0.004115    0.398894
      4          6           0        2.534420   -0.988098   -0.241520
      5          6           0        2.790280   -1.284522   -1.694229
      6         26           0       -1.468166   -0.142427    0.040211
      7         17           0       -2.100008   -1.961120   -0.969649
      8          6           0        1.609399   -1.961768    0.429498
      9         17           0       -2.629892    1.654445   -0.429010
     10         17           0       -1.148564   -0.357645    2.199419
     11          1           0        3.900074    0.588168   -0.180196
     12          1           0        2.121347   -2.927566    0.541776
     13          1           0        1.274711   -1.644976    1.417043
     14          1           0        0.727421   -2.156188   -0.190760
     15          1           0        3.169939   -2.308686   -1.804564
     16          1           0        1.857496   -1.237398   -2.270581
     17          1           0        3.524190   -0.605523   -2.138220
     18          6           0        3.166530    0.290105    1.875518
     19          1           0        4.034950   -0.173483    2.363462
     20          1           0        3.233385    1.364729    2.078116
     21          1           0        2.271212   -0.091917    2.372865
     22          6           0        0.892582    2.169830    0.582584
     23          1           0        1.779966    2.785512    0.733786
     24          1           0        0.030399    2.833835    0.419007
     25          1           0        0.678105    1.572917    1.469654
     26          6           0        1.771843    1.842879   -1.813237
     27          1           0        1.158257    2.650304   -2.240294
     28          1           0        2.728413    2.275446   -1.515992
     29          1           0        1.905712    1.078536   -2.576634
 ---------------------------------------------------------------------

 SCF Done:  E(UB97D3) =  -3034.63888371     A.U. after   16 cycles
 Normal termination of Gaussian 16 at Wed Feb 12 08:47:18 2020.
