 Gaussian 16, Revision A.03,

 --------------------------------
 #t pop=none jul-cc-pvdz upbe1pbe
 --------------------------------
 ------------------------
 theory_abbreviation pbe0
 ------------------------
 Symbolic Z-matrix:
 Charge =  0 Multiplicity = 6

 SCF Done:  E(UPBE1PBE) =  -3033.13293890     A.U. after   20 cycles
 Normal termination of Gaussian 16 at Tue Feb 11 13:59:15 2020.

 ---------------------------------------------------------------------
 #t pop=none jul-cc-pvdz guess=read upbe1pbe empiricaldispersion=gd3bj
 ---------------------------------------------------------------------
 -----------------------------
 theory_abbreviation pbe0_d3bj
 -----------------------------
 Symbolic Z-matrix:
 Charge =  0 Multiplicity = 6

 SCF Done:  E(UPBE1PBE) =  -3033.16950757     A.U. after    1 cycles
 Normal termination of Gaussian 16 at Tue Feb 11 14:00:26 2020.

 -----------------------------------------
 #t pop=none jul-cc-pvdz guess=read ub3lyp
 -----------------------------------------
 -------------------------
 theory_abbreviation b3lyp
 -------------------------
 Symbolic Z-matrix:
 Charge =  0 Multiplicity = 6

 SCF Done:  E(UB3LYP) =  -3034.35092075     A.U. after   13 cycles
 Normal termination of Gaussian 16 at Tue Feb 11 14:14:11 2020.

 -------------------------------------------------------------------
 #t pop=none jul-cc-pvdz guess=read ub3lyp empiricaldispersion=gd3bj
 -------------------------------------------------------------------
 ------------------------------
 theory_abbreviation b3lyp_d3bj
 ------------------------------
 Symbolic Z-matrix:
 Charge =  0 Multiplicity = 6

 SCF Done:  E(UB3LYP) =  -3034.41867116     A.U. after    1 cycles
 Normal termination of Gaussian 16 at Tue Feb 11 14:15:21 2020.

 ----------------------------------------
 #t pop=none jul-cc-pvdz guess=read ub97d
 ----------------------------------------
 ------------------------
 theory_abbreviation b97d
 ------------------------
 Symbolic Z-matrix:
 Charge =  0 Multiplicity = 6

 SCF Done:  E(UB97D) =  -3034.60115321     A.U. after   16 cycles

 ----------------------------------------------------------------
 #t pop=none jul-cc-pvdz guess=read ub97d empiricaldispersion=gd3
 ----------------------------------------------------------------
 -------------------------
 theory_abbreviation b97d3
 -------------------------
 Symbolic Z-matrix:
 Charge =  0 Multiplicity = 6

 SCF Done:  E(UB97D) =  -3034.60331680     A.U. after    3 cycles
 SCF Done:  E(UBHandHLYP) =  -3033.99306866     A.U. after   18 cycles
 SCF Done:  E(UBHandH) =  -3026.33006414     A.U. after   14 cycles
 SCF Done:  E(ULC-wPBE) =  -3033.47478845     A.U. after   17 cycles
 SCF Done:  E(UB-P86) =  -3034.65099199     A.U. after   17 cycles
 SCF Done:  E(UmPW1LYP) =  -3034.06927421     A.U. after   13 cycles
 SCF Done:  E(UmPW1PBE) =  -3033.90744376     A.U. after   14 cycles
 SCF Done:  E(UmPW3PBE) =  -3033.68033906     A.U. after   13 cycles
 SCF Done:  E(UM11) =  -3033.83219982     A.U. after   17 cycles
 SCF Done:  E(UN12SX) =  -3033.27175605     A.U. after   17 cycles
 SCF Done:  E(UMN12SX) =  -3033.67442638     A.U. after   16 cycles
 SCF Done:  E(UB1B95) =  -3034.40385613     A.U. after   14 cycles
 Normal termination of Gaussian 16 at Tue Feb 11 22:38:20 2020.
 SCF Done:  E(UB3PW91) =  -3033.99652912     A.U. after   15 cycles
 Normal termination of Gaussian 16 at Tue Feb 11 22:55:26 2020.
 SCF Done:  E(UM06L) =  -3034.21906206     A.U. after   17 cycles
 Normal termination of Gaussian 16 at Tue Feb 11 23:14:22 2020.
 Gaussian 16:  ES64L-G16RevA.03 25-Dec-2016

                         Standard orientation:
 ---------------------------------------------------------------------
 Center     Atomic      Atomic             Coordinates (Angstroms)
 Number     Number       Type             X           Y           Z
 ---------------------------------------------------------------------
      1          8           0        0.264592    0.318375   -0.779373
      2          6           0        0.998604    1.319432   -0.621574
      3          6           0        3.256144   -0.045155    0.317261
      4          6           0        2.503242   -1.001522   -0.260894
      5          6           0        2.651785   -1.338932   -1.719937
      6         26           0       -1.471986   -0.137861    0.051912
      7         17           0       -2.099844   -1.957834   -0.957591
      8          6           0        1.587786   -1.922710    0.494797
      9         17           0       -2.602897    1.668293   -0.458953
     10         17           0       -1.203188   -0.330935    2.218142
     11          1           0        3.957541    0.493542   -0.320971
     12          1           0        2.096724   -2.883268    0.655709
     13          1           0        1.283653   -1.541901    1.470027
     14          1           0        0.687666   -2.149252   -0.085868
     15          1           0        2.980198   -2.380903   -1.829201
     16          1           0        1.688029   -1.262272   -2.238161
     17          1           0        3.385295   -0.702591   -2.224191
     18          6           0        3.345606    0.277555    1.782904
     19          1           0        4.246141   -0.175386    2.220066
     20          1           0        3.427904    1.357325    1.953478
     21          1           0        2.488056   -0.089921    2.352550
     22          6           0        0.919233    2.148417    0.619724
     23          1           0        1.806920    2.767363    0.755570
     24          1           0        0.047981    2.809649    0.498692
     25          1           0        0.737483    1.529936    1.499689
     26          6           0        1.743015    1.856527   -1.802959
     27          1           0        1.119440    2.664365   -2.214780
     28          1           0        2.702730    2.290725   -1.517932
     29          1           0        1.867441    1.096398   -2.572475
 ---------------------------------------------------------------------

 SCF Done:  E(UB97D3) =  -3034.63782599     A.U. after   16 cycles
 Normal termination of Gaussian 16 at Tue Feb 11 23:27:04 2020.
