 Gaussian 16, Revision A.03,

 --------------------------------
 #t pop=none jul-cc-pvdz upbe1pbe
 --------------------------------
 ------------------------
 theory_abbreviation pbe0
 ------------------------
 Symbolic Z-matrix:
 Charge =  0 Multiplicity = 6

 SCF Done:  E(UPBE1PBE) =  -3033.13214971     A.U. after   21 cycles
 Normal termination of Gaussian 16 at Tue Feb 11 23:39:42 2020.

 ---------------------------------------------------------------------
 #t pop=none jul-cc-pvdz guess=read upbe1pbe empiricaldispersion=gd3bj
 ---------------------------------------------------------------------
 -----------------------------
 theory_abbreviation pbe0_d3bj
 -----------------------------
 Symbolic Z-matrix:
 Charge =  0 Multiplicity = 6

 SCF Done:  E(UPBE1PBE) =  -3033.16896083     A.U. after    1 cycles
 Normal termination of Gaussian 16 at Tue Feb 11 23:40:50 2020.

 -----------------------------------------
 #t pop=none jul-cc-pvdz guess=read ub3lyp
 -----------------------------------------
 -------------------------
 theory_abbreviation b3lyp
 -------------------------
 Symbolic Z-matrix:
 Charge =  0 Multiplicity = 6

 SCF Done:  E(UB3LYP) =  -3034.34976992     A.U. after   13 cycles
 Normal termination of Gaussian 16 at Tue Feb 11 23:54:18 2020.

 -------------------------------------------------------------------
 #t pop=none jul-cc-pvdz guess=read ub3lyp empiricaldispersion=gd3bj
 -------------------------------------------------------------------
 ------------------------------
 theory_abbreviation b3lyp_d3bj
 ------------------------------
 Symbolic Z-matrix:
 Charge =  0 Multiplicity = 6

 SCF Done:  E(UB3LYP) =  -3034.41807160     A.U. after    1 cycles
 Normal termination of Gaussian 16 at Tue Feb 11 23:55:26 2020.

 ----------------------------------------
 #t pop=none jul-cc-pvdz guess=read ub97d
 ----------------------------------------
 ------------------------
 theory_abbreviation b97d
 ------------------------
 Symbolic Z-matrix:
 Charge =  0 Multiplicity = 6

 SCF Done:  E(UB97D) =  -3034.60173831     A.U. after   15 cycles

 ----------------------------------------------------------------
 #t pop=none jul-cc-pvdz guess=read ub97d empiricaldispersion=gd3
 ----------------------------------------------------------------
 -------------------------
 theory_abbreviation b97d3
 -------------------------
 Symbolic Z-matrix:
 Charge =  0 Multiplicity = 6

 SCF Done:  E(UB97D) =  -3034.60297373     A.U. after    1 cycles
 SCF Done:  E(UBHandHLYP) =  -3033.99110889     A.U. after   15 cycles
 SCF Done:  E(UBHandH) =  -3026.32957776     A.U. after   14 cycles
 SCF Done:  E(ULC-wPBE) =  -3033.47276210     A.U. after   19 cycles
 SCF Done:  E(UB-P86) =  -3034.65123227     A.U. after   16 cycles
 SCF Done:  E(UmPW1LYP) =  -3034.06803379     A.U. after   13 cycles
 SCF Done:  E(UmPW1PBE) =  -3033.90658580     A.U. after   14 cycles
 SCF Done:  E(UmPW3PBE) =  -3033.67957671     A.U. after   13 cycles
 SCF Done:  E(UM11) =  -3033.83031354     A.U. after   17 cycles
 SCF Done:  E(UN12SX) =  -3033.27099726     A.U. after   16 cycles
 SCF Done:  E(UMN12SX) =  -3033.67279480     A.U. after   16 cycles
 SCF Done:  E(UB1B95) =  -3034.40238126     A.U. after   14 cycles
 Normal termination of Gaussian 16 at Wed Feb 12 07:57:13 2020.
 SCF Done:  E(UB3PW91) =  -3033.99562793     A.U. after   13 cycles
 Normal termination of Gaussian 16 at Wed Feb 12 08:10:28 2020.
 SCF Done:  E(UM06L) =  -3034.21780868     A.U. after   17 cycles
 Normal termination of Gaussian 16 at Wed Feb 12 08:29:23 2020.
 Gaussian 16:  ES64L-G16RevA.03 25-Dec-2016

                         Standard orientation:
 ---------------------------------------------------------------------
 Center     Atomic      Atomic             Coordinates (Angstroms)
 Number     Number       Type             X           Y           Z
 ---------------------------------------------------------------------
      1          8           0        0.211917    0.340164   -0.859200
      2          6           0        1.031835    1.277520   -0.669671
      3          6           0        2.983964    0.180573    0.550333
      4          6           0        2.654706   -0.937243   -0.135699
      5          6           0        3.189786   -1.204316   -1.514380
      6         26           0       -1.476970   -0.157412    0.002123
      7         17           0       -2.049280   -2.018311   -0.971792
      8          6           0        1.739529   -2.000939    0.390530
      9         17           0       -2.715884    1.587948   -0.454983
     10         17           0       -1.106017   -0.365038    2.158585
     11          1           0        3.704262    0.853545    0.085756
     12          1           0        2.272037   -2.959781    0.442773
     13          1           0        1.330609   -1.781341    1.376116
     14          1           0        0.901760   -2.153931   -0.302689
     15          1           0        3.736582   -2.156096   -1.522042
     16          1           0        2.369278   -1.315941   -2.236028
     17          1           0        3.870668   -0.422519   -1.861390
     18          6           0        2.731750    0.418487    2.017898
     19          1           0        3.508902   -0.079842    2.612799
     20          1           0        2.780545    1.482213    2.266479
     21          1           0        1.765573    0.036598    2.355826
     22          6           0        0.828368    2.245799    0.456126
     23          1           0        1.713130    2.854600    0.644673
     24          1           0        0.011939    2.907631    0.130163
     25          1           0        0.497326    1.750528    1.368666
     26          6           0        1.844029    1.731431   -1.848433
     27          1           0        1.223969    2.478405   -2.365468
     28          1           0        2.775642    2.216399   -1.554585
     29          1           0        2.029941    0.914879   -2.543636
 ---------------------------------------------------------------------

 SCF Done:  E(UB97D3) =  -3034.63792381     A.U. after   15 cycles
 Normal termination of Gaussian 16 at Wed Feb 12 08:42:10 2020.
