 Gaussian 16, Revision A.03,

 --------------------------------
 #t pop=none jul-cc-pvdz upbe1pbe
 --------------------------------
 ------------------------
 theory_abbreviation pbe0
 ------------------------
 Symbolic Z-matrix:
 Charge =  0 Multiplicity = 6

 SCF Done:  E(UPBE1PBE) =  -3033.13251199     A.U. after   21 cycles
 Normal termination of Gaussian 16 at Tue Feb 11 13:59:43 2020.

 ---------------------------------------------------------------------
 #t pop=none jul-cc-pvdz guess=read upbe1pbe empiricaldispersion=gd3bj
 ---------------------------------------------------------------------
 -----------------------------
 theory_abbreviation pbe0_d3bj
 -----------------------------
 Symbolic Z-matrix:
 Charge =  0 Multiplicity = 6

 SCF Done:  E(UPBE1PBE) =  -3033.16904432     A.U. after    1 cycles
 Normal termination of Gaussian 16 at Tue Feb 11 14:00:52 2020.

 -----------------------------------------
 #t pop=none jul-cc-pvdz guess=read ub3lyp
 -----------------------------------------
 -------------------------
 theory_abbreviation b3lyp
 -------------------------
 Symbolic Z-matrix:
 Charge =  0 Multiplicity = 6

 SCF Done:  E(UB3LYP) =  -3034.35048135     A.U. after   13 cycles
 Normal termination of Gaussian 16 at Tue Feb 11 14:14:22 2020.

 -------------------------------------------------------------------
 #t pop=none jul-cc-pvdz guess=read ub3lyp empiricaldispersion=gd3bj
 -------------------------------------------------------------------
 ------------------------------
 theory_abbreviation b3lyp_d3bj
 ------------------------------
 Symbolic Z-matrix:
 Charge =  0 Multiplicity = 6

 SCF Done:  E(UB3LYP) =  -3034.41821218     A.U. after    1 cycles
 Normal termination of Gaussian 16 at Tue Feb 11 14:15:30 2020.

 ----------------------------------------
 #t pop=none jul-cc-pvdz guess=read ub97d
 ----------------------------------------
 ------------------------
 theory_abbreviation b97d
 ------------------------
 Symbolic Z-matrix:
 Charge =  0 Multiplicity = 6

 SCF Done:  E(UB97D) =  -3034.60201396     A.U. after   15 cycles

 ----------------------------------------------------------------
 #t pop=none jul-cc-pvdz guess=read ub97d empiricaldispersion=gd3
 ----------------------------------------------------------------
 -------------------------
 theory_abbreviation b97d3
 -------------------------
 Symbolic Z-matrix:
 Charge =  0 Multiplicity = 6

 SCF Done:  E(UB97D) =  -3034.60308047     A.U. after    1 cycles
 SCF Done:  E(UBHandHLYP) =  -3033.99159019     A.U. after   15 cycles
 SCF Done:  E(UBHandH) =  -3026.32918085     A.U. after   14 cycles
 SCF Done:  E(ULC-wPBE) =  -3033.47265594     A.U. after   19 cycles
 SCF Done:  E(UB-P86) =  -3034.65126511     A.U. after   16 cycles
 SCF Done:  E(UmPW1LYP) =  -3034.06870037     A.U. after   13 cycles
 SCF Done:  E(UmPW1PBE) =  -3033.90700256     A.U. after   14 cycles
 SCF Done:  E(UmPW3PBE) =  -3033.68004027     A.U. after   13 cycles
 SCF Done:  E(UM11) =  -3033.83011225     A.U. after   17 cycles
 SCF Done:  E(UN12SX) =  -3033.27132153     A.U. after   16 cycles
 SCF Done:  E(UMN12SX) =  -3033.67277648     A.U. after   16 cycles
 SCF Done:  E(UB1B95) =  -3034.40253711     A.U. after   14 cycles
 Normal termination of Gaussian 16 at Tue Feb 11 22:27:22 2020.
 SCF Done:  E(UB3PW91) =  -3033.99616170     A.U. after   13 cycles
 Normal termination of Gaussian 16 at Tue Feb 11 22:40:47 2020.
 SCF Done:  E(UM06L) =  -3034.21779769     A.U. after   18 cycles
 Normal termination of Gaussian 16 at Tue Feb 11 23:01:47 2020.
 Gaussian 16:  ES64L-G16RevA.03 25-Dec-2016

                         Standard orientation:
 ---------------------------------------------------------------------
 Center     Atomic      Atomic             Coordinates (Angstroms)
 Number     Number       Type             X           Y           Z
 ---------------------------------------------------------------------
      1          8           0        0.180970    0.367992   -0.868853
      2          6           0        1.011738    1.294230   -0.671924
      3          6           0        2.957067    0.228952    0.586400
      4          6           0        2.730281   -0.908288   -0.110809
      5          6           0        3.344052   -1.141046   -1.462705
      6         26           0       -1.494030   -0.170028   -0.007415
      7         17           0       -2.029332   -2.030433   -1.003091
      8          6           0        1.829643   -2.008342    0.364650
      9         17           0       -2.767314    1.557428   -0.432967
     10         17           0       -1.104329   -0.406779    2.141718
     11          1           0        3.662813    0.939641    0.156881
     12          1           0        2.368054   -2.964738    0.373053
     13          1           0        1.413789   -1.836515    1.357084
     14          1           0        0.993379   -2.132849   -0.337610
     15          1           0        3.952121   -2.054799   -1.441899
     16          1           0        2.568291   -1.306609   -2.222728
     17          1           0        3.987472   -0.316290   -1.780562
     18          6           0        2.637739    0.439266    2.046098
     19          1           0        3.398180   -0.055476    2.664921
     20          1           0        2.657943    1.499243    2.312549
     21          1           0        1.665325    0.036466    2.337735
     22          6           0        0.795662    2.273483    0.442388
     23          1           0        1.680752    2.877427    0.644136
     24          1           0       -0.009375    2.938267    0.094878
     25          1           0        0.442534    1.787789    1.351907
     26          6           0        1.842546    1.728432   -1.845410
     27          1           0        1.230487    2.464091   -2.387481
     28          1           0        2.769261    2.219289   -1.546469
     29          1           0        2.040220    0.898059   -2.521109
 ---------------------------------------------------------------------

 SCF Done:  E(UB97D3) =  -3034.63817944     A.U. after   15 cycles
 Normal termination of Gaussian 16 at Tue Feb 11 23:13:43 2020.
