 Gaussian 16, Revision A.03,

 --------------------------------
 #t pop=none jul-cc-pvdz upbe1pbe
 --------------------------------
 ------------------------
 theory_abbreviation pbe0
 ------------------------
 Symbolic Z-matrix:
 Charge =  0 Multiplicity = 6

 SCF Done:  E(UPBE1PBE) =  -3033.13700592     A.U. after   20 cycles
 Normal termination of Gaussian 16 at Wed Feb 12 14:11:23 2020.

 ---------------------------------------------------------------------
 #t pop=none jul-cc-pvdz guess=read upbe1pbe empiricaldispersion=gd3bj
 ---------------------------------------------------------------------
 -----------------------------
 theory_abbreviation pbe0_d3bj
 -----------------------------
 Symbolic Z-matrix:
 Charge =  0 Multiplicity = 6

 SCF Done:  E(UPBE1PBE) =  -3033.17336241     A.U. after    1 cycles
 Normal termination of Gaussian 16 at Wed Feb 12 14:12:42 2020.

 -----------------------------------------
 #t pop=none jul-cc-pvdz guess=read ub3lyp
 -----------------------------------------
 -------------------------
 theory_abbreviation b3lyp
 -------------------------
 Symbolic Z-matrix:
 Charge =  0 Multiplicity = 6

 SCF Done:  E(UB3LYP) =  -3034.35539585     A.U. after   13 cycles
 Normal termination of Gaussian 16 at Wed Feb 12 14:26:21 2020.

 -------------------------------------------------------------------
 #t pop=none jul-cc-pvdz guess=read ub3lyp empiricaldispersion=gd3bj
 -------------------------------------------------------------------
 ------------------------------
 theory_abbreviation b3lyp_d3bj
 ------------------------------
 Symbolic Z-matrix:
 Charge =  0 Multiplicity = 6

 SCF Done:  E(UB3LYP) =  -3034.42270129     A.U. after    1 cycles
 Normal termination of Gaussian 16 at Wed Feb 12 14:27:34 2020.

 ----------------------------------------
 #t pop=none jul-cc-pvdz guess=read ub97d
 ----------------------------------------
 ------------------------
 theory_abbreviation b97d
 ------------------------
 Symbolic Z-matrix:
 Charge =  0 Multiplicity = 6

 SCF Done:  E(UB97D) =  -3034.60580231     A.U. after   15 cycles

 ----------------------------------------------------------------
 #t pop=none jul-cc-pvdz guess=read ub97d empiricaldispersion=gd3
 ----------------------------------------------------------------
 -------------------------
 theory_abbreviation b97d3
 -------------------------
 Symbolic Z-matrix:
 Charge =  0 Multiplicity = 6

 SCF Done:  E(UB97D) =  -3034.60734190     A.U. after    2 cycles
 SCF Done:  E(UBHandHLYP) =  -3033.99722418     A.U. after   17 cycles
 SCF Done:  E(UBHandH) =  -3026.33334331     A.U. after   14 cycles
 SCF Done:  E(ULC-wPBE) =  -3033.47817273     A.U. after   17 cycles
 SCF Done:  E(UB-P86) =  -3034.65480846     A.U. after   17 cycles
 SCF Done:  E(UmPW1LYP) =  -3034.07375414     A.U. after   13 cycles
 SCF Done:  E(UmPW1PBE) =  -3033.91146211     A.U. after   14 cycles
 SCF Done:  E(UmPW3PBE) =  -3033.68444303     A.U. after   13 cycles
 SCF Done:  E(UM11) =  -3033.83572014     A.U. after   17 cycles
 SCF Done:  E(UN12SX) =  -3033.27594135     A.U. after   16 cycles
 SCF Done:  E(UMN12SX) =  -3033.67827823     A.U. after   16 cycles
 SCF Done:  E(UB1B95) =  -3034.40765041     A.U. after   14 cycles
 Normal termination of Gaussian 16 at Wed Feb 12 21:54:32 2020.
 SCF Done:  E(UB3PW91) =  -3034.00066977     A.U. after   13 cycles
 Normal termination of Gaussian 16 at Wed Feb 12 22:07:27 2020.
 SCF Done:  E(UM06L) =  -3034.22287181     A.U. after   17 cycles
 Normal termination of Gaussian 16 at Wed Feb 12 22:25:47 2020.
 Gaussian 16:  ES64L-G16RevA.03 25-Dec-2016

                         Standard orientation:
 ---------------------------------------------------------------------
 Center     Atomic      Atomic             Coordinates (Angstroms)
 Number     Number       Type             X           Y           Z
 ---------------------------------------------------------------------
      1          8           0        0.186046    0.394688   -0.878308
      2          6           0        0.964801    1.355093   -0.676038
      3          6           0        3.087389    0.109618    0.551119
      4          6           0        2.666158   -0.938657   -0.184631
      5          6           0        3.142874   -1.149457   -1.596390
      6         26           0       -1.485202   -0.166798    0.013670
      7         17           0       -2.063116   -1.991010   -1.017090
      8          6           0        1.734824   -2.003614    0.316663
      9         17           0       -2.739233    1.586107   -0.363173
     10         17           0       -1.067941   -0.434368    2.151233
     11          1           0        3.810530    0.783164    0.089697
     12          1           0        2.252177   -2.972309    0.333990
     13          1           0        1.342867   -1.810534    1.314850
     14          1           0        0.886103   -2.124435   -0.368682
     15          1           0        3.662026   -2.113397   -1.677653
     16          1           0        2.294539   -1.198356   -2.292203
     17          1           0        3.832735   -0.367808   -1.927433
     18          6           0        2.852236    0.328733    2.022008
     19          1           0        3.659382   -0.133971    2.606352
     20          1           0        2.857156    1.393894    2.274485
     21          1           0        1.908484   -0.096096    2.372676
     22          6           0        0.803698    2.240015    0.519214
     23          1           0        1.690214    2.847967    0.702693
     24          1           0       -0.039657    2.909116    0.291184
     25          1           0        0.533165    1.671542    1.409438
     26          6           0        1.798929    1.840406   -1.821786
     27          1           0        1.225220    2.651613   -2.294224
     28          1           0        2.750802    2.257476   -1.490158
     29          1           0        1.950627    1.056157   -2.561396
 ---------------------------------------------------------------------

 SCF Done:  E(UB97D3) =  -3034.64200918     A.U. after   16 cycles
 Normal termination of Gaussian 16 at Wed Feb 12 22:38:14 2020.
