 Gaussian 16, Revision A.03,

 --------------------------------
 #t pop=none jul-cc-pvdz upbe1pbe
 --------------------------------
 ------------------------
 theory_abbreviation pbe0
 ------------------------
 Symbolic Z-matrix:
 Charge =  0 Multiplicity = 6

 SCF Done:  E(UPBE1PBE) =  -3033.10929840     A.U. after   21 cycles
 Normal termination of Gaussian 16 at Tue Feb 11 14:47:59 2020.

 ---------------------------------------------------------------------
 #t pop=none jul-cc-pvdz guess=read upbe1pbe empiricaldispersion=gd3bj
 ---------------------------------------------------------------------
 -----------------------------
 theory_abbreviation pbe0_d3bj
 -----------------------------
 Symbolic Z-matrix:
 Charge =  0 Multiplicity = 6

 SCF Done:  E(UPBE1PBE) =  -3033.14580930     A.U. after    1 cycles
 Normal termination of Gaussian 16 at Tue Feb 11 14:49:16 2020.

 -----------------------------------------
 #t pop=none jul-cc-pvdz guess=read ub3lyp
 -----------------------------------------
 -------------------------
 theory_abbreviation b3lyp
 -------------------------
 Symbolic Z-matrix:
 Charge =  0 Multiplicity = 6

 SCF Done:  E(UB3LYP) =  -3034.32178141     A.U. after   15 cycles
 Normal termination of Gaussian 16 at Tue Feb 11 15:06:13 2020.

 -------------------------------------------------------------------
 #t pop=none jul-cc-pvdz guess=read ub3lyp empiricaldispersion=gd3bj
 -------------------------------------------------------------------
 ------------------------------
 theory_abbreviation b3lyp_d3bj
 ------------------------------
 Symbolic Z-matrix:
 Charge =  0 Multiplicity = 6

 SCF Done:  E(UB3LYP) =  -3034.38985343     A.U. after    1 cycles
 Normal termination of Gaussian 16 at Tue Feb 11 15:07:29 2020.

 ----------------------------------------
 #t pop=none jul-cc-pvdz guess=read ub97d
 ----------------------------------------
 ------------------------
 theory_abbreviation b97d
 ------------------------
 Symbolic Z-matrix:
 Charge =  0 Multiplicity = 6

 SCF Done:  E(UB97D) =  -3034.57394643     A.U. after   16 cycles

 ----------------------------------------------------------------
 #t pop=none jul-cc-pvdz guess=read ub97d empiricaldispersion=gd3
 ----------------------------------------------------------------
 -------------------------
 theory_abbreviation b97d3
 -------------------------
 Symbolic Z-matrix:
 Charge =  0 Multiplicity = 6

 SCF Done:  E(UB97D) =  -3034.57440217     A.U. after    3 cycles
 SCF Done:  E(UBHandHLYP) =  -3033.96328840     A.U. after   17 cycles
 SCF Done:  E(UBHandH) =  -3026.31187685     A.U. after   16 cycles
 SCF Done:  E(ULC-wPBE) =  -3033.44891048     A.U. after   18 cycles
 SCF Done:  E(UB-P86) =  -3034.62735607     A.U. after   17 cycles
 SCF Done:  E(UmPW1LYP) =  -3034.03972674     A.U. after   15 cycles
 SCF Done:  E(UmPW1PBE) =  -3033.88370433     A.U. after   16 cycles
 SCF Done:  E(UmPW3PBE) =  -3033.65614241     A.U. after   15 cycles
 SCF Done:  E(UM11) =  -3033.80533552     A.U. after   19 cycles
 SCF Done:  E(UN12SX) =  -3033.24908003     A.U. after   17 cycles
 SCF Done:  E(UMN12SX) =  -3033.64524664     A.U. after   16 cycles
 SCF Done:  E(UB1B95) =  -3034.37646787     A.U. after   16 cycles
 Normal termination of Gaussian 16 at Tue Feb 11 23:43:02 2020.
 SCF Done:  E(UB3PW91) =  -3033.97148544     A.U. after   15 cycles
 Normal termination of Gaussian 16 at Tue Feb 11 23:58:13 2020.
 SCF Done:  E(UM06L) =  -3034.18874142     A.U. after   17 cycles
 Normal termination of Gaussian 16 at Wed Feb 12 00:17:14 2020.
 Gaussian 16:  ES64L-G16RevA.03 25-Dec-2016

                         Standard orientation:
 ---------------------------------------------------------------------
 Center     Atomic      Atomic             Coordinates (Angstroms)
 Number     Number       Type             X           Y           Z
 ---------------------------------------------------------------------
      1          8           0       -0.350028   -0.137569   -0.538082
      2          6           0       -1.228193   -1.118393   -0.390850
      3          6           0       -2.620370   -0.417515    0.605702
      4          6           0       -2.724179    0.810827   -0.064864
      5          6           0       -3.581288    0.966222   -1.272138
      6         26           0        1.442045    0.161178   -0.059181
      7         17           0        1.776445    2.197082   -0.837072
      8          6           0       -1.936413    1.984573    0.335708
      9         17           0        2.617252   -1.447958   -0.985866
     10         17           0        1.521850    0.118156    2.156483
     11          1           0       -3.408771   -1.125707    0.347969
     12          1           0       -2.329220    2.917724   -0.074002
     13          1           0       -1.777929    2.062430    1.412691
     14          1           0       -0.936503    1.818829   -0.111333
     15          1           0       -4.353771    1.713723   -1.041290
     16          1           0       -3.000064    1.380690   -2.106355
     17          1           0       -4.072951    0.043109   -1.579780
     18          6           0       -2.234634   -0.415179    2.079902
     19          1           0       -2.936350    0.207267    2.646321
     20          1           0       -2.285230   -1.424563    2.491122
     21          1           0       -1.224557   -0.032927    2.244088
     22          6           0       -0.762691   -2.295861    0.465247
     23          1           0       -1.569412   -3.007596    0.660913
     24          1           0        0.017068   -2.801945   -0.116292
     25          1           0       -0.313601   -1.970682    1.402952
     26          6           0       -1.801811   -1.590357   -1.725434
     27          1           0       -1.010457   -2.166347   -2.217236
     28          1           0       -2.674341   -2.239243   -1.604636
     29          1           0       -2.043689   -0.754500   -2.381672
 ---------------------------------------------------------------------

 SCF Done:  E(UB97D3) =  -3034.60863498     A.U. after   16 cycles
 Normal termination of Gaussian 16 at Wed Feb 12 00:29:48 2020.
