 Gaussian 16, Revision A.03,

 --------------------------------
 #t pop=none jul-cc-pvdz upbe1pbe
 --------------------------------
 ------------------------
 theory_abbreviation pbe0
 ------------------------
 Symbolic Z-matrix:
 Charge =  0 Multiplicity = 6

 SCF Done:  E(UPBE1PBE) =  -3033.10711006     A.U. after   20 cycles
 Normal termination of Gaussian 16 at Tue Feb 11 13:56:14 2020.

 ---------------------------------------------------------------------
 #t pop=none jul-cc-pvdz guess=read upbe1pbe empiricaldispersion=gd3bj
 ---------------------------------------------------------------------
 -----------------------------
 theory_abbreviation pbe0_d3bj
 -----------------------------
 Symbolic Z-matrix:
 Charge =  0 Multiplicity = 6

 SCF Done:  E(UPBE1PBE) =  -3033.14437947     A.U. after    1 cycles
 Normal termination of Gaussian 16 at Tue Feb 11 13:57:27 2020.

 -----------------------------------------
 #t pop=none jul-cc-pvdz guess=read ub3lyp
 -----------------------------------------
 -------------------------
 theory_abbreviation b3lyp
 -------------------------
 Symbolic Z-matrix:
 Charge =  0 Multiplicity = 6

 SCF Done:  E(UB3LYP) =  -3034.31904353     A.U. after   13 cycles
 Normal termination of Gaussian 16 at Tue Feb 11 14:11:25 2020.

 -------------------------------------------------------------------
 #t pop=none jul-cc-pvdz guess=read ub3lyp empiricaldispersion=gd3bj
 -------------------------------------------------------------------
 ------------------------------
 theory_abbreviation b3lyp_d3bj
 ------------------------------
 Symbolic Z-matrix:
 Charge =  0 Multiplicity = 6

 SCF Done:  E(UB3LYP) =  -3034.38845722     A.U. after    1 cycles
 Normal termination of Gaussian 16 at Tue Feb 11 14:12:37 2020.

 ----------------------------------------
 #t pop=none jul-cc-pvdz guess=read ub97d
 ----------------------------------------
 ------------------------
 theory_abbreviation b97d
 ------------------------
 Symbolic Z-matrix:
 Charge =  0 Multiplicity = 6

 SCF Done:  E(UB97D) =  -3034.56851854     A.U. after   16 cycles

 ----------------------------------------------------------------
 #t pop=none jul-cc-pvdz guess=read ub97d empiricaldispersion=gd3
 ----------------------------------------------------------------
 -------------------------
 theory_abbreviation b97d3
 -------------------------
 Symbolic Z-matrix:
 Charge =  0 Multiplicity = 6

 SCF Done:  E(UB97D) =  -3034.56985502     A.U. after    1 cycles
 SCF Done:  E(UBHandHLYP) =  -3033.96439410     A.U. after   16 cycles
 SCF Done:  E(UBHandH) =  -3026.31338139     A.U. after   13 cycles
 SCF Done:  E(ULC-wPBE) =  -3033.45247505     A.U. after   16 cycles
 SCF Done:  E(UB-P86) =  -3034.62478404     A.U. after   15 cycles
 SCF Done:  E(UmPW1LYP) =  -3034.03777087     A.U. after   13 cycles
 SCF Done:  E(UmPW1PBE) =  -3033.88139961     A.U. after   13 cycles
 SCF Done:  E(UmPW3PBE) =  -3033.65330020     A.U. after   13 cycles
 SCF Done:  E(UM11) =  -3033.80393091     A.U. after   16 cycles
 SCF Done:  E(UN12SX) =  -3033.24713758     A.U. after   15 cycles
 SCF Done:  E(UMN12SX) =  -3033.64398096     A.U. after   16 cycles
 SCF Done:  E(UB1B95) =  -3034.37286025     A.U. after   14 cycles
 Normal termination of Gaussian 16 at Tue Feb 11 22:35:10 2020.
 SCF Done:  E(UB3PW91) =  -3033.96849098     A.U. after   13 cycles
 Normal termination of Gaussian 16 at Tue Feb 11 22:48:44 2020.
 SCF Done:  E(UM06L) =  -3034.18485897     A.U. after   18 cycles
 Normal termination of Gaussian 16 at Tue Feb 11 23:09:37 2020.
 Gaussian 16:  ES64L-G16RevA.03 25-Dec-2016

                         Standard orientation:
 ---------------------------------------------------------------------
 Center     Atomic      Atomic             Coordinates (Angstroms)
 Number     Number       Type             X           Y           Z
 ---------------------------------------------------------------------
      1          8           0       -0.279920   -0.386611   -0.703604
      2          6           0       -1.411274   -1.205838   -0.489131
      3          6           0       -2.647365   -0.200590   -0.060111
      4          6           0       -2.060126    1.154915   -0.240348
      5          6           0       -1.927333    1.748178   -1.578381
      6         26           0        1.356682    0.021492    0.003803
      7         17           0        1.669880    2.076119   -0.814805
      8          6           0       -1.632827    1.951085    0.908119
      9         17           0        2.848164   -1.500414   -0.507141
     10         17           0        1.032390    0.184703    2.231460
     11          1           0       -3.417076   -0.326033   -0.830688
     12          1           0       -2.451661    2.037605    1.634214
     13          1           0       -0.846727    1.385612    1.450467
     14          1           0       -1.236659    2.928691    0.634559
     15          1           0       -2.536729    2.666131   -1.600369
     16          1           0       -0.883000    2.076199   -1.702381
     17          1           0       -2.221860    1.084284   -2.389376
     18          6           0       -3.259212   -0.461951    1.317100
     19          1           0       -4.071781    0.243960    1.523432
     20          1           0       -3.685721   -1.467110    1.347896
     21          1           0       -2.523233   -0.385969    2.120730
     22          6           0       -1.119548   -2.248870    0.586539
     23          1           0       -1.962369   -2.928623    0.743972
     24          1           0       -0.264240   -2.838999    0.239245
     25          1           0       -0.837997   -1.789091    1.535199
     26          6           0       -1.765063   -1.886946   -1.811700
     27          1           0       -0.922649   -2.514564   -2.117833
     28          1           0       -2.657421   -2.515135   -1.711751
     29          1           0       -1.936134   -1.149696   -2.601633
 ---------------------------------------------------------------------

 SCF Done:  E(UB97D3) =  -3034.60493607     A.U. after   14 cycles
 Normal termination of Gaussian 16 at Tue Feb 11 23:20:59 2020.
