 Gaussian 16, Revision A.03,

 --------------------------------
 #t pop=none jul-cc-pvdz upbe1pbe
 --------------------------------
 ------------------------
 theory_abbreviation pbe0
 ------------------------
 Symbolic Z-matrix:
 Charge =  0 Multiplicity = 6

 SCF Done:  E(UPBE1PBE) =  -3033.11895676     A.U. after   21 cycles
 Normal termination of Gaussian 16 at Tue Feb 11 14:48:10 2020.

 ---------------------------------------------------------------------
 #t pop=none jul-cc-pvdz guess=read upbe1pbe empiricaldispersion=gd3bj
 ---------------------------------------------------------------------
 -----------------------------
 theory_abbreviation pbe0_d3bj
 -----------------------------
 Symbolic Z-matrix:
 Charge =  0 Multiplicity = 6

 SCF Done:  E(UPBE1PBE) =  -3033.15658624     A.U. after    1 cycles
 Normal termination of Gaussian 16 at Tue Feb 11 14:49:21 2020.

 -----------------------------------------
 #t pop=none jul-cc-pvdz guess=read ub3lyp
 -----------------------------------------
 -------------------------
 theory_abbreviation b3lyp
 -------------------------
 Symbolic Z-matrix:
 Charge =  0 Multiplicity = 6

 SCF Done:  E(UB3LYP) =  -3034.33468732     A.U. after   13 cycles
 Normal termination of Gaussian 16 at Tue Feb 11 15:03:19 2020.

 -------------------------------------------------------------------
 #t pop=none jul-cc-pvdz guess=read ub3lyp empiricaldispersion=gd3bj
 -------------------------------------------------------------------
 ------------------------------
 theory_abbreviation b3lyp_d3bj
 ------------------------------
 Symbolic Z-matrix:
 Charge =  0 Multiplicity = 6

 SCF Done:  E(UB3LYP) =  -3034.40472390     A.U. after    1 cycles
 Normal termination of Gaussian 16 at Tue Feb 11 15:04:30 2020.

 ----------------------------------------
 #t pop=none jul-cc-pvdz guess=read ub97d
 ----------------------------------------
 ------------------------
 theory_abbreviation b97d
 ------------------------
 Symbolic Z-matrix:
 Charge =  0 Multiplicity = 6

 SCF Done:  E(UB97D) =  -3034.58751490     A.U. after   15 cycles

 ----------------------------------------------------------------
 #t pop=none jul-cc-pvdz guess=read ub97d empiricaldispersion=gd3
 ----------------------------------------------------------------
 -------------------------
 theory_abbreviation b97d3
 -------------------------
 Symbolic Z-matrix:
 Charge =  0 Multiplicity = 6

 SCF Done:  E(UB97D) =  -3034.58929475     A.U. after    1 cycles
 SCF Done:  E(UBHandHLYP) =  -3033.97639043     A.U. after   18 cycles
 SCF Done:  E(UBHandH) =  -3026.31917493     A.U. after   14 cycles
 SCF Done:  E(ULC-wPBE) =  -3033.45984040     A.U. after   19 cycles
 SCF Done:  E(UB-P86) =  -3034.63930146     A.U. after   16 cycles
 SCF Done:  E(UmPW1LYP) =  -3034.05288091     A.U. after   13 cycles
 SCF Done:  E(UmPW1PBE) =  -3033.89343493     A.U. after   14 cycles
 SCF Done:  E(UmPW3PBE) =  -3033.66620036     A.U. after   13 cycles
 SCF Done:  E(UM11) =  -3033.81688472     A.U. after   16 cycles
 SCF Done:  E(UN12SX) =  -3033.25784738     A.U. after   17 cycles
 SCF Done:  E(UMN12SX) =  -3033.65902023     A.U. after   16 cycles
 SCF Done:  E(UB1B95) =  -3034.38925367     A.U. after   14 cycles
 Normal termination of Gaussian 16 at Tue Feb 11 23:12:01 2020.
 SCF Done:  E(UB3PW91) =  -3033.98195537     A.U. after   14 cycles
 Normal termination of Gaussian 16 at Tue Feb 11 23:26:10 2020.
 SCF Done:  E(UM06L) =  -3034.20377211     A.U. after   17 cycles
 Normal termination of Gaussian 16 at Tue Feb 11 23:44:43 2020.
 Gaussian 16:  ES64L-G16RevA.03 25-Dec-2016

                         Standard orientation:
 ---------------------------------------------------------------------
 Center     Atomic      Atomic             Coordinates (Angstroms)
 Number     Number       Type             X           Y           Z
 ---------------------------------------------------------------------
      1          8           0       -0.304843   -0.167737   -0.687350
      2          6           0       -1.156566   -1.105368   -0.590608
      3          6           0       -3.161452   -0.009119    0.143331
      4          6           0       -2.378181    1.043329   -0.200448
      5          6           0       -2.382844    1.608190   -1.589183
      6         26           0        1.464807    0.085531    0.051310
      7         17           0        2.098182    1.995027   -0.797748
      8          6           0       -1.561037    1.817999    0.789224
      9         17           0        2.497313   -1.706409   -0.683761
     10         17           0        1.320029    0.094361    2.246551
     11          1           0       -3.802128   -0.425149   -0.632143
     12          1           0       -2.165030    2.661107    1.153508
     13          1           0       -1.251341    1.234520    1.656760
     14          1           0       -0.670235    2.244104    0.319305
     15          1           0       -2.677168    2.664644   -1.541627
     16          1           0       -1.374181    1.582621   -2.016925
     17          1           0       -3.081405    1.094182   -2.254441
     18          6           0       -3.488254   -0.446009    1.545921
     19          1           0       -4.400871    0.063212    1.884307
     20          1           0       -3.689067   -1.520346    1.602294
     21          1           0       -2.700148   -0.207551    2.263994
     22          6           0       -1.080627   -2.050388    0.571311
     23          1           0       -1.967110   -2.678140    0.660613
     24          1           0       -0.216952   -2.699766    0.362018
     25          1           0       -0.872224   -1.531228    1.506984
     26          6           0       -1.752538   -1.620302   -1.871205
     27          1           0       -0.986345   -2.282484   -2.300608
     28          1           0       -2.659175   -2.204897   -1.708830
     29          1           0       -1.927776   -0.817394   -2.586252
 ---------------------------------------------------------------------

 SCF Done:  E(UB97D3) =  -3034.62477885     A.U. after   17 cycles
 Normal termination of Gaussian 16 at Tue Feb 11 23:58:08 2020.
