 Gaussian 16, Revision A.03,

 --------------------------------
 #t pop=none jul-cc-pvdz upbe1pbe
 --------------------------------
 ------------------------
 theory_abbreviation pbe0
 ------------------------
 Symbolic Z-matrix:
 Charge =  0 Multiplicity = 6

 SCF Done:  E(UPBE1PBE) =  -3033.10046784     A.U. after   21 cycles
 Normal termination of Gaussian 16 at Tue Feb 11 13:59:04 2020.

 ---------------------------------------------------------------------
 #t pop=none jul-cc-pvdz guess=read upbe1pbe empiricaldispersion=gd3bj
 ---------------------------------------------------------------------
 -----------------------------
 theory_abbreviation pbe0_d3bj
 -----------------------------
 Symbolic Z-matrix:
 Charge =  0 Multiplicity = 6

 SCF Done:  E(UPBE1PBE) =  -3033.13739973     A.U. after    1 cycles
 Normal termination of Gaussian 16 at Tue Feb 11 14:00:16 2020.

 -----------------------------------------
 #t pop=none jul-cc-pvdz guess=read ub3lyp
 -----------------------------------------
 -------------------------
 theory_abbreviation b3lyp
 -------------------------
 Symbolic Z-matrix:
 Charge =  0 Multiplicity = 6

 SCF Done:  E(UB3LYP) =  -3034.31434546     A.U. after   13 cycles
 Normal termination of Gaussian 16 at Tue Feb 11 14:14:14 2020.

 -------------------------------------------------------------------
 #t pop=none jul-cc-pvdz guess=read ub3lyp empiricaldispersion=gd3bj
 -------------------------------------------------------------------
 ------------------------------
 theory_abbreviation b3lyp_d3bj
 ------------------------------
 Symbolic Z-matrix:
 Charge =  0 Multiplicity = 6

 SCF Done:  E(UB3LYP) =  -3034.38302093     A.U. after    1 cycles
 Normal termination of Gaussian 16 at Tue Feb 11 14:15:25 2020.

 ----------------------------------------
 #t pop=none jul-cc-pvdz guess=read ub97d
 ----------------------------------------
 ------------------------
 theory_abbreviation b97d
 ------------------------
 Symbolic Z-matrix:
 Charge =  0 Multiplicity = 6

 SCF Done:  E(UB97D) =  -3034.56585980     A.U. after   16 cycles

 ----------------------------------------------------------------
 #t pop=none jul-cc-pvdz guess=read ub97d empiricaldispersion=gd3
 ----------------------------------------------------------------
 -------------------------
 theory_abbreviation b97d3
 -------------------------
 Symbolic Z-matrix:
 Charge =  0 Multiplicity = 6

 SCF Done:  E(UB97D) =  -3034.56686177     A.U. after    1 cycles
 SCF Done:  E(UBHandHLYP) =  -3033.95533769     A.U. after   17 cycles
 SCF Done:  E(UBHandH) =  -3026.30033286     A.U. after   14 cycles
 SCF Done:  E(ULC-wPBE) =  -3033.44276005     A.U. after   17 cycles
 SCF Done:  E(UB-P86) =  -3034.62142106     A.U. after   16 cycles
 SCF Done:  E(UmPW1LYP) =  -3034.03240913     A.U. after   14 cycles
 SCF Done:  E(UmPW1PBE) =  -3033.87501340     A.U. after   15 cycles
 SCF Done:  E(UmPW3PBE) =  -3033.64758155     A.U. after   13 cycles
 SCF Done:  E(UM11) =  -3033.79483955     A.U. after   16 cycles
 SCF Done:  E(UN12SX) =  -3033.24076223     A.U. after   16 cycles
 SCF Done:  E(UMN12SX) =  -3033.63625639     A.U. after   15 cycles
 SCF Done:  E(UB1B95) =  -3034.36666881     A.U. after   14 cycles
 Normal termination of Gaussian 16 at Tue Feb 11 22:38:31 2020.
 SCF Done:  E(UB3PW91) =  -3033.96302079     A.U. after   14 cycles
 Normal termination of Gaussian 16 at Tue Feb 11 22:54:27 2020.
 SCF Done:  E(UM06L) =  -3034.17787307     A.U. after   18 cycles
 Normal termination of Gaussian 16 at Tue Feb 11 23:14:27 2020.
 Gaussian 16:  ES64L-G16RevA.03 25-Dec-2016

                         Standard orientation:
 ---------------------------------------------------------------------
 Center     Atomic      Atomic             Coordinates (Angstroms)
 Number     Number       Type             X           Y           Z
 ---------------------------------------------------------------------
      1          8           0       -0.404231   -0.163722   -0.495996
      2          6           0       -1.360038   -1.212727   -0.383244
      3          6           0       -2.879382   -0.091883   -0.170407
      4          6           0       -2.005167    1.099328   -0.285633
      5          6           0       -1.882926    1.786863   -1.596899
      6         26           0        1.382120    0.053210    0.046404
      7         17           0        1.848804    2.025455   -0.839810
      8          6           0       -1.577725    1.853894    0.919874
      9         17           0        2.466968   -1.692065   -0.726578
     10         17           0        1.354745    0.146314    2.259223
     11          1           0       -3.477604   -0.239172   -1.070786
     12          1           0       -2.430268    2.488165    1.212190
     13          1           0       -1.341708    1.204172    1.763059
     14          1           0       -0.723564    2.499315    0.706433
     15          1           0       -2.655698    2.572831   -1.614579
     16          1           0       -0.905866    2.264726   -1.702345
     17          1           0       -2.069040    1.112331   -2.434189
     18          6           0       -3.665094   -0.320553    1.103847
     19          1           0       -4.462722    0.424223    1.220428
     20          1           0       -4.140689   -1.305411    1.073021
     21          1           0       -3.038641   -0.282291    1.998122
     22          6           0       -1.161859   -2.073857    0.835653
     23          1           0       -1.979396   -2.791569    0.951623
     24          1           0       -0.228023   -2.637415    0.706757
     25          1           0       -1.059642   -1.478722    1.744634
     26          6           0       -1.484820   -1.969444   -1.681321
     27          1           0       -0.529599   -2.475188   -1.873316
     28          1           0       -2.278880   -2.721147   -1.630567
     29          1           0       -1.676674   -1.293233   -2.518419
 ---------------------------------------------------------------------

 SCF Done:  E(UB97D3) =  -3034.60191888     A.U. after   15 cycles
 Normal termination of Gaussian 16 at Tue Feb 11 23:26:37 2020.
