 Gaussian 16, Revision A.03,

 --------------------------------
 #t pop=none jul-cc-pvdz upbe1pbe
 --------------------------------
 ------------------------
 theory_abbreviation pbe0
 ------------------------
 Symbolic Z-matrix:
 Charge =  0 Multiplicity = 6

 SCF Done:  E(UPBE1PBE) =  -3033.11294006     A.U. after   20 cycles
 Normal termination of Gaussian 16 at Tue Feb 11 13:58:50 2020.

 ---------------------------------------------------------------------
 #t pop=none jul-cc-pvdz guess=read upbe1pbe empiricaldispersion=gd3bj
 ---------------------------------------------------------------------
 -----------------------------
 theory_abbreviation pbe0_d3bj
 -----------------------------
 Symbolic Z-matrix:
 Charge =  0 Multiplicity = 6

 SCF Done:  E(UPBE1PBE) =  -3033.15078740     A.U. after    1 cycles
 Normal termination of Gaussian 16 at Tue Feb 11 14:00:01 2020.

 -----------------------------------------
 #t pop=none jul-cc-pvdz guess=read ub3lyp
 -----------------------------------------
 -------------------------
 theory_abbreviation b3lyp
 -------------------------
 Symbolic Z-matrix:
 Charge =  0 Multiplicity = 6

 SCF Done:  E(UB3LYP) =  -3034.32764818     A.U. after   13 cycles
 Normal termination of Gaussian 16 at Tue Feb 11 14:14:01 2020.

 -------------------------------------------------------------------
 #t pop=none jul-cc-pvdz guess=read ub3lyp empiricaldispersion=gd3bj
 -------------------------------------------------------------------
 ------------------------------
 theory_abbreviation b3lyp_d3bj
 ------------------------------
 Symbolic Z-matrix:
 Charge =  0 Multiplicity = 6

 SCF Done:  E(UB3LYP) =  -3034.39816678     A.U. after    1 cycles
 Normal termination of Gaussian 16 at Tue Feb 11 14:15:13 2020.

 ----------------------------------------
 #t pop=none jul-cc-pvdz guess=read ub97d
 ----------------------------------------
 ------------------------
 theory_abbreviation b97d
 ------------------------
 Symbolic Z-matrix:
 Charge =  0 Multiplicity = 6

 SCF Done:  E(UB97D) =  -3034.58092941     A.U. after   15 cycles

 ----------------------------------------------------------------
 #t pop=none jul-cc-pvdz guess=read ub97d empiricaldispersion=gd3
 ----------------------------------------------------------------
 -------------------------
 theory_abbreviation b97d3
 -------------------------
 Symbolic Z-matrix:
 Charge =  0 Multiplicity = 6

 SCF Done:  E(UB97D) =  -3034.58247791     A.U. after    1 cycles
 SCF Done:  E(UBHandHLYP) =  -3033.96936096     A.U. after   18 cycles
 SCF Done:  E(UBHandH) =  -3026.31417637     A.U. after   13 cycles
 SCF Done:  E(ULC-wPBE) =  -3033.45345774     A.U. after   19 cycles
 SCF Done:  E(UB-P86) =  -3034.63353115     A.U. after   16 cycles
 SCF Done:  E(UmPW1LYP) =  -3034.04580669     A.U. after   13 cycles
 SCF Done:  E(UmPW1PBE) =  -3033.88740662     A.U. after   13 cycles
 SCF Done:  E(UmPW3PBE) =  -3033.66005546     A.U. after   13 cycles
 SCF Done:  E(UM11) =  -3033.81068025     A.U. after   17 cycles
 SCF Done:  E(UN12SX) =  -3033.25213552     A.U. after   17 cycles
 SCF Done:  E(UMN12SX) =  -3033.65226272     A.U. after   16 cycles
 SCF Done:  E(UB1B95) =  -3034.38268942     A.U. after   15 cycles
 Normal termination of Gaussian 16 at Tue Feb 11 22:42:43 2020.
 SCF Done:  E(UB3PW91) =  -3033.97564745     A.U. after   13 cycles
 Normal termination of Gaussian 16 at Tue Feb 11 22:57:32 2020.
 SCF Done:  E(UM06L) =  -3034.19602183     A.U. after   17 cycles
 Normal termination of Gaussian 16 at Tue Feb 11 23:16:48 2020.
 Gaussian 16:  ES64L-G16RevA.03 25-Dec-2016

                         Standard orientation:
 ---------------------------------------------------------------------
 Center     Atomic      Atomic             Coordinates (Angstroms)
 Number     Number       Type             X           Y           Z
 ---------------------------------------------------------------------
      1          8           0       -0.315575   -0.135433   -0.658129
      2          6           0       -1.205091   -1.057556   -0.574230
      3          6           0       -3.094950   -0.050607    0.116415
      4          6           0       -2.348923    1.049381   -0.187273
      5          6           0       -2.350488    1.651807   -1.556657
      6         26           0        1.452084    0.075749    0.046480
      7         17           0        2.074403    2.013081   -0.761281
      8          6           0       -1.562820    1.807610    0.835278
      9         17           0        2.490373   -1.697451   -0.730008
     10         17           0        1.323517    0.047784    2.248382
     11          1           0       -3.734954   -0.442563   -0.671033
     12          1           0       -2.208646    2.600922    1.239047
     13          1           0       -1.227742    1.195885    1.673174
     14          1           0       -0.693095    2.294054    0.385794
     15          1           0       -2.664310    2.700681   -1.476329
     16          1           0       -1.334376    1.657839   -1.966860
     17          1           0       -3.030274    1.145956   -2.246104
     18          6           0       -3.458183   -0.491295    1.511009
     19          1           0       -4.364519    0.038735    1.832874
     20          1           0       -3.684467   -1.560360    1.552916
     21          1           0       -2.679072   -0.277626    2.245980
     22          6           0       -1.094666   -2.051941    0.548636
     23          1           0       -1.967127   -2.700904    0.626235
     24          1           0       -0.223191   -2.673965    0.295430
     25          1           0       -0.878827   -1.571570    1.503050
     26          6           0       -1.742078   -1.575393   -1.885093
     27          1           0       -0.936723   -2.196767   -2.301693
     28          1           0       -2.630419   -2.197186   -1.761210
     29          1           0       -1.929630   -0.769207   -2.593794
 ---------------------------------------------------------------------

 SCF Done:  E(UB97D3) =  -3034.61822225     A.U. after   16 cycles
 Normal termination of Gaussian 16 at Tue Feb 11 23:29:54 2020.
