 Gaussian 16, Revision A.03,

 --------------------------------
 #t pop=none jul-cc-pvdz upbe1pbe
 --------------------------------
 ------------------------
 theory_abbreviation pbe0
 ------------------------
 Symbolic Z-matrix:
 Charge =  0 Multiplicity = 6

 SCF Done:  E(UPBE1PBE) =  -3033.12660297     A.U. after   21 cycles
 Normal termination of Gaussian 16 at Tue Feb 11 13:59:52 2020.

 ---------------------------------------------------------------------
 #t pop=none jul-cc-pvdz guess=read upbe1pbe empiricaldispersion=gd3bj
 ---------------------------------------------------------------------
 -----------------------------
 theory_abbreviation pbe0_d3bj
 -----------------------------
 Symbolic Z-matrix:
 Charge =  0 Multiplicity = 6

 SCF Done:  E(UPBE1PBE) =  -3033.16388632     A.U. after    1 cycles
 Normal termination of Gaussian 16 at Tue Feb 11 14:01:02 2020.

 -----------------------------------------
 #t pop=none jul-cc-pvdz guess=read ub3lyp
 -----------------------------------------
 -------------------------
 theory_abbreviation b3lyp
 -------------------------
 Symbolic Z-matrix:
 Charge =  0 Multiplicity = 6

 SCF Done:  E(UB3LYP) =  -3034.34331110     A.U. after   13 cycles
 Normal termination of Gaussian 16 at Tue Feb 11 14:14:42 2020.

 -------------------------------------------------------------------
 #t pop=none jul-cc-pvdz guess=read ub3lyp empiricaldispersion=gd3bj
 -------------------------------------------------------------------
 ------------------------------
 theory_abbreviation b3lyp_d3bj
 ------------------------------
 Symbolic Z-matrix:
 Charge =  0 Multiplicity = 6

 SCF Done:  E(UB3LYP) =  -3034.41260710     A.U. after    1 cycles
 Normal termination of Gaussian 16 at Tue Feb 11 14:15:51 2020.

 ----------------------------------------
 #t pop=none jul-cc-pvdz guess=read ub97d
 ----------------------------------------
 ------------------------
 theory_abbreviation b97d
 ------------------------
 Symbolic Z-matrix:
 Charge =  0 Multiplicity = 6

 SCF Done:  E(UB97D) =  -3034.59579812     A.U. after   15 cycles

 ----------------------------------------------------------------
 #t pop=none jul-cc-pvdz guess=read ub97d empiricaldispersion=gd3
 ----------------------------------------------------------------
 -------------------------
 theory_abbreviation b97d3
 -------------------------
 Symbolic Z-matrix:
 Charge =  0 Multiplicity = 6

 SCF Done:  E(UB97D) =  -3034.59736753     A.U. after    1 cycles
 SCF Done:  E(UBHandHLYP) =  -3033.98494680     A.U. after   18 cycles
 SCF Done:  E(UBHandH) =  -3026.32561409     A.U. after   14 cycles
 SCF Done:  E(ULC-wPBE) =  -3033.46764738     A.U. after   19 cycles
 SCF Done:  E(UB-P86) =  -3034.64636904     A.U. after   16 cycles
 SCF Done:  E(UmPW1LYP) =  -3034.06156618     A.U. after   13 cycles
 SCF Done:  E(UmPW1PBE) =  -3033.90103970     A.U. after   13 cycles
 SCF Done:  E(UmPW3PBE) =  -3033.67391479     A.U. after   13 cycles
 SCF Done:  E(UM11) =  -3033.82487205     A.U. after   16 cycles
 SCF Done:  E(UN12SX) =  -3033.26543406     A.U. after   17 cycles
 SCF Done:  E(UMN12SX) =  -3033.66712494     A.U. after   16 cycles
 SCF Done:  E(UB1B95) =  -3034.39696897     A.U. after   14 cycles
 Normal termination of Gaussian 16 at Tue Feb 11 22:35:39 2020.
 SCF Done:  E(UB3PW91) =  -3033.98981998     A.U. after   13 cycles
 Normal termination of Gaussian 16 at Tue Feb 11 22:49:11 2020.
 SCF Done:  E(UM06L) =  -3034.21228630     A.U. after   17 cycles
 Normal termination of Gaussian 16 at Tue Feb 11 23:09:34 2020.
 Gaussian 16:  ES64L-G16RevA.03 25-Dec-2016

                         Standard orientation:
 ---------------------------------------------------------------------
 Center     Atomic      Atomic             Coordinates (Angstroms)
 Number     Number       Type             X           Y           Z
 ---------------------------------------------------------------------
      1          8           0       -0.275704   -0.239785   -0.782827
      2          6           0       -1.097708   -1.188193   -0.642385
      3          6           0       -3.108314   -0.061930    0.326631
      4          6           0       -2.475454    1.014528   -0.193058
      5          6           0       -2.687671    1.446698   -1.615029
      6         26           0        1.460665    0.114987    0.038048
      7         17           0        2.101907    1.994109   -0.860135
      8          6           0       -1.586167    1.923022    0.600556
      9         17           0        2.578704   -1.670326   -0.568292
     10         17           0        1.200875    0.207912    2.219529
     11          1           0       -3.807414   -0.589483   -0.320910
     12          1           0       -2.136645    2.845697    0.831842
     13          1           0       -1.241636    1.494271    1.541123
     14          1           0       -0.712143    2.224150    0.013099
     15          1           0       -3.034947    2.487627   -1.633007
     16          1           0       -1.739231    1.426757   -2.166745
     17          1           0       -3.428416    0.835594   -2.137582
     18          6           0       -3.184236   -0.425168    1.785924
     19          1           0       -4.053872    0.064355    2.244967
     20          1           0       -3.318459   -1.501633    1.929342
     21          1           0       -2.301830   -0.114786    2.350984
     22          6           0       -0.967123   -2.136040    0.510707
     23          1           0       -1.852958   -2.758479    0.638495
     24          1           0       -0.117056   -2.788794    0.260419
     25          1           0       -0.715741   -1.620829    1.437696
     26          6           0       -1.805472   -1.679149   -1.872712
     27          1           0       -1.109669   -2.388423   -2.344934
     28          1           0       -2.727090   -2.214546   -1.641179
     29          1           0       -1.986934   -0.874282   -2.582769
 ---------------------------------------------------------------------

 SCF Done:  E(UB97D3) =  -3034.63243094     A.U. after   17 cycles
 Normal termination of Gaussian 16 at Tue Feb 11 23:22:59 2020.
