 Gaussian 16, Revision A.03,

 --------------------------------
 #t pop=none jul-cc-pvdz upbe1pbe
 --------------------------------
 ------------------------
 theory_abbreviation pbe0
 ------------------------
 Symbolic Z-matrix:
 Charge =  0 Multiplicity = 6

 SCF Done:  E(UPBE1PBE) =  -3033.13103767     A.U. after   19 cycles
 Normal termination of Gaussian 16 at Tue Feb 11 13:58:02 2020.

 ---------------------------------------------------------------------
 #t pop=none jul-cc-pvdz guess=read upbe1pbe empiricaldispersion=gd3bj
 ---------------------------------------------------------------------
 -----------------------------
 theory_abbreviation pbe0_d3bj
 -----------------------------
 Symbolic Z-matrix:
 Charge =  0 Multiplicity = 6

 SCF Done:  E(UPBE1PBE) =  -3033.16795750     A.U. after    1 cycles
 Normal termination of Gaussian 16 at Tue Feb 11 13:59:12 2020.

 -----------------------------------------
 #t pop=none jul-cc-pvdz guess=read ub3lyp
 -----------------------------------------
 -------------------------
 theory_abbreviation b3lyp
 -------------------------
 Symbolic Z-matrix:
 Charge =  0 Multiplicity = 6

 SCF Done:  E(UB3LYP) =  -3034.34849620     A.U. after   13 cycles
 Normal termination of Gaussian 16 at Tue Feb 11 14:12:53 2020.

 -------------------------------------------------------------------
 #t pop=none jul-cc-pvdz guess=read ub3lyp empiricaldispersion=gd3bj
 -------------------------------------------------------------------
 ------------------------------
 theory_abbreviation b3lyp_d3bj
 ------------------------------
 Symbolic Z-matrix:
 Charge =  0 Multiplicity = 6

 SCF Done:  E(UB3LYP) =  -3034.41700230     A.U. after    1 cycles
 Normal termination of Gaussian 16 at Tue Feb 11 14:14:03 2020.

 ----------------------------------------
 #t pop=none jul-cc-pvdz guess=read ub97d
 ----------------------------------------
 ------------------------
 theory_abbreviation b97d
 ------------------------
 Symbolic Z-matrix:
 Charge =  0 Multiplicity = 6

 SCF Done:  E(UB97D) =  -3034.59990972     A.U. after   15 cycles

 ----------------------------------------------------------------
 #t pop=none jul-cc-pvdz guess=read ub97d empiricaldispersion=gd3
 ----------------------------------------------------------------
 -------------------------
 theory_abbreviation b97d3
 -------------------------
 Symbolic Z-matrix:
 Charge =  0 Multiplicity = 6

 SCF Done:  E(UB97D) =  -3034.60172938     A.U. after    2 cycles
 SCF Done:  E(UBHandHLYP) =  -3033.99041906     A.U. after   15 cycles
 SCF Done:  E(UBHandH) =  -3026.32907032     A.U. after   14 cycles
 SCF Done:  E(ULC-wPBE) =  -3033.47253581     A.U. after   17 cycles
 SCF Done:  E(UB-P86) =  -3034.64992300     A.U. after   17 cycles
 SCF Done:  E(UmPW1LYP) =  -3034.06682079     A.U. after   13 cycles
 SCF Done:  E(UmPW1PBE) =  -3033.90548929     A.U. after   14 cycles
 SCF Done:  E(UmPW3PBE) =  -3033.67838902     A.U. after   13 cycles
 SCF Done:  E(UM11) =  -3033.82992843     A.U. after   17 cycles
 SCF Done:  E(UN12SX) =  -3033.26986426     A.U. after   16 cycles
 SCF Done:  E(UMN12SX) =  -3033.67219472     A.U. after   16 cycles
 SCF Done:  E(UB1B95) =  -3034.40174232     A.U. after   14 cycles
 Normal termination of Gaussian 16 at Tue Feb 11 22:30:00 2020.
 SCF Done:  E(UB3PW91) =  -3033.99444648     A.U. after   14 cycles
 Normal termination of Gaussian 16 at Tue Feb 11 22:44:32 2020.
 SCF Done:  E(UM06L) =  -3034.21717510     A.U. after   17 cycles
 Normal termination of Gaussian 16 at Tue Feb 11 23:05:09 2020.
 Gaussian 16:  ES64L-G16RevA.03 25-Dec-2016

                         Standard orientation:
 ---------------------------------------------------------------------
 Center     Atomic      Atomic             Coordinates (Angstroms)
 Number     Number       Type             X           Y           Z
 ---------------------------------------------------------------------
      1          8           0        0.262165    0.287481   -0.798243
      2          6           0        1.044470    1.257844   -0.643204
      3          6           0        3.167306    0.020534    0.349333
      4          6           0        2.502432   -1.005338   -0.221729
      5          6           0        2.714549   -1.375747   -1.663170
      6         26           0       -1.467553   -0.128177    0.042420
      7         17           0       -2.105194   -1.974608   -0.916274
      8          6           0        1.595245   -1.938167    0.525560
      9         17           0       -2.600797    1.668054   -0.496693
     10         17           0       -1.182693   -0.283517    2.213273
     11          1           0        3.870659    0.569966   -0.276347
     12          1           0        2.120638   -2.887657    0.698787
     13          1           0        1.267813   -1.556904    1.492538
     14          1           0        0.709228   -2.183600   -0.069985
     15          1           0        3.068740   -2.412548   -1.730329
     16          1           0        1.767496   -1.335888   -2.216119
     17          1           0        3.451632   -0.736890   -2.157970
     18          6           0        3.214516    0.355127    1.815459
     19          1           0        4.091123   -0.115678    2.281200
     20          1           0        3.314981    1.432959    1.981212
     21          1           0        2.332521    0.009600    2.360809
     22          6           0        0.936267    2.146871    0.555144
     23          1           0        1.826187    2.761482    0.693380
     24          1           0        0.080342    2.811445    0.362590
     25          1           0        0.709322    1.581260    1.459198
     26          6           0        1.784918    1.766746   -1.842679
     27          1           0        1.131255    2.528348   -2.293865
     28          1           0        2.725809    2.249719   -1.575635
     29          1           0        1.940737    0.981116   -2.579923
 ---------------------------------------------------------------------

 SCF Done:  E(UB97D3) =  -3034.63647314     A.U. after   17 cycles
 Normal termination of Gaussian 16 at Tue Feb 11 23:18:40 2020.
