 Gaussian 16, Revision A.03,

 --------------------------------
 #t pop=none jul-cc-pvdz upbe1pbe
 --------------------------------
 ------------------------
 theory_abbreviation pbe0
 ------------------------
 Symbolic Z-matrix:
 Charge =  0 Multiplicity = 6

 SCF Done:  E(UPBE1PBE) =  -3033.11865007     A.U. after   20 cycles
 Normal termination of Gaussian 16 at Tue Feb 11 23:37:57 2020.

 ---------------------------------------------------------------------
 #t pop=none jul-cc-pvdz guess=read upbe1pbe empiricaldispersion=gd3bj
 ---------------------------------------------------------------------
 -----------------------------
 theory_abbreviation pbe0_d3bj
 -----------------------------
 Symbolic Z-matrix:
 Charge =  0 Multiplicity = 6

 SCF Done:  E(UPBE1PBE) =  -3033.15559728     A.U. after    1 cycles
 Normal termination of Gaussian 16 at Tue Feb 11 23:39:04 2020.

 -----------------------------------------
 #t pop=none jul-cc-pvdz guess=read ub3lyp
 -----------------------------------------
 -------------------------
 theory_abbreviation b3lyp
 -------------------------
 Symbolic Z-matrix:
 Charge =  0 Multiplicity = 6

 SCF Done:  E(UB3LYP) =  -3034.33144776     A.U. after   13 cycles
 Normal termination of Gaussian 16 at Tue Feb 11 23:52:10 2020.

 -------------------------------------------------------------------
 #t pop=none jul-cc-pvdz guess=read ub3lyp empiricaldispersion=gd3bj
 -------------------------------------------------------------------
 ------------------------------
 theory_abbreviation b3lyp_d3bj
 ------------------------------
 Symbolic Z-matrix:
 Charge =  0 Multiplicity = 6

 SCF Done:  E(UB3LYP) =  -3034.40020080     A.U. after    1 cycles
 Normal termination of Gaussian 16 at Tue Feb 11 23:53:19 2020.

 ----------------------------------------
 #t pop=none jul-cc-pvdz guess=read ub97d
 ----------------------------------------
 ------------------------
 theory_abbreviation b97d
 ------------------------
 Symbolic Z-matrix:
 Charge =  0 Multiplicity = 6

 SCF Done:  E(UB97D) =  -3034.58142801     A.U. after   16 cycles

 ----------------------------------------------------------------
 #t pop=none jul-cc-pvdz guess=read ub97d empiricaldispersion=gd3
 ----------------------------------------------------------------
 -------------------------
 theory_abbreviation b97d3
 -------------------------
 Symbolic Z-matrix:
 Charge =  0 Multiplicity = 6

 SCF Done:  E(UB97D) =  -3034.58239470     A.U. after    2 cycles
 SCF Done:  E(UBHandHLYP) =  -3033.97421774     A.U. after   16 cycles
 SCF Done:  E(UBHandH) =  -3026.31997545     A.U. after   14 cycles
 SCF Done:  E(ULC-wPBE) =  -3033.46420617     A.U. after   17 cycles
 SCF Done:  E(UB-P86) =  -3034.63785408     A.U. after   17 cycles
 SCF Done:  E(UmPW1LYP) =  -3034.04972764     A.U. after   14 cycles
 SCF Done:  E(UmPW1PBE) =  -3033.89312933     A.U. after   14 cycles
 SCF Done:  E(UmPW3PBE) =  -3033.66531469     A.U. after   14 cycles
 SCF Done:  E(UM11) =  -3033.81345454     A.U. after   16 cycles
 SCF Done:  E(UN12SX) =  -3033.25889599     A.U. after   16 cycles
 SCF Done:  E(UMN12SX) =  -3033.65389174     A.U. after   16 cycles
 SCF Done:  E(UB1B95) =  -3034.38451774     A.U. after   15 cycles
 Normal termination of Gaussian 16 at Wed Feb 12 08:08:08 2020.
 SCF Done:  E(UB3PW91) =  -3033.98071071     A.U. after   14 cycles
 Normal termination of Gaussian 16 at Wed Feb 12 08:22:56 2020.
 SCF Done:  E(UM06L) =  -3034.19519119     A.U. after   18 cycles
 Normal termination of Gaussian 16 at Wed Feb 12 08:43:33 2020.
 Gaussian 16:  ES64L-G16RevA.03 25-Dec-2016

                         Standard orientation:
 ---------------------------------------------------------------------
 Center     Atomic      Atomic             Coordinates (Angstroms)
 Number     Number       Type             X           Y           Z
 ---------------------------------------------------------------------
      1          8           0       -0.406658   -0.189515   -0.534196
      2          6           0       -1.441583   -1.193145   -0.350116
      3          6           0       -2.764981   -0.132963   -0.229165
      4          6           0       -1.942848    1.141186   -0.266076
      5          6           0       -1.851627    1.906980   -1.533268
      6         26           0        1.376314    0.036005    0.030600
      7         17           0        1.840636    2.013527   -0.845651
      8          6           0       -1.569031    1.839319    0.988231
      9         17           0        2.475297   -1.699562   -0.732894
     10         17           0        1.363175    0.148818    2.240807
     11          1           0       -3.335078   -0.217596   -1.158579
     12          1           0       -2.440830    2.443341    1.287736
     13          1           0       -1.339737    1.153277    1.803779
     14          1           0       -0.724961    2.514233    0.830368
     15          1           0       -2.656557    2.660156   -1.515836
     16          1           0       -0.895717    2.433389   -1.602335
     17          1           0       -1.996330    1.270737   -2.407635
     18          6           0       -3.686318   -0.322619    0.968088
     19          1           0       -4.472305    0.441375    0.986546
     20          1           0       -4.178653   -1.297485    0.901279
     21          1           0       -3.152512   -0.283717    1.920385
     22          6           0       -1.203063   -2.012447    0.902605
     23          1           0       -2.021083   -2.721244    1.066517
     24          1           0       -0.276913   -2.585496    0.779830
     25          1           0       -1.086616   -1.385771    1.788801
     26          6           0       -1.523642   -2.046923   -1.600413
     27          1           0       -0.578890   -2.586380   -1.729390
     28          1           0       -2.337803   -2.776400   -1.524390
     29          1           0       -1.683217   -1.426061   -2.486867
 ---------------------------------------------------------------------

 SCF Done:  E(UB97D3) =  -3034.61775675     A.U. after   16 cycles
 Normal termination of Gaussian 16 at Wed Feb 12 08:56:07 2020.
