 Gaussian 16, Revision A.03,

 --------------------------------
 #t pop=none jul-cc-pvdz upbe1pbe
 --------------------------------
 ------------------------
 theory_abbreviation pbe0
 ------------------------
 Symbolic Z-matrix:
 Charge =  0 Multiplicity = 6

 SCF Done:  E(UPBE1PBE) =  -3033.11776242     A.U. after   20 cycles
 Normal termination of Gaussian 16 at Tue Feb 11 14:46:08 2020.

 ---------------------------------------------------------------------
 #t pop=none jul-cc-pvdz guess=read upbe1pbe empiricaldispersion=gd3bj
 ---------------------------------------------------------------------
 -----------------------------
 theory_abbreviation pbe0_d3bj
 -----------------------------
 Symbolic Z-matrix:
 Charge =  0 Multiplicity = 6

 SCF Done:  E(UPBE1PBE) =  -3033.15549391     A.U. after    1 cycles
 Normal termination of Gaussian 16 at Tue Feb 11 14:47:19 2020.

 -----------------------------------------
 #t pop=none jul-cc-pvdz guess=read ub3lyp
 -----------------------------------------
 -------------------------
 theory_abbreviation b3lyp
 -------------------------
 Symbolic Z-matrix:
 Charge =  0 Multiplicity = 6

 SCF Done:  E(UB3LYP) =  -3034.33278177     A.U. after   13 cycles
 Normal termination of Gaussian 16 at Tue Feb 11 15:01:18 2020.

 -------------------------------------------------------------------
 #t pop=none jul-cc-pvdz guess=read ub3lyp empiricaldispersion=gd3bj
 -------------------------------------------------------------------
 ------------------------------
 theory_abbreviation b3lyp_d3bj
 ------------------------------
 Symbolic Z-matrix:
 Charge =  0 Multiplicity = 6

 SCF Done:  E(UB3LYP) =  -3034.40310389     A.U. after    1 cycles
 Normal termination of Gaussian 16 at Tue Feb 11 15:02:29 2020.

 ----------------------------------------
 #t pop=none jul-cc-pvdz guess=read ub97d
 ----------------------------------------
 ------------------------
 theory_abbreviation b97d
 ------------------------
 Symbolic Z-matrix:
 Charge =  0 Multiplicity = 6

 SCF Done:  E(UB97D) =  -3034.58685761     A.U. after   15 cycles

 ----------------------------------------------------------------
 #t pop=none jul-cc-pvdz guess=read ub97d empiricaldispersion=gd3
 ----------------------------------------------------------------
 -------------------------
 theory_abbreviation b97d3
 -------------------------
 Symbolic Z-matrix:
 Charge =  0 Multiplicity = 6

 SCF Done:  E(UB97D) =  -3034.58791306     A.U. after    1 cycles
 SCF Done:  E(UBHandHLYP) =  -3033.97374512     A.U. after   18 cycles
 SCF Done:  E(UBHandH) =  -3026.31820676     A.U. after   16 cycles
 SCF Done:  E(ULC-wPBE) =  -3033.45780139     A.U. after   19 cycles
 SCF Done:  E(UB-P86) =  -3034.63864060     A.U. after   17 cycles
 SCF Done:  E(UmPW1LYP) =  -3034.05089524     A.U. after   14 cycles
 SCF Done:  E(UmPW1PBE) =  -3033.89213512     A.U. after   15 cycles
 SCF Done:  E(UmPW3PBE) =  -3033.66492421     A.U. after   13 cycles
 SCF Done:  E(UM11) =  -3033.81580669     A.U. after   19 cycles
 SCF Done:  E(UN12SX) =  -3033.25705020     A.U. after   17 cycles
 SCF Done:  E(UMN12SX) =  -3033.65697547     A.U. after   16 cycles
 SCF Done:  E(UB1B95) =  -3034.38723366     A.U. after   15 cycles
 Normal termination of Gaussian 16 at Tue Feb 11 23:54:51 2020.
 SCF Done:  E(UB3PW91) =  -3033.98052227     A.U. after   15 cycles
 Normal termination of Gaussian 16 at Wed Feb 12 00:11:36 2020.
 SCF Done:  E(UM06L) =  -3034.20100304     A.U. after   18 cycles
 Normal termination of Gaussian 16 at Wed Feb 12 00:31:49 2020.
 Gaussian 16:  ES64L-G16RevA.03 25-Dec-2016

                         Standard orientation:
 ---------------------------------------------------------------------
 Center     Atomic      Atomic             Coordinates (Angstroms)
 Number     Number       Type             X           Y           Z
 ---------------------------------------------------------------------
      1          8           0       -0.295883   -0.203444   -0.773079
      2          6           0       -1.175323   -1.126257   -0.621646
      3          6           0       -2.867952   -0.226786    0.458150
      4          6           0       -2.520366    0.966774   -0.108062
      5          6           0       -3.007585    1.377235   -1.462423
      6         26           0        1.433103    0.123876   -0.003174
      7         17           0        2.029375    2.058065   -0.832782
      8          6           0       -1.622001    1.956266    0.555302
      9         17           0        2.620564   -1.601671   -0.652132
     10         17           0        1.175648    0.169554    2.192631
     11          1           0       -3.625828   -0.810181   -0.061325
     12          1           0       -2.205697    2.855883    0.796049
     13          1           0       -1.160887    1.591537    1.471420
     14          1           0       -0.830864    2.273818   -0.134247
     15          1           0       -3.472366    2.368795   -1.393056
     16          1           0       -2.158806    1.482936   -2.150949
     17          1           0       -3.739124    0.684382   -1.883371
     18          6           0       -2.726724   -0.525260    1.933831
     19          1           0       -3.499492    0.020681    2.489790
     20          1           0       -2.873442   -1.587701    2.140561
     21          1           0       -1.757108   -0.231025    2.341442
     22          6           0       -0.902385   -2.224087    0.377037
     23          1           0       -1.765949   -2.872819    0.531482
     24          1           0       -0.094329   -2.821042   -0.069435
     25          1           0       -0.533757   -1.840910    1.327613
     26          6           0       -1.875267   -1.570991   -1.886597
     27          1           0       -1.155323   -2.219489   -2.403874
     28          1           0       -2.776681   -2.154114   -1.689638
     29          1           0       -2.093336   -0.736446   -2.550070
 ---------------------------------------------------------------------

 SCF Done:  E(UB97D3) =  -3034.62332145     A.U. after   15 cycles
 Normal termination of Gaussian 16 at Wed Feb 12 00:44:06 2020.
