 Gaussian 16, Revision A.03,

 --------------------------------
 #t pop=none jul-cc-pvdz upbe1pbe
 --------------------------------
 ------------------------
 theory_abbreviation pbe0
 ------------------------
 Symbolic Z-matrix:
 Charge =  0 Multiplicity = 6

 SCF Done:  E(UPBE1PBE) =  -3033.12187023     A.U. after   21 cycles
 Normal termination of Gaussian 16 at Tue Feb 11 13:58:20 2020.

 ---------------------------------------------------------------------
 #t pop=none jul-cc-pvdz guess=read upbe1pbe empiricaldispersion=gd3bj
 ---------------------------------------------------------------------
 -----------------------------
 theory_abbreviation pbe0_d3bj
 -----------------------------
 Symbolic Z-matrix:
 Charge =  0 Multiplicity = 6

 SCF Done:  E(UPBE1PBE) =  -3033.15827376     A.U. after    1 cycles
 Normal termination of Gaussian 16 at Tue Feb 11 13:59:27 2020.

 -----------------------------------------
 #t pop=none jul-cc-pvdz guess=read ub3lyp
 -----------------------------------------
 -------------------------
 theory_abbreviation b3lyp
 -------------------------
 Symbolic Z-matrix:
 Charge =  0 Multiplicity = 6

 SCF Done:  E(UB3LYP) =  -3034.33829668     A.U. after   15 cycles
 Normal termination of Gaussian 16 at Tue Feb 11 14:14:30 2020.

 -------------------------------------------------------------------
 #t pop=none jul-cc-pvdz guess=read ub3lyp empiricaldispersion=gd3bj
 -------------------------------------------------------------------
 ------------------------------
 theory_abbreviation b3lyp_d3bj
 ------------------------------
 Symbolic Z-matrix:
 Charge =  0 Multiplicity = 6

 SCF Done:  E(UB3LYP) =  -3034.40613182     A.U. after    1 cycles
 Normal termination of Gaussian 16 at Tue Feb 11 14:15:37 2020.

 ----------------------------------------
 #t pop=none jul-cc-pvdz guess=read ub97d
 ----------------------------------------
 ------------------------
 theory_abbreviation b97d
 ------------------------
 Symbolic Z-matrix:
 Charge =  0 Multiplicity = 6

 SCF Done:  E(UB97D) =  -3034.59074373     A.U. after   16 cycles

 ----------------------------------------------------------------
 #t pop=none jul-cc-pvdz guess=read ub97d empiricaldispersion=gd3
 ----------------------------------------------------------------
 -------------------------
 theory_abbreviation b97d3
 -------------------------
 Symbolic Z-matrix:
 Charge =  0 Multiplicity = 6

 SCF Done:  E(UB97D) =  -3034.59205858     A.U. after    1 cycles
 SCF Done:  E(UBHandHLYP) =  -3033.97755155     A.U. after   17 cycles
 SCF Done:  E(UBHandH) =  -3026.31901369     A.U. after   16 cycles
 SCF Done:  E(ULC-wPBE) =  -3033.45966008     A.U. after   19 cycles
 SCF Done:  E(UB-P86) =  -3034.64176379     A.U. after   17 cycles
 SCF Done:  E(UmPW1LYP) =  -3034.05602224     A.U. after   16 cycles
 SCF Done:  E(UmPW1PBE) =  -3033.89654529     A.U. after   16 cycles
 SCF Done:  E(UmPW3PBE) =  -3033.66961795     A.U. after   13 cycles
 SCF Done:  E(UM11) =  -3033.81760194     A.U. after   17 cycles
 SCF Done:  E(UN12SX) =  -3033.26076020     A.U. after   15 cycles
 SCF Done:  E(UMN12SX) =  -3033.65894513     A.U. after   17 cycles
 SCF Done:  E(UB1B95) =  -3034.39064976     A.U. after   15 cycles
 Normal termination of Gaussian 16 at Tue Feb 11 22:39:27 2020.
 SCF Done:  E(UB3PW91) =  -3033.98552524     A.U. after   15 cycles
 Normal termination of Gaussian 16 at Tue Feb 11 22:56:20 2020.
 SCF Done:  E(UM06L) =  -3034.20327711     A.U. after   16 cycles
 Normal termination of Gaussian 16 at Tue Feb 11 23:13:45 2020.
 Gaussian 16:  ES64L-G16RevA.03 25-Dec-2016

                         Standard orientation:
 ---------------------------------------------------------------------
 Center     Atomic      Atomic             Coordinates (Angstroms)
 Number     Number       Type             X           Y           Z
 ---------------------------------------------------------------------
      1          8           0       -0.294224   -0.222912   -0.501091
      2          6           0       -1.113478   -1.171506   -0.246684
      3          6           0       -2.707601   -0.189028    0.908095
      4          6           0       -3.072232    0.678835   -0.086379
      5          6           0       -4.153513    0.354554   -1.069340
      6         26           0        1.546199    0.179374   -0.099394
      7         17           0        1.867899    2.091674   -1.105601
      8          6           0       -2.358774    1.976939   -0.267900
      9         17           0        2.571866   -1.565037   -0.948589
     10         17           0        1.798658    0.302789    2.081476
     11          1           0       -3.316894   -1.084830    1.020198
     12          1           0       -2.858244    2.627984   -0.989389
     13          1           0       -2.229683    2.515701    0.676080
     14          1           0       -1.344262    1.761273   -0.642966
     15          1           0       -4.981408    1.062715   -0.925542
     16          1           0       -3.812573    0.491609   -2.103318
     17          1           0       -4.548309   -0.657034   -0.949608
     18          6           0       -1.949955    0.273763    2.132667
     19          1           0       -2.510666    1.066959    2.642092
     20          1           0       -1.813605   -0.539041    2.848060
     21          1           0       -0.962988    0.675098    1.889960
     22          6           0       -0.748060   -2.158621    0.840062
     23          1           0       -1.595102   -2.770018    1.156851
     24          1           0        0.005434   -2.818981    0.387567
     25          1           0       -0.280182   -1.673257    1.695478
     26          6           0       -1.843768   -1.749132   -1.435364
     27          1           0       -1.144605   -2.453001   -1.906574
     28          1           0       -2.742025   -2.301249   -1.151715
     29          1           0       -2.081179   -0.979415   -2.169008
 ---------------------------------------------------------------------

 SCF Done:  E(UB97D3) =  -3034.62727710     A.U. after   15 cycles
 Normal termination of Gaussian 16 at Tue Feb 11 23:25:33 2020.
