 Gaussian 16, Revision A.03,

 --------------------------------
 #t pop=none jul-cc-pvdz upbe1pbe
 --------------------------------
 ------------------------
 theory_abbreviation pbe0
 ------------------------
 Symbolic Z-matrix:
 Charge =  0 Multiplicity = 6

 SCF Done:  E(UPBE1PBE) =  -3033.11698141     A.U. after   21 cycles
 Normal termination of Gaussian 16 at Tue Feb 11 23:38:52 2020.

 ---------------------------------------------------------------------
 #t pop=none jul-cc-pvdz guess=read upbe1pbe empiricaldispersion=gd3bj
 ---------------------------------------------------------------------
 -----------------------------
 theory_abbreviation pbe0_d3bj
 -----------------------------
 Symbolic Z-matrix:
 Charge =  0 Multiplicity = 6

 SCF Done:  E(UPBE1PBE) =  -3033.15337810     A.U. after    1 cycles
 Normal termination of Gaussian 16 at Tue Feb 11 23:40:00 2020.

 -----------------------------------------
 #t pop=none jul-cc-pvdz guess=read ub3lyp
 -----------------------------------------
 -------------------------
 theory_abbreviation b3lyp
 -------------------------
 Symbolic Z-matrix:
 Charge =  0 Multiplicity = 6

 SCF Done:  E(UB3LYP) =  -3034.33186659     A.U. after   15 cycles
 Normal termination of Gaussian 16 at Tue Feb 11 23:54:51 2020.

 -------------------------------------------------------------------
 #t pop=none jul-cc-pvdz guess=read ub3lyp empiricaldispersion=gd3bj
 -------------------------------------------------------------------
 ------------------------------
 theory_abbreviation b3lyp_d3bj
 ------------------------------
 Symbolic Z-matrix:
 Charge =  0 Multiplicity = 6

 SCF Done:  E(UB3LYP) =  -3034.39971383     A.U. after    1 cycles
 Normal termination of Gaussian 16 at Tue Feb 11 23:55:58 2020.

 ----------------------------------------
 #t pop=none jul-cc-pvdz guess=read ub97d
 ----------------------------------------
 ------------------------
 theory_abbreviation b97d
 ------------------------
 Symbolic Z-matrix:
 Charge =  0 Multiplicity = 6

 SCF Done:  E(UB97D) =  -3034.58450374     A.U. after   16 cycles

 ----------------------------------------------------------------
 #t pop=none jul-cc-pvdz guess=read ub97d empiricaldispersion=gd3
 ----------------------------------------------------------------
 -------------------------
 theory_abbreviation b97d3
 -------------------------
 Symbolic Z-matrix:
 Charge =  0 Multiplicity = 6

 SCF Done:  E(UB97D) =  -3034.58544016     A.U. after    3 cycles
 SCF Done:  E(UBHandHLYP) =  -3033.97132245     A.U. after   17 cycles
 SCF Done:  E(UBHandH) =  -3026.31591262     A.U. after   16 cycles
 SCF Done:  E(ULC-wPBE) =  -3033.45462868     A.U. after   18 cycles
 SCF Done:  E(UB-P86) =  -3034.63650596     A.U. after   17 cycles
 SCF Done:  E(UmPW1LYP) =  -3034.04957552     A.U. after   16 cycles
 SCF Done:  E(UmPW1PBE) =  -3033.89155194     A.U. after   16 cycles
 SCF Done:  E(UmPW3PBE) =  -3033.66446138     A.U. after   13 cycles
 SCF Done:  E(UM11) =  -3033.81283824     A.U. after   19 cycles
 SCF Done:  E(UN12SX) =  -3033.25628494     A.U. after   17 cycles
 SCF Done:  E(UMN12SX) =  -3033.65311866     A.U. after   17 cycles
 SCF Done:  E(UB1B95) =  -3034.38499090     A.U. after   16 cycles
 Normal termination of Gaussian 16 at Wed Feb 12 08:26:30 2020.
 SCF Done:  E(UB3PW91) =  -3033.98012287     A.U. after   15 cycles
 Normal termination of Gaussian 16 at Wed Feb 12 08:41:30 2020.
 SCF Done:  E(UM06L) =  -3034.19700042     A.U. after   16 cycles
 Normal termination of Gaussian 16 at Wed Feb 12 08:58:32 2020.
 Gaussian 16:  ES64L-G16RevA.03 25-Dec-2016

                         Standard orientation:
 ---------------------------------------------------------------------
 Center     Atomic      Atomic             Coordinates (Angstroms)
 Number     Number       Type             X           Y           Z
 ---------------------------------------------------------------------
      1          8           0       -0.323048   -0.172087   -0.504113
      2          6           0       -1.166338   -1.135506   -0.314007
      3          6           0       -2.674630   -0.308947    0.801501
      4          6           0       -2.937188    0.731090   -0.067535
      5          6           0       -3.949111    0.611181   -1.160640
      6         26           0        1.503968    0.176471   -0.082149
      7         17           0        1.834847    2.152080   -0.970816
      8          6           0       -2.172302    1.999929   -0.001025
      9         17           0        2.566619   -1.506343   -1.010519
     10         17           0        1.718636    0.191803    2.112675
     11          1           0       -3.356941   -1.156561    0.744004
     12          1           0       -2.626276    2.794366   -0.597704
     13          1           0       -2.011601    2.346700    1.023295
     14          1           0       -1.170352    1.788222   -0.416119
     15          1           0       -4.763393    1.319437   -0.951668
     16          1           0       -3.527876    0.910212   -2.128713
     17          1           0       -4.379501   -0.388834   -1.240192
     18          6           0       -2.050639   -0.048163    2.159177
     19          1           0       -2.664554    0.667403    2.718786
     20          1           0       -1.996890   -0.964162    2.749712
     21          1           0       -1.041435    0.363863    2.084192
     22          6           0       -0.760727   -2.227972    0.662451
     23          1           0       -1.593745   -2.882347    0.929226
     24          1           0       -0.004800   -2.824538    0.134519
     25          1           0       -0.289439   -1.825379    1.557996
     26          6           0       -1.831080   -1.654736   -1.575148
     27          1           0       -1.091490   -2.299053   -2.066561
     28          1           0       -2.720934   -2.254294   -1.367894
     29          1           0       -2.069222   -0.846032   -2.265516
 ---------------------------------------------------------------------

 SCF Done:  E(UB97D3) =  -3034.62018323     A.U. after   15 cycles
 Normal termination of Gaussian 16 at Wed Feb 12 09:10:16 2020.
