 Gaussian 16, Revision A.03,

 --------------------------------
 #t pop=none jul-cc-pvdz upbe1pbe
 --------------------------------
 ------------------------
 theory_abbreviation pbe0
 ------------------------
 Symbolic Z-matrix:
 Charge =  0 Multiplicity = 6

 SCF Done:  E(UPBE1PBE) =  -3033.11272479     A.U. after   21 cycles
 Normal termination of Gaussian 16 at Tue Feb 11 13:58:02 2020.

 ---------------------------------------------------------------------
 #t pop=none jul-cc-pvdz guess=read upbe1pbe empiricaldispersion=gd3bj
 ---------------------------------------------------------------------
 -----------------------------
 theory_abbreviation pbe0_d3bj
 -----------------------------
 Symbolic Z-matrix:
 Charge =  0 Multiplicity = 6

 SCF Done:  E(UPBE1PBE) =  -3033.14875889     A.U. after    1 cycles
 Normal termination of Gaussian 16 at Tue Feb 11 13:59:11 2020.

 -----------------------------------------
 #t pop=none jul-cc-pvdz guess=read ub3lyp
 -----------------------------------------
 -------------------------
 theory_abbreviation b3lyp
 -------------------------
 Symbolic Z-matrix:
 Charge =  0 Multiplicity = 6

 SCF Done:  E(UB3LYP) =  -3034.32543365     A.U. after   15 cycles
 Normal termination of Gaussian 16 at Tue Feb 11 14:14:37 2020.

 -------------------------------------------------------------------
 #t pop=none jul-cc-pvdz guess=read ub3lyp empiricaldispersion=gd3bj
 -------------------------------------------------------------------
 ------------------------------
 theory_abbreviation b3lyp_d3bj
 ------------------------------
 Symbolic Z-matrix:
 Charge =  0 Multiplicity = 6

 SCF Done:  E(UB3LYP) =  -3034.39266641     A.U. after    1 cycles
 Normal termination of Gaussian 16 at Tue Feb 11 14:15:47 2020.

 ----------------------------------------
 #t pop=none jul-cc-pvdz guess=read ub97d
 ----------------------------------------
 ------------------------
 theory_abbreviation b97d
 ------------------------
 Symbolic Z-matrix:
 Charge =  0 Multiplicity = 6

 SCF Done:  E(UB97D) =  -3034.57764585     A.U. after   16 cycles

 ----------------------------------------------------------------
 #t pop=none jul-cc-pvdz guess=read ub97d empiricaldispersion=gd3
 ----------------------------------------------------------------
 -------------------------
 theory_abbreviation b97d3
 -------------------------
 Symbolic Z-matrix:
 Charge =  0 Multiplicity = 6

 SCF Done:  E(UB97D) =  -3034.57785948     A.U. after    1 cycles
 SCF Done:  E(UBHandHLYP) =  -3033.96602307     A.U. after   17 cycles
 SCF Done:  E(UBHandH) =  -3026.31398573     A.U. after   16 cycles
 SCF Done:  E(ULC-wPBE) =  -3033.45144714     A.U. after   18 cycles
 SCF Done:  E(UB-P86) =  -3034.63101575     A.U. after   17 cycles
 SCF Done:  E(UmPW1LYP) =  -3034.04312559     A.U. after   15 cycles
 SCF Done:  E(UmPW1PBE) =  -3033.88721527     A.U. after   15 cycles
 SCF Done:  E(UmPW3PBE) =  -3033.65978900     A.U. after   15 cycles
 SCF Done:  E(UM11) =  -3033.80721450     A.U. after   19 cycles
 SCF Done:  E(UN12SX) =  -3033.25237436     A.U. after   15 cycles
 SCF Done:  E(UMN12SX) =  -3033.64750492     A.U. after   16 cycles
 SCF Done:  E(UB1B95) =  -3034.37935177     A.U. after   16 cycles
 Normal termination of Gaussian 16 at Tue Feb 11 22:55:56 2020.
 SCF Done:  E(UB3PW91) =  -3033.97521888     A.U. after   15 cycles
 Normal termination of Gaussian 16 at Tue Feb 11 23:11:00 2020.
 SCF Done:  E(UM06L) =  -3034.19144153     A.U. after   16 cycles
 Normal termination of Gaussian 16 at Tue Feb 11 23:28:39 2020.
 Gaussian 16:  ES64L-G16RevA.03 25-Dec-2016

                         Standard orientation:
 ---------------------------------------------------------------------
 Center     Atomic      Atomic             Coordinates (Angstroms)
 Number     Number       Type             X           Y           Z
 ---------------------------------------------------------------------
      1          8           0       -0.325688   -0.106994   -0.419679
      2          6           0       -1.227672   -1.069732   -0.240496
      3          6           0       -2.554906   -0.375275    0.757595
      4          6           0       -2.980307    0.703696   -0.051200
      5          6           0       -4.086353    0.551197   -1.032723
      6         26           0        1.501850    0.173571   -0.089055
      7         17           0        1.802836    2.204946   -0.883208
      8          6           0       -2.233365    1.963016   -0.039484
      9         17           0        2.534067   -1.455139   -1.149443
     10         17           0        1.811812    0.083972    2.100700
     11          1           0       -3.269078   -1.200817    0.768402
     12          1           0       -2.666268    2.743868   -0.666358
     13          1           0       -2.027078    2.334250    0.968625
     14          1           0       -1.231087    1.670836   -0.435964
     15          1           0       -4.918139    1.187984   -0.694129
     16          1           0       -3.797437    0.934192   -2.019211
     17          1           0       -4.450211   -0.473617   -1.118386
     18          6           0       -1.971616   -0.043919    2.131567
     19          1           0       -2.632511    0.646147    2.666583
     20          1           0       -1.881862   -0.948550    2.734426
     21          1           0       -0.980694    0.408405    2.056510
     22          6           0       -0.741462   -2.235918    0.629617
     23          1           0       -1.550005   -2.929572    0.876871
     24          1           0        0.010058   -2.768754    0.036020
     25          1           0       -0.254291   -1.888208    1.540180
     26          6           0       -1.801054   -1.567583   -1.567441
     27          1           0       -1.008653   -2.133681   -2.067617
     28          1           0       -2.662859   -2.228305   -1.430236
     29          1           0       -2.070216   -0.738214   -2.224295
 ---------------------------------------------------------------------

 SCF Done:  E(UB97D3) =  -3034.61223616     A.U. after   16 cycles
 Normal termination of Gaussian 16 at Tue Feb 11 23:41:17 2020.
