 Gaussian 16, Revision A.03,

 --------------------------------
 #t pop=none jul-cc-pvdz upbe1pbe
 --------------------------------
 ------------------------
 theory_abbreviation pbe0
 ------------------------
 Symbolic Z-matrix:
 Charge =  0 Multiplicity = 6

 SCF Done:  E(UPBE1PBE) =  -3033.13775933     A.U. after   20 cycles
 Normal termination of Gaussian 16 at Wed Feb 12 14:12:38 2020.

 ---------------------------------------------------------------------
 #t pop=none jul-cc-pvdz guess=read upbe1pbe empiricaldispersion=gd3bj
 ---------------------------------------------------------------------
 -----------------------------
 theory_abbreviation pbe0_d3bj
 -----------------------------
 Symbolic Z-matrix:
 Charge =  0 Multiplicity = 6

 SCF Done:  E(UPBE1PBE) =  -3033.17386649     A.U. after    1 cycles
 Normal termination of Gaussian 16 at Wed Feb 12 14:13:45 2020.

 -----------------------------------------
 #t pop=none jul-cc-pvdz guess=read ub3lyp
 -----------------------------------------
 -------------------------
 theory_abbreviation b3lyp
 -------------------------
 Symbolic Z-matrix:
 Charge =  0 Multiplicity = 6

 SCF Done:  E(UB3LYP) =  -3034.35640837     A.U. after   13 cycles
 Normal termination of Gaussian 16 at Wed Feb 12 14:26:35 2020.

 -------------------------------------------------------------------
 #t pop=none jul-cc-pvdz guess=read ub3lyp empiricaldispersion=gd3bj
 -------------------------------------------------------------------
 ------------------------------
 theory_abbreviation b3lyp_d3bj
 ------------------------------
 Symbolic Z-matrix:
 Charge =  0 Multiplicity = 6

 SCF Done:  E(UB3LYP) =  -3034.42317006     A.U. after    1 cycles
 Normal termination of Gaussian 16 at Wed Feb 12 14:27:41 2020.

 ----------------------------------------
 #t pop=none jul-cc-pvdz guess=read ub97d
 ----------------------------------------
 ------------------------
 theory_abbreviation b97d
 ------------------------
 Symbolic Z-matrix:
 Charge =  0 Multiplicity = 6

 SCF Done:  E(UB97D) =  -3034.60559156     A.U. after   16 cycles

 ----------------------------------------------------------------
 #t pop=none jul-cc-pvdz guess=read ub97d empiricaldispersion=gd3
 ----------------------------------------------------------------
 -------------------------
 theory_abbreviation b97d3
 -------------------------
 Symbolic Z-matrix:
 Charge =  0 Multiplicity = 6

 SCF Done:  E(UB97D) =  -3034.60774128     A.U. after    3 cycles
 SCF Done:  E(UBHandHLYP) =  -3033.99857479     A.U. after   18 cycles
 SCF Done:  E(UBHandH) =  -3026.33348544     A.U. after   14 cycles
 SCF Done:  E(ULC-wPBE) =  -3033.47957979     A.U. after   17 cycles
 SCF Done:  E(UB-P86) =  -3034.65477102     A.U. after   18 cycles
 SCF Done:  E(UmPW1LYP) =  -3034.07480184     A.U. after   13 cycles
 SCF Done:  E(UmPW1PBE) =  -3033.91225602     A.U. after   14 cycles
 SCF Done:  E(UmPW3PBE) =  -3033.68519000     A.U. after   13 cycles
 SCF Done:  E(UM11) =  -3033.83707233     A.U. after   17 cycles
 SCF Done:  E(UN12SX) =  -3033.27669595     A.U. after   17 cycles
 SCF Done:  E(UMN12SX) =  -3033.67940231     A.U. after   16 cycles
 SCF Done:  E(UB1B95) =  -3034.40882027     A.U. after   14 cycles
 Normal termination of Gaussian 16 at Wed Feb 12 21:59:32 2020.
 SCF Done:  E(UB3PW91) =  -3034.00151642     A.U. after   15 cycles
 Normal termination of Gaussian 16 at Wed Feb 12 22:14:14 2020.
 SCF Done:  E(UM06L) =  -3034.22353819     A.U. after   17 cycles
 Normal termination of Gaussian 16 at Wed Feb 12 22:32:31 2020.
 Gaussian 16:  ES64L-G16RevA.03 25-Dec-2016

                         Standard orientation:
 ---------------------------------------------------------------------
 Center     Atomic      Atomic             Coordinates (Angstroms)
 Number     Number       Type             X           Y           Z
 ---------------------------------------------------------------------
      1          8           0        0.220021    0.435190   -0.832677
      2          6           0        0.918108    1.445571   -0.609715
      3          6           0        3.216765   -0.042205    0.488098
      4          6           0        2.595922   -0.944883   -0.293740
      5          6           0        2.924590   -1.067524   -1.758799
      6         26           0       -1.466798   -0.171677    0.033129
      7         17           0       -2.077660   -1.925249   -1.092119
      8          6           0        1.643919   -1.992885    0.209766
      9         17           0       -2.696086    1.613386   -0.278500
     10         17           0       -1.076903   -0.523161    2.159902
     11          1           0        3.954464    0.606966    0.013328
     12          1           0        2.139632   -2.973401    0.193040
     13          1           0        1.289909   -1.815980    1.225239
     14          1           0        0.773921   -2.084335   -0.450232
     15          1           0        3.349826   -2.057818   -1.969202
     16          1           0        2.017189   -0.986243   -2.370800
     17          1           0        3.647451   -0.315385   -2.089414
     18          6           0        3.091309    0.114064    1.978143
     19          1           0        3.950489   -0.341994    2.489168
     20          1           0        3.084537    1.171464    2.268484
     21          1           0        2.186454   -0.349671    2.379324
     22          6           0        0.799954    2.209342    0.669596
     23          1           0        1.667405    2.848116    0.842718
     24          1           0       -0.093033    2.845527    0.580059
     25          1           0        0.637542    1.539529    1.515481
     26          6           0        1.727192    2.026891   -1.724735
     27          1           0        1.212402    2.943185   -2.048486
     28          1           0        2.722514    2.316687   -1.380655
     29          1           0        1.790363    1.340607   -2.567488
 ---------------------------------------------------------------------

 SCF Done:  E(UB97D3) =  -3034.64204598     A.U. after   17 cycles
 Normal termination of Gaussian 16 at Wed Feb 12 22:45:40 2020.
