 Gaussian 16, Revision A.03,

 --------------------------------
 #t pop=none jul-cc-pvdz upbe1pbe
 --------------------------------
 ------------------------
 theory_abbreviation pbe0
 ------------------------
 Symbolic Z-matrix:
 Charge =  0 Multiplicity = 6

 SCF Done:  E(UPBE1PBE) =  -3033.11627488     A.U. after   21 cycles
 Normal termination of Gaussian 16 at Tue Feb 11 13:58:58 2020.

 ---------------------------------------------------------------------
 #t pop=none jul-cc-pvdz guess=read upbe1pbe empiricaldispersion=gd3bj
 ---------------------------------------------------------------------
 -----------------------------
 theory_abbreviation pbe0_d3bj
 -----------------------------
 Symbolic Z-matrix:
 Charge =  0 Multiplicity = 6

 SCF Done:  E(UPBE1PBE) =  -3033.15234105     A.U. after    1 cycles
 Normal termination of Gaussian 16 at Tue Feb 11 14:00:09 2020.

 -----------------------------------------
 #t pop=none jul-cc-pvdz guess=read ub3lyp
 -----------------------------------------
 -------------------------
 theory_abbreviation b3lyp
 -------------------------
 Symbolic Z-matrix:
 Charge =  0 Multiplicity = 6

 SCF Done:  E(UB3LYP) =  -3034.33091564     A.U. after   15 cycles
 Normal termination of Gaussian 16 at Tue Feb 11 14:15:47 2020.

 -------------------------------------------------------------------
 #t pop=none jul-cc-pvdz guess=read ub3lyp empiricaldispersion=gd3bj
 -------------------------------------------------------------------
 ------------------------------
 theory_abbreviation b3lyp_d3bj
 ------------------------------
 Symbolic Z-matrix:
 Charge =  0 Multiplicity = 6

 SCF Done:  E(UB3LYP) =  -3034.39816049     A.U. after    1 cycles
 Normal termination of Gaussian 16 at Tue Feb 11 14:16:56 2020.

 ----------------------------------------
 #t pop=none jul-cc-pvdz guess=read ub97d
 ----------------------------------------
 ------------------------
 theory_abbreviation b97d
 ------------------------
 Symbolic Z-matrix:
 Charge =  0 Multiplicity = 6

 SCF Done:  E(UB97D) =  -3034.58355531     A.U. after   16 cycles

 ----------------------------------------------------------------
 #t pop=none jul-cc-pvdz guess=read ub97d empiricaldispersion=gd3
 ----------------------------------------------------------------
 -------------------------
 theory_abbreviation b97d3
 -------------------------
 Symbolic Z-matrix:
 Charge =  0 Multiplicity = 6

 SCF Done:  E(UB97D) =  -3034.58406605     A.U. after    3 cycles
 SCF Done:  E(UBHandHLYP) =  -3033.97019661     A.U. after   17 cycles
 SCF Done:  E(UBHandH) =  -3026.31507953     A.U. after   16 cycles
 SCF Done:  E(ULC-wPBE) =  -3033.45348540     A.U. after   18 cycles
 SCF Done:  E(UB-P86) =  -3034.63540022     A.U. after   17 cycles
 SCF Done:  E(UmPW1LYP) =  -3034.04855289     A.U. after   15 cycles
 SCF Done:  E(UmPW1PBE) =  -3033.89086223     A.U. after   16 cycles
 SCF Done:  E(UmPW3PBE) =  -3033.66376215     A.U. after   15 cycles
 SCF Done:  E(UM11) =  -3033.81180315     A.U. after   19 cycles
 SCF Done:  E(UN12SX) =  -3033.25568171     A.U. after   17 cycles
 SCF Done:  E(UMN12SX) =  -3033.65198809     A.U. after   17 cycles
 SCF Done:  E(UB1B95) =  -3034.38403157     A.U. after   16 cycles
 Normal termination of Gaussian 16 at Tue Feb 11 23:07:21 2020.
 SCF Done:  E(UB3PW91) =  -3033.97941069     A.U. after   15 cycles
 Normal termination of Gaussian 16 at Tue Feb 11 23:22:23 2020.
 SCF Done:  E(UM06L) =  -3034.19593447     A.U. after   16 cycles
 Normal termination of Gaussian 16 at Tue Feb 11 23:39:47 2020.
 Gaussian 16:  ES64L-G16RevA.03 25-Dec-2016

                         Standard orientation:
 ---------------------------------------------------------------------
 Center     Atomic      Atomic             Coordinates (Angstroms)
 Number     Number       Type             X           Y           Z
 ---------------------------------------------------------------------
      1          8           0       -0.316688   -0.158234   -0.463625
      2          6           0       -1.174269   -1.113514   -0.254221
      3          6           0       -2.637800   -0.290615    0.832479
      4          6           0       -3.006300    0.697349   -0.068048
      5          6           0       -4.080210    0.481078   -1.081724
      6         26           0        1.518643    0.175633   -0.092999
      7         17           0        1.839158    2.150083   -0.991070
      8          6           0       -2.273102    1.983069   -0.117312
      9         17           0        2.544255   -1.516047   -1.049749
     10         17           0        1.796084    0.188966    2.095561
     11          1           0       -3.300115   -1.155463    0.867089
     12          1           0       -2.735507    2.711331   -0.786709
     13          1           0       -2.127490    2.423258    0.873802
     14          1           0       -1.259077    1.747884   -0.493616
     15          1           0       -4.906929    1.169189   -0.853284
     16          1           0       -3.736650    0.744993   -2.089714
     17          1           0       -4.473051   -0.537351   -1.081055
     18          6           0       -1.971654    0.083420    2.145457
     19          1           0       -2.582269    0.822443    2.676790
     20          1           0       -1.871772   -0.787155    2.795354
     21          1           0       -0.976466    0.509802    2.000350
     22          6           0       -0.752490   -2.201347    0.725419
     23          1           0       -1.580354   -2.856930    1.005582
     24          1           0        0.000657   -2.798242    0.194626
     25          1           0       -0.274363   -1.790396    1.613680
     26          6           0       -1.824702   -1.654004   -1.516120
     27          1           0       -1.075675   -2.291773   -2.000782
     28          1           0       -2.708533   -2.262536   -1.307785
     29          1           0       -2.071904   -0.853294   -2.213544
 ---------------------------------------------------------------------

 SCF Done:  E(UB97D3) =  -3034.61851779     A.U. after   17 cycles
 Normal termination of Gaussian 16 at Tue Feb 11 23:53:01 2020.
