 Gaussian 16, Revision A.03,

 --------------------------------
 #t pop=none jul-cc-pvdz upbe1pbe
 --------------------------------
 ------------------------
 theory_abbreviation pbe0
 ------------------------
 Symbolic Z-matrix:
 Charge =  0 Multiplicity = 6

 SCF Done:  E(UPBE1PBE) =  -3033.12514383     A.U. after   21 cycles
 Normal termination of Gaussian 16 at Tue Feb 11 13:59:49 2020.

 ---------------------------------------------------------------------
 #t pop=none jul-cc-pvdz guess=read upbe1pbe empiricaldispersion=gd3bj
 ---------------------------------------------------------------------
 -----------------------------
 theory_abbreviation pbe0_d3bj
 -----------------------------
 Symbolic Z-matrix:
 Charge =  0 Multiplicity = 6

 SCF Done:  E(UPBE1PBE) =  -3033.16261228     A.U. after    1 cycles
 Normal termination of Gaussian 16 at Tue Feb 11 14:01:00 2020.

 -----------------------------------------
 #t pop=none jul-cc-pvdz guess=read ub3lyp
 -----------------------------------------
 -------------------------
 theory_abbreviation b3lyp
 -------------------------
 Symbolic Z-matrix:
 Charge =  0 Multiplicity = 6

 SCF Done:  E(UB3LYP) =  -3034.34144950     A.U. after   13 cycles
 Normal termination of Gaussian 16 at Tue Feb 11 14:14:49 2020.

 -------------------------------------------------------------------
 #t pop=none jul-cc-pvdz guess=read ub3lyp empiricaldispersion=gd3bj
 -------------------------------------------------------------------
 ------------------------------
 theory_abbreviation b3lyp_d3bj
 ------------------------------
 Symbolic Z-matrix:
 Charge =  0 Multiplicity = 6

 SCF Done:  E(UB3LYP) =  -3034.41115678     A.U. after    1 cycles
 Normal termination of Gaussian 16 at Tue Feb 11 14:15:59 2020.

 ----------------------------------------
 #t pop=none jul-cc-pvdz guess=read ub97d
 ----------------------------------------
 ------------------------
 theory_abbreviation b97d
 ------------------------
 Symbolic Z-matrix:
 Charge =  0 Multiplicity = 6

 SCF Done:  E(UB97D) =  -3034.59474307     A.U. after   15 cycles

 ----------------------------------------------------------------
 #t pop=none jul-cc-pvdz guess=read ub97d empiricaldispersion=gd3
 ----------------------------------------------------------------
 -------------------------
 theory_abbreviation b97d3
 -------------------------
 Symbolic Z-matrix:
 Charge =  0 Multiplicity = 6

 SCF Done:  E(UB97D) =  -3034.59605045     A.U. after    1 cycles
 SCF Done:  E(UBHandHLYP) =  -3033.98272955     A.U. after   18 cycles
 SCF Done:  E(UBHandH) =  -3026.32446952     A.U. after   14 cycles
 SCF Done:  E(ULC-wPBE) =  -3033.46580638     A.U. after   20 cycles
 SCF Done:  E(UB-P86) =  -3034.64544998     A.U. after   16 cycles
 SCF Done:  E(UmPW1LYP) =  -3034.05966305     A.U. after   13 cycles
 SCF Done:  E(UmPW1PBE) =  -3033.89953330     A.U. after   13 cycles
 SCF Done:  E(UmPW3PBE) =  -3033.67242252     A.U. after   13 cycles
 SCF Done:  E(UM11) =  -3033.82331159     A.U. after   17 cycles
 SCF Done:  E(UN12SX) =  -3033.26406759     A.U. after   17 cycles
 SCF Done:  E(UMN12SX) =  -3033.66537404     A.U. after   16 cycles
 SCF Done:  E(UB1B95) =  -3034.39528814     A.U. after   14 cycles
 Normal termination of Gaussian 16 at Tue Feb 11 22:46:01 2020.
 SCF Done:  E(UB3PW91) =  -3033.98823157     A.U. after   13 cycles
 Normal termination of Gaussian 16 at Tue Feb 11 23:00:38 2020.
 SCF Done:  E(UM06L) =  -3034.21041555     A.U. after   17 cycles
 Normal termination of Gaussian 16 at Tue Feb 11 23:19:35 2020.
 Gaussian 16:  ES64L-G16RevA.03 25-Dec-2016

                         Standard orientation:
 ---------------------------------------------------------------------
 Center     Atomic      Atomic             Coordinates (Angstroms)
 Number     Number       Type             X           Y           Z
 ---------------------------------------------------------------------
      1          8           0       -0.273672   -0.248662   -0.808274
      2          6           0       -1.112246   -1.186136   -0.648504
      3          6           0       -2.974847   -0.150435    0.455148
      4          6           0       -2.528300    0.978076   -0.149290
      5          6           0       -2.943473    1.350247   -1.542169
      6         26           0        1.448838    0.128390    0.012900
      7         17           0        2.073044    2.017637   -0.879961
      8          6           0       -1.620582    1.969363    0.508211
      9         17           0        2.619586   -1.631661   -0.564188
     10         17           0        1.150855    0.236814    2.193128
     11          1           0       -3.708439   -0.745873   -0.086185
     12          1           0       -2.175720    2.900985    0.684882
     13          1           0       -1.211826    1.632255    1.459606
     14          1           0       -0.788718    2.228341   -0.157424
     15          1           0       -3.389832    2.352758   -1.534466
     16          1           0       -2.066461    1.408271   -2.200169
     17          1           0       -3.674292    0.658007   -1.967463
     18          6           0       -2.861403   -0.448888    1.929300
     19          1           0       -3.661190    0.071822    2.472452
     20          1           0       -2.983030   -1.515870    2.134139
     21          1           0       -1.910423   -0.127294    2.360690
     22          6           0       -0.906360   -2.197132    0.442399
     23          1           0       -1.785559   -2.822676    0.600349
     24          1           0       -0.082684   -2.837031    0.092276
     25          1           0       -0.583978   -1.738623    1.376554
     26          6           0       -1.853475   -1.652092   -1.872903
     27          1           0       -1.173535   -2.357060   -2.372580
     28          1           0       -2.773419   -2.186317   -1.631415
     29          1           0       -2.046437   -0.835972   -2.566247
 ---------------------------------------------------------------------

 SCF Done:  E(UB97D3) =  -3034.63122253     A.U. after   16 cycles
 Normal termination of Gaussian 16 at Tue Feb 11 23:32:29 2020.
