 Gaussian 16, Revision A.03,

 --------------------------------
 #t pop=none jul-cc-pvdz upbe1pbe
 --------------------------------
 ------------------------
 theory_abbreviation pbe0
 ------------------------
 Symbolic Z-matrix:
 Charge =  0 Multiplicity = 6

 SCF Done:  E(UPBE1PBE) =  -3033.09966110     A.U. after   21 cycles
 Normal termination of Gaussian 16 at Tue Feb 11 14:45:38 2020.

 ---------------------------------------------------------------------
 #t pop=none jul-cc-pvdz guess=read upbe1pbe empiricaldispersion=gd3bj
 ---------------------------------------------------------------------
 -----------------------------
 theory_abbreviation pbe0_d3bj
 -----------------------------
 Symbolic Z-matrix:
 Charge =  0 Multiplicity = 6

 SCF Done:  E(UPBE1PBE) =  -3033.13672487     A.U. after    1 cycles
 Normal termination of Gaussian 16 at Tue Feb 11 14:46:51 2020.

 -----------------------------------------
 #t pop=none jul-cc-pvdz guess=read ub3lyp
 -----------------------------------------
 -------------------------
 theory_abbreviation b3lyp
 -------------------------
 Symbolic Z-matrix:
 Charge =  0 Multiplicity = 6

 SCF Done:  E(UB3LYP) =  -3034.31294081     A.U. after   14 cycles
 Normal termination of Gaussian 16 at Tue Feb 11 15:01:15 2020.

 -------------------------------------------------------------------
 #t pop=none jul-cc-pvdz guess=read ub3lyp empiricaldispersion=gd3bj
 -------------------------------------------------------------------
 ------------------------------
 theory_abbreviation b3lyp_d3bj
 ------------------------------
 Symbolic Z-matrix:
 Charge =  0 Multiplicity = 6

 SCF Done:  E(UB3LYP) =  -3034.38190976     A.U. after    1 cycles
 Normal termination of Gaussian 16 at Tue Feb 11 15:02:25 2020.

 ----------------------------------------
 #t pop=none jul-cc-pvdz guess=read ub97d
 ----------------------------------------
 ------------------------
 theory_abbreviation b97d
 ------------------------
 Symbolic Z-matrix:
 Charge =  0 Multiplicity = 6

 SCF Done:  E(UB97D) =  -3034.56421357     A.U. after   15 cycles

 ----------------------------------------------------------------
 #t pop=none jul-cc-pvdz guess=read ub97d empiricaldispersion=gd3
 ----------------------------------------------------------------
 -------------------------
 theory_abbreviation b97d3
 -------------------------
 Symbolic Z-matrix:
 Charge =  0 Multiplicity = 6

 SCF Done:  E(UB97D) =  -3034.56509805     A.U. after    3 cycles
 SCF Done:  E(UBHandHLYP) =  -3033.95572740     A.U. after   15 cycles
 SCF Done:  E(UBHandH) =  -3026.30185983     A.U. after   14 cycles
 SCF Done:  E(ULC-wPBE) =  -3033.44155608     A.U. after   18 cycles
 SCF Done:  E(UB-P86) =  -3034.61889354     A.U. after   15 cycles
 SCF Done:  E(UmPW1LYP) =  -3034.03129197     A.U. after   15 cycles
 SCF Done:  E(UmPW1PBE) =  -3033.87415724     A.U. after   15 cycles
 SCF Done:  E(UmPW3PBE) =  -3033.64644523     A.U. after   13 cycles
 SCF Done:  E(UM11) =  -3033.79538580     A.U. after   17 cycles
 SCF Done:  E(UN12SX) =  -3033.23991192     A.U. after   16 cycles
 SCF Done:  E(UMN12SX) =  -3033.63699694     A.U. after   15 cycles
 SCF Done:  E(UB1B95) =  -3034.36657683     A.U. after   14 cycles
 Normal termination of Gaussian 16 at Tue Feb 11 23:10:46 2020.
 SCF Done:  E(UB3PW91) =  -3033.96182292     A.U. after   14 cycles
 Normal termination of Gaussian 16 at Tue Feb 11 23:25:16 2020.
 SCF Done:  E(UM06L) =  -3034.17778257     A.U. after   18 cycles
 Normal termination of Gaussian 16 at Tue Feb 11 23:45:40 2020.
 Gaussian 16:  ES64L-G16RevA.03 25-Dec-2016

                         Standard orientation:
 ---------------------------------------------------------------------
 Center     Atomic      Atomic             Coordinates (Angstroms)
 Number     Number       Type             X           Y           Z
 ---------------------------------------------------------------------
      1          8           0       -0.366707   -0.170887   -0.531791
      2          6           0       -1.345661   -1.154135   -0.422035
      3          6           0       -2.896060   -0.092605   -0.140232
      4          6           0       -2.080642    1.098178   -0.259062
      5          6           0       -1.933120    1.778473   -1.568622
      6         26           0        1.393453    0.047800    0.040588
      7         17           0        1.848861    2.046830   -0.803344
      8          6           0       -1.581546    1.816956    0.937526
      9         17           0        2.529838   -1.669192   -0.730090
     10         17           0        1.331076    0.105176    2.260417
     11          1           0       -3.500731   -0.273563   -1.029101
     12          1           0       -2.417321    2.441030    1.295419
     13          1           0       -1.303344    1.145071    1.750495
     14          1           0       -0.738395    2.466818    0.697011
     15          1           0       -2.641285    2.623755   -1.561418
     16          1           0       -0.925179    2.184933   -1.687225
     17          1           0       -2.189437    1.131231   -2.408563
     18          6           0       -3.629661   -0.391666    1.152018
     19          1           0       -4.468795    0.300709    1.294054
     20          1           0       -4.043222   -1.403657    1.121550
     21          1           0       -2.985699   -0.321545    2.031266
     22          6           0       -1.164612   -2.066151    0.765245
     23          1           0       -1.994653   -2.769597    0.871512
     24          1           0       -0.245634   -2.642049    0.590099
     25          1           0       -1.022339   -1.508623    1.692180
     26          6           0       -1.557849   -1.871303   -1.735243
     27          1           0       -0.632094   -2.415151   -1.963581
     28          1           0       -2.385989   -2.584441   -1.680508
     29          1           0       -1.733267   -1.164932   -2.550426
 ---------------------------------------------------------------------

 SCF Done:  E(UB97D3) =  -3034.60004340     A.U. after   14 cycles
 Normal termination of Gaussian 16 at Tue Feb 11 23:57:05 2020.
