 Gaussian 16, Revision A.03,

 --------------------------------
 #t pop=none jul-cc-pvdz upbe1pbe
 --------------------------------
 ------------------------
 theory_abbreviation pbe0
 ------------------------
 Symbolic Z-matrix:
 Charge =  0 Multiplicity = 6

 SCF Done:  E(UPBE1PBE) =  -3033.13781676     A.U. after   20 cycles
 Normal termination of Gaussian 16 at Tue Feb 11 13:59:20 2020.

 ---------------------------------------------------------------------
 #t pop=none jul-cc-pvdz guess=read upbe1pbe empiricaldispersion=gd3bj
 ---------------------------------------------------------------------
 -----------------------------
 theory_abbreviation pbe0_d3bj
 -----------------------------
 Symbolic Z-matrix:
 Charge =  0 Multiplicity = 6

 SCF Done:  E(UPBE1PBE) =  -3033.17407756     A.U. after    1 cycles
 Normal termination of Gaussian 16 at Tue Feb 11 14:00:29 2020.

 -----------------------------------------
 #t pop=none jul-cc-pvdz guess=read ub3lyp
 -----------------------------------------
 -------------------------
 theory_abbreviation b3lyp
 -------------------------
 Symbolic Z-matrix:
 Charge =  0 Multiplicity = 6

 SCF Done:  E(UB3LYP) =  -3034.35633762     A.U. after   13 cycles
 Normal termination of Gaussian 16 at Tue Feb 11 14:14:09 2020.

 -------------------------------------------------------------------
 #t pop=none jul-cc-pvdz guess=read ub3lyp empiricaldispersion=gd3bj
 -------------------------------------------------------------------
 ------------------------------
 theory_abbreviation b3lyp_d3bj
 ------------------------------
 Symbolic Z-matrix:
 Charge =  0 Multiplicity = 6

 SCF Done:  E(UB3LYP) =  -3034.42343367     A.U. after    1 cycles
 Normal termination of Gaussian 16 at Tue Feb 11 14:15:20 2020.

 ----------------------------------------
 #t pop=none jul-cc-pvdz guess=read ub97d
 ----------------------------------------
 ------------------------
 theory_abbreviation b97d
 ------------------------
 Symbolic Z-matrix:
 Charge =  0 Multiplicity = 6

 SCF Done:  E(UB97D) =  -3034.60639358     A.U. after   15 cycles

 ----------------------------------------------------------------
 #t pop=none jul-cc-pvdz guess=read ub97d empiricaldispersion=gd3
 ----------------------------------------------------------------
 -------------------------
 theory_abbreviation b97d3
 -------------------------
 Symbolic Z-matrix:
 Charge =  0 Multiplicity = 6

 SCF Done:  E(UB97D) =  -3034.60803521     A.U. after    1 cycles
 SCF Done:  E(UBHandHLYP) =  -3033.99825767     A.U. after   18 cycles
 SCF Done:  E(UBHandH) =  -3026.33391464     A.U. after   14 cycles
 SCF Done:  E(ULC-wPBE) =  -3033.47910197     A.U. after   17 cycles
 SCF Done:  E(UB-P86) =  -3034.65534684     A.U. after   17 cycles
 SCF Done:  E(UmPW1LYP) =  -3034.07471045     A.U. after   13 cycles
 SCF Done:  E(UmPW1PBE) =  -3033.91227933     A.U. after   14 cycles
 SCF Done:  E(UmPW3PBE) =  -3033.68525455     A.U. after   13 cycles
 SCF Done:  E(UM11) =  -3033.83663478     A.U. after   17 cycles
 SCF Done:  E(UN12SX) =  -3033.27677440     A.U. after   16 cycles
 SCF Done:  E(UMN12SX) =  -3033.67919099     A.U. after   16 cycles
 SCF Done:  E(UB1B95) =  -3034.40856821     A.U. after   14 cycles
 Normal termination of Gaussian 16 at Tue Feb 11 22:48:37 2020.
 SCF Done:  E(UB3PW91) =  -3034.00151612     A.U. after   13 cycles
 Normal termination of Gaussian 16 at Tue Feb 11 23:03:22 2020.
 SCF Done:  E(UM06L) =  -3034.22365098     A.U. after   17 cycles
 Normal termination of Gaussian 16 at Tue Feb 11 23:21:52 2020.
 Gaussian 16:  ES64L-G16RevA.03 25-Dec-2016

                         Standard orientation:
 ---------------------------------------------------------------------
 Center     Atomic      Atomic             Coordinates (Angstroms)
 Number     Number       Type             X           Y           Z
 ---------------------------------------------------------------------
      1          8           0        0.183956    0.407228   -0.877753
      2          6           0        0.949991    1.375248   -0.671301
      3          6           0        3.115892    0.084540    0.546461
      4          6           0        2.661953   -0.939497   -0.202565
      5          6           0        3.116072   -1.132562   -1.624738
      6         26           0       -1.485061   -0.168556    0.017266
      7         17           0       -2.066899   -1.980879   -1.030700
      8          6           0        1.725484   -2.002895    0.293719
      9         17           0       -2.739980    1.587920   -0.339547
     10         17           0       -1.060726   -0.453490    2.150361
     11          1           0        3.841504    0.755806    0.085131
     12          1           0        2.237064   -2.974890    0.298938
     13          1           0        1.341355   -1.817569    1.296439
     14          1           0        0.871934   -2.112895   -0.387073
     15          1           0        3.622932   -2.100742   -1.730164
     16          1           0        2.257478   -1.159611   -2.308918
     17          1           0        3.810083   -0.353057   -1.952536
     18          6           0        2.893409    0.294789    2.019998
     19          1           0        3.712252   -0.158156    2.595770
     20          1           0        2.886208    1.359500    2.275981
     21          1           0        1.958670   -0.143658    2.378059
     22          6           0        0.799515    2.235856    0.542418
     23          1           0        1.683956    2.847807    0.723110
     24          1           0       -0.053803    2.901569    0.343643
     25          1           0        0.550191    1.646008    1.425096
     26          6           0        1.784414    1.874986   -1.809696
     27          1           0        1.224149    2.708496   -2.258832
     28          1           0        2.744689    2.267027   -1.471202
     29          1           0        1.920186    1.105835   -2.568057
 ---------------------------------------------------------------------

 SCF Done:  E(UB97D3) =  -3034.64262733     A.U. after   16 cycles
 Normal termination of Gaussian 16 at Tue Feb 11 23:34:05 2020.
