 Gaussian 16, Revision A.03,

 --------------------------------
 #t pop=none jul-cc-pvdz upbe1pbe
 --------------------------------
 ------------------------
 theory_abbreviation pbe0
 ------------------------
 Symbolic Z-matrix:
 Charge =  0 Multiplicity = 6

 SCF Done:  E(UPBE1PBE) =  -3033.09615891     A.U. after   21 cycles
 Normal termination of Gaussian 16 at Tue Feb 11 14:46:59 2020.

 ---------------------------------------------------------------------
 #t pop=none jul-cc-pvdz guess=read upbe1pbe empiricaldispersion=gd3bj
 ---------------------------------------------------------------------
 -----------------------------
 theory_abbreviation pbe0_d3bj
 -----------------------------
 Symbolic Z-matrix:
 Charge =  0 Multiplicity = 6

 SCF Done:  E(UPBE1PBE) =  -3033.13321610     A.U. after    1 cycles
 Normal termination of Gaussian 16 at Tue Feb 11 14:48:11 2020.

 -----------------------------------------
 #t pop=none jul-cc-pvdz guess=read ub3lyp
 -----------------------------------------
 -------------------------
 theory_abbreviation b3lyp
 -------------------------
 Symbolic Z-matrix:
 Charge =  0 Multiplicity = 6

 SCF Done:  E(UB3LYP) =  -3034.31008553     A.U. after   14 cycles
 Normal termination of Gaussian 16 at Tue Feb 11 15:03:18 2020.

 -------------------------------------------------------------------
 #t pop=none jul-cc-pvdz guess=read ub3lyp empiricaldispersion=gd3bj
 -------------------------------------------------------------------
 ------------------------------
 theory_abbreviation b3lyp_d3bj
 ------------------------------
 Symbolic Z-matrix:
 Charge =  0 Multiplicity = 6

 SCF Done:  E(UB3LYP) =  -3034.37900594     A.U. after    1 cycles
 Normal termination of Gaussian 16 at Tue Feb 11 15:04:30 2020.

 ----------------------------------------
 #t pop=none jul-cc-pvdz guess=read ub97d
 ----------------------------------------
 ------------------------
 theory_abbreviation b97d
 ------------------------
 Symbolic Z-matrix:
 Charge =  0 Multiplicity = 6

 SCF Done:  E(UB97D) =  -3034.56207695     A.U. after   15 cycles

 ----------------------------------------------------------------
 #t pop=none jul-cc-pvdz guess=read ub97d empiricaldispersion=gd3
 ----------------------------------------------------------------
 -------------------------
 theory_abbreviation b97d3
 -------------------------
 Symbolic Z-matrix:
 Charge =  0 Multiplicity = 6

 SCF Done:  E(UB97D) =  -3034.56318274     A.U. after    1 cycles
 SCF Done:  E(UBHandHLYP) =  -3033.95084155     A.U. after   17 cycles
 SCF Done:  E(UBHandH) =  -3026.29607486     A.U. after   15 cycles
 SCF Done:  E(ULC-wPBE) =  -3033.43748613     A.U. after   18 cycles
 SCF Done:  E(UB-P86) =  -3034.61745711     A.U. after   15 cycles
 SCF Done:  E(UmPW1LYP) =  -3034.02810960     A.U. after   15 cycles
 SCF Done:  E(UmPW1PBE) =  -3033.87070923     A.U. after   15 cycles
 SCF Done:  E(UmPW3PBE) =  -3033.64333044     A.U. after   14 cycles
 SCF Done:  E(UM11) =  -3033.79041049     A.U. after   17 cycles
 SCF Done:  E(UN12SX) =  -3033.23645774     A.U. after   16 cycles
 SCF Done:  E(UMN12SX) =  -3033.63236998     A.U. after   15 cycles
 SCF Done:  E(UB1B95) =  -3034.36271809     A.U. after   14 cycles
 Normal termination of Gaussian 16 at Tue Feb 11 23:43:25 2020.
 SCF Done:  E(UB3PW91) =  -3033.95875821     A.U. after   13 cycles
 Normal termination of Gaussian 16 at Tue Feb 11 23:57:28 2020.
 SCF Done:  E(UM06L) =  -3034.17406854     A.U. after   18 cycles
 Normal termination of Gaussian 16 at Wed Feb 12 00:18:57 2020.
 Gaussian 16:  ES64L-G16RevA.03 25-Dec-2016

                         Standard orientation:
 ---------------------------------------------------------------------
 Center     Atomic      Atomic             Coordinates (Angstroms)
 Number     Number       Type             X           Y           Z
 ---------------------------------------------------------------------
      1          8           0       -0.402586   -0.147925   -0.483271
      2          6           0       -1.338202   -1.198890   -0.389642
      3          6           0       -2.914979   -0.073530   -0.166402
      4          6           0       -2.026239    1.087799   -0.285107
      5          6           0       -1.883916    1.767556   -1.599670
      6         26           0        1.387706    0.055289    0.049644
      7         17           0        1.865676    2.024833   -0.834927
      8          6           0       -1.582497    1.840899    0.916944
      9         17           0        2.452264   -1.699231   -0.735413
     10         17           0        1.365771    0.134511    2.263065
     11          1           0       -3.502946   -0.240485   -1.069166
     12          1           0       -2.425121    2.487574    1.210476
     13          1           0       -1.352750    1.191050    1.761769
     14          1           0       -0.719484    2.472565    0.698856
     15          1           0       -2.641785    2.567596   -1.622230
     16          1           0       -0.897630    2.225553   -1.704745
     17          1           0       -2.082344    1.094615   -2.435543
     18          6           0       -3.682522   -0.323940    1.112831
     19          1           0       -4.491437    0.406834    1.242035
     20          1           0       -4.142375   -1.316331    1.082498
     21          1           0       -3.048590   -0.278932    2.001510
     22          6           0       -1.165937   -2.065274    0.826834
     23          1           0       -1.986544   -2.781210    0.927773
     24          1           0       -0.231210   -2.630218    0.705266
     25          1           0       -1.070357   -1.474463    1.739207
     26          6           0       -1.477158   -1.937698   -1.694459
     27          1           0       -0.522448   -2.442781   -1.894137
     28          1           0       -2.272446   -2.687877   -1.649221
     29          1           0       -1.666574   -1.251061   -2.523217
 ---------------------------------------------------------------------

 SCF Done:  E(UB97D3) =  -3034.59830109     A.U. after   15 cycles
 Normal termination of Gaussian 16 at Wed Feb 12 00:31:20 2020.
