 Gaussian 16, Revision A.03,

 --------------------------------
 #t pop=none jul-cc-pvdz upbe1pbe
 --------------------------------
 ------------------------
 theory_abbreviation pbe0
 ------------------------
 Symbolic Z-matrix:
 Charge =  0 Multiplicity = 6

 SCF Done:  E(UPBE1PBE) =  -3033.11771932     A.U. after   21 cycles
 Normal termination of Gaussian 16 at Tue Feb 11 20:06:35 2020.

 ---------------------------------------------------------------------
 #t pop=none jul-cc-pvdz guess=read upbe1pbe empiricaldispersion=gd3bj
 ---------------------------------------------------------------------
 -----------------------------
 theory_abbreviation pbe0_d3bj
 -----------------------------
 Symbolic Z-matrix:
 Charge =  0 Multiplicity = 6

 SCF Done:  E(UPBE1PBE) =  -3033.15541525     A.U. after    1 cycles
 Normal termination of Gaussian 16 at Tue Feb 11 20:07:45 2020.

 -----------------------------------------
 #t pop=none jul-cc-pvdz guess=read ub3lyp
 -----------------------------------------
 -------------------------
 theory_abbreviation b3lyp
 -------------------------
 Symbolic Z-matrix:
 Charge =  0 Multiplicity = 6

 SCF Done:  E(UB3LYP) =  -3034.33318810     A.U. after   13 cycles
 Normal termination of Gaussian 16 at Tue Feb 11 20:21:19 2020.

 -------------------------------------------------------------------
 #t pop=none jul-cc-pvdz guess=read ub3lyp empiricaldispersion=gd3bj
 -------------------------------------------------------------------
 ------------------------------
 theory_abbreviation b3lyp_d3bj
 ------------------------------
 Symbolic Z-matrix:
 Charge =  0 Multiplicity = 6

 SCF Done:  E(UB3LYP) =  -3034.40337337     A.U. after    1 cycles
 Normal termination of Gaussian 16 at Tue Feb 11 20:22:29 2020.

 ----------------------------------------
 #t pop=none jul-cc-pvdz guess=read ub97d
 ----------------------------------------
 ------------------------
 theory_abbreviation b97d
 ------------------------
 Symbolic Z-matrix:
 Charge =  0 Multiplicity = 6

 SCF Done:  E(UB97D) =  -3034.58626266     A.U. after   15 cycles

 ----------------------------------------------------------------
 #t pop=none jul-cc-pvdz guess=read ub97d empiricaldispersion=gd3
 ----------------------------------------------------------------
 -------------------------
 theory_abbreviation b97d3
 -------------------------
 Symbolic Z-matrix:
 Charge =  0 Multiplicity = 6

 SCF Done:  E(UB97D) =  -3034.58791363     A.U. after    1 cycles
 SCF Done:  E(UBHandHLYP) =  -3033.97481855     A.U. after   18 cycles
 SCF Done:  E(UBHandH) =  -3026.31817139     A.U. after   14 cycles
 SCF Done:  E(ULC-wPBE) =  -3033.45841995     A.U. after   19 cycles
 SCF Done:  E(UB-P86) =  -3034.63819058     A.U. after   16 cycles
 SCF Done:  E(UmPW1LYP) =  -3034.05136378     A.U. after   13 cycles
 SCF Done:  E(UmPW1PBE) =  -3033.89219040     A.U. after   13 cycles
 SCF Done:  E(UmPW3PBE) =  -3033.66493587     A.U. after   13 cycles
 SCF Done:  E(UM11) =  -3033.81549561     A.U. after   17 cycles
 SCF Done:  E(UN12SX) =  -3033.25668727     A.U. after   17 cycles
 SCF Done:  E(UMN12SX) =  -3033.65749688     A.U. after   16 cycles
 SCF Done:  E(UB1B95) =  -3034.38779637     A.U. after   14 cycles
 Normal termination of Gaussian 16 at Wed Feb 12 04:46:10 2020.
 SCF Done:  E(UB3PW91) =  -3033.98064528     A.U. after   13 cycles
 Normal termination of Gaussian 16 at Wed Feb 12 04:59:42 2020.
 SCF Done:  E(UM06L) =  -3034.20206135     A.U. after   17 cycles
 Normal termination of Gaussian 16 at Wed Feb 12 05:18:36 2020.
 Gaussian 16:  ES64L-G16RevA.03 25-Dec-2016

                         Standard orientation:
 ---------------------------------------------------------------------
 Center     Atomic      Atomic             Coordinates (Angstroms)
 Number     Number       Type             X           Y           Z
 ---------------------------------------------------------------------
      1          8           0       -0.305069   -0.161467   -0.690280
      2          6           0       -1.170535   -1.091521   -0.593098
      3          6           0       -3.131015   -0.032546    0.153618
      4          6           0       -2.378977    1.044104   -0.192315
      5          6           0       -2.404178    1.612632   -1.578231
      6         26           0        1.460073    0.084223    0.048091
      7         17           0        2.092207    2.002498   -0.785784
      8          6           0       -1.562557    1.825085    0.791231
      9         17           0        2.503538   -1.699666   -0.691787
     10         17           0        1.308804    0.083740    2.244920
     11          1           0       -3.778349   -0.451444   -0.614368
     12          1           0       -2.174615    2.659600    1.162240
     13          1           0       -1.238523    1.243183    1.654359
     14          1           0       -0.681377    2.262830    0.313775
     15          1           0       -2.702296    2.667579   -1.523351
     16          1           0       -1.399173    1.593210   -2.015329
     17          1           0       -3.106815    1.097069   -2.237596
     18          6           0       -3.444369   -0.467430    1.560721
     19          1           0       -4.351539    0.046013    1.906905
     20          1           0       -3.648038   -1.540699    1.619657
     21          1           0       -2.648220   -0.231177    2.270451
     22          6           0       -1.074873   -2.059007    0.550651
     23          1           0       -1.956245   -2.694083    0.639407
     24          1           0       -0.210348   -2.698447    0.316469
     25          1           0       -0.856947   -1.558015    1.493951
     26          6           0       -1.759695   -1.601653   -1.880806
     27          1           0       -0.985366   -2.250672   -2.314993
     28          1           0       -2.660270   -2.197658   -1.725705
     29          1           0       -1.943369   -0.795066   -2.589576
 ---------------------------------------------------------------------

 SCF Done:  E(UB97D3) =  -3034.62346768     A.U. after   17 cycles
 Normal termination of Gaussian 16 at Wed Feb 12 05:32:24 2020.
