 Gaussian 16, Revision A.03,

 --------------------------------
 #t pop=none jul-cc-pvdz upbe1pbe
 --------------------------------
 ------------------------
 theory_abbreviation pbe0
 ------------------------
 Symbolic Z-matrix:
 Charge =  0 Multiplicity = 6

 SCF Done:  E(UPBE1PBE) =  -3033.11707468     A.U. after   20 cycles
 Normal termination of Gaussian 16 at Wed Feb 12 07:01:21 2020.

 ---------------------------------------------------------------------
 #t pop=none jul-cc-pvdz guess=read upbe1pbe empiricaldispersion=gd3bj
 ---------------------------------------------------------------------
 -----------------------------
 theory_abbreviation pbe0_d3bj
 -----------------------------
 Symbolic Z-matrix:
 Charge =  0 Multiplicity = 6

 SCF Done:  E(UPBE1PBE) =  -3033.15464434     A.U. after    1 cycles
 Normal termination of Gaussian 16 at Wed Feb 12 07:02:29 2020.

 -----------------------------------------
 #t pop=none jul-cc-pvdz guess=read ub3lyp
 -----------------------------------------
 -------------------------
 theory_abbreviation b3lyp
 -------------------------
 Symbolic Z-matrix:
 Charge =  0 Multiplicity = 6

 SCF Done:  E(UB3LYP) =  -3034.33198361     A.U. after   13 cycles
 Normal termination of Gaussian 16 at Wed Feb 12 07:15:41 2020.

 -------------------------------------------------------------------
 #t pop=none jul-cc-pvdz guess=read ub3lyp empiricaldispersion=gd3bj
 -------------------------------------------------------------------
 ------------------------------
 theory_abbreviation b3lyp_d3bj
 ------------------------------
 Symbolic Z-matrix:
 Charge =  0 Multiplicity = 6

 SCF Done:  E(UB3LYP) =  -3034.40200418     A.U. after    1 cycles
 Normal termination of Gaussian 16 at Wed Feb 12 07:16:48 2020.

 ----------------------------------------
 #t pop=none jul-cc-pvdz guess=read ub97d
 ----------------------------------------
 ------------------------
 theory_abbreviation b97d
 ------------------------
 Symbolic Z-matrix:
 Charge =  0 Multiplicity = 6

 SCF Done:  E(UB97D) =  -3034.58607919     A.U. after   14 cycles

 ----------------------------------------------------------------
 #t pop=none jul-cc-pvdz guess=read ub97d empiricaldispersion=gd3
 ----------------------------------------------------------------
 -------------------------
 theory_abbreviation b97d3
 -------------------------
 Symbolic Z-matrix:
 Charge =  0 Multiplicity = 6

 SCF Done:  E(UB97D) =  -3034.58701698     A.U. after    1 cycles
 SCF Done:  E(UBHandHLYP) =  -3033.97264422     A.U. after   18 cycles
 SCF Done:  E(UBHandH) =  -3026.31730203     A.U. after   16 cycles
 SCF Done:  E(ULC-wPBE) =  -3033.45666030     A.U. after   19 cycles
 SCF Done:  E(UB-P86) =  -3034.63785585     A.U. after   17 cycles
 SCF Done:  E(UmPW1LYP) =  -3034.05003678     A.U. after   15 cycles
 SCF Done:  E(UmPW1PBE) =  -3033.89145465     A.U. after   16 cycles
 SCF Done:  E(UmPW3PBE) =  -3033.66426453     A.U. after   13 cycles
 SCF Done:  E(UM11) =  -3033.81491132     A.U. after   19 cycles
 SCF Done:  E(UN12SX) =  -3033.25646763     A.U. after   17 cycles
 SCF Done:  E(UMN12SX) =  -3033.65585742     A.U. after   17 cycles
 SCF Done:  E(UB1B95) =  -3034.38625012     A.U. after   16 cycles
 Normal termination of Gaussian 16 at Wed Feb 12 15:55:16 2020.
 SCF Done:  E(UB3PW91) =  -3033.97984825     A.U. after   15 cycles
 Normal termination of Gaussian 16 at Wed Feb 12 16:10:21 2020.
 SCF Done:  E(UM06L) =  -3034.19968468     A.U. after   18 cycles
 Normal termination of Gaussian 16 at Wed Feb 12 16:29:55 2020.
 Gaussian 16:  ES64L-G16RevA.03 25-Dec-2016

                         Standard orientation:
 ---------------------------------------------------------------------
 Center     Atomic      Atomic             Coordinates (Angstroms)
 Number     Number       Type             X           Y           Z
 ---------------------------------------------------------------------
      1          8           0       -0.290463   -0.215402   -0.765384
      2          6           0       -1.178759   -1.133392   -0.606210
      3          6           0       -2.806199   -0.278679    0.508873
      4          6           0       -2.574915    0.937958   -0.077267
      5          6           0       -3.175781    1.309118   -1.396565
      6         26           0        1.437385    0.134315   -0.017109
      7         17           0        1.998897    2.071222   -0.869459
      8          6           0       -1.672212    1.966251    0.512565
      9         17           0        2.650146   -1.578474   -0.652049
     10         17           0        1.189459    0.210139    2.179243
     11          1           0       -3.572075   -0.898142    0.045356
     12          1           0       -2.226834    2.904122    0.647990
     13          1           0       -1.231615    1.676776    1.464866
     14          1           0       -0.859783    2.187698   -0.192421
     15          1           0       -3.721353    2.255283   -1.289590
     16          1           0       -2.384875    1.492533   -2.135998
     17          1           0       -3.867632    0.555998   -1.778704
     18          6           0       -2.578131   -0.540060    1.983050
     19          1           0       -3.321983    0.015023    2.567910
     20          1           0       -2.706609   -1.598040    2.220650
     21          1           0       -1.588413   -0.232980    2.326932
     22          6           0       -0.870584   -2.259258    0.354948
     23          1           0       -1.729322   -2.910490    0.526845
     24          1           0       -0.081409   -2.845380   -0.136270
     25          1           0       -0.466292   -1.900367    1.300575
     26          6           0       -1.888370   -1.561296   -1.874455
     27          1           0       -1.175699   -2.205431   -2.406088
     28          1           0       -2.792141   -2.142366   -1.680801
     29          1           0       -2.107102   -0.716126   -2.524460
 ---------------------------------------------------------------------

 SCF Done:  E(UB97D3) =  -3034.62226446     A.U. after   15 cycles
 Normal termination of Gaussian 16 at Wed Feb 12 16:41:50 2020.
