 Gaussian 16, Revision A.03,

 --------------------------------
 #t pop=none jul-cc-pvdz upbe1pbe
 --------------------------------
 ------------------------
 theory_abbreviation pbe0
 ------------------------
 Symbolic Z-matrix:
 Charge =  0 Multiplicity = 6

 SCF Done:  E(UPBE1PBE) =  -3033.11967788     A.U. after   20 cycles
 Normal termination of Gaussian 16 at Tue Feb 11 13:58:43 2020.

 ---------------------------------------------------------------------
 #t pop=none jul-cc-pvdz guess=read upbe1pbe empiricaldispersion=gd3bj
 ---------------------------------------------------------------------
 -----------------------------
 theory_abbreviation pbe0_d3bj
 -----------------------------
 Symbolic Z-matrix:
 Charge =  0 Multiplicity = 6

 SCF Done:  E(UPBE1PBE) =  -3033.15739232     A.U. after    1 cycles
 Normal termination of Gaussian 16 at Tue Feb 11 13:59:54 2020.

 -----------------------------------------
 #t pop=none jul-cc-pvdz guess=read ub3lyp
 -----------------------------------------
 -------------------------
 theory_abbreviation b3lyp
 -------------------------
 Symbolic Z-matrix:
 Charge =  0 Multiplicity = 6

 SCF Done:  E(UB3LYP) =  -3034.33515545     A.U. after   13 cycles
 Normal termination of Gaussian 16 at Tue Feb 11 14:13:52 2020.

 -------------------------------------------------------------------
 #t pop=none jul-cc-pvdz guess=read ub3lyp empiricaldispersion=gd3bj
 -------------------------------------------------------------------
 ------------------------------
 theory_abbreviation b3lyp_d3bj
 ------------------------------
 Symbolic Z-matrix:
 Charge =  0 Multiplicity = 6

 SCF Done:  E(UB3LYP) =  -3034.40539666     A.U. after    1 cycles
 Normal termination of Gaussian 16 at Tue Feb 11 14:15:03 2020.

 ----------------------------------------
 #t pop=none jul-cc-pvdz guess=read ub97d
 ----------------------------------------
 ------------------------
 theory_abbreviation b97d
 ------------------------
 Symbolic Z-matrix:
 Charge =  0 Multiplicity = 6

 SCF Done:  E(UB97D) =  -3034.58883083     A.U. after   15 cycles

 ----------------------------------------------------------------
 #t pop=none jul-cc-pvdz guess=read ub97d empiricaldispersion=gd3
 ----------------------------------------------------------------
 -------------------------
 theory_abbreviation b97d3
 -------------------------
 Symbolic Z-matrix:
 Charge =  0 Multiplicity = 6

 SCF Done:  E(UB97D) =  -3034.59008459     A.U. after    1 cycles
 SCF Done:  E(UBHandHLYP) =  -3033.97643683     A.U. after   18 cycles
 SCF Done:  E(UBHandH) =  -3026.31995420     A.U. after   14 cycles
 SCF Done:  E(ULC-wPBE) =  -3033.46013509     A.U. after   19 cycles
 SCF Done:  E(UB-P86) =  -3034.64037469     A.U. after   16 cycles
 SCF Done:  E(UmPW1LYP) =  -3034.05332123     A.U. after   13 cycles
 SCF Done:  E(UmPW1PBE) =  -3033.89407937     A.U. after   13 cycles
 SCF Done:  E(UmPW3PBE) =  -3033.66687910     A.U. after   13 cycles
 SCF Done:  E(UM11) =  -3033.81758700     A.U. after   18 cycles
 SCF Done:  E(UN12SX) =  -3033.25874374     A.U. after   17 cycles
 SCF Done:  E(UMN12SX) =  -3033.65929679     A.U. after   16 cycles
 SCF Done:  E(UB1B95) =  -3034.38950296     A.U. after   14 cycles
 Normal termination of Gaussian 16 at Tue Feb 11 22:42:58 2020.
 SCF Done:  E(UB3PW91) =  -3033.98255972     A.U. after   13 cycles
 Normal termination of Gaussian 16 at Tue Feb 11 22:58:33 2020.
 SCF Done:  E(UM06L) =  -3034.20391043     A.U. after   17 cycles
 Normal termination of Gaussian 16 at Tue Feb 11 23:17:38 2020.
 Gaussian 16:  ES64L-G16RevA.03 25-Dec-2016

                         Standard orientation:
 ---------------------------------------------------------------------
 Center     Atomic      Atomic             Coordinates (Angstroms)
 Number     Number       Type             X           Y           Z
 ---------------------------------------------------------------------
      1          8           0       -0.296629   -0.193822   -0.765118
      2          6           0       -1.160008   -1.124262   -0.632095
      3          6           0       -2.986729   -0.140608    0.360635
      4          6           0       -2.463237    1.004143   -0.154196
      5          6           0       -2.767934    1.463599   -1.546998
      6         26           0        1.440663    0.109529    0.021743
      7         17           0        2.073432    2.028861   -0.807852
      8          6           0       -1.579789    1.927619    0.621456
      9         17           0        2.576720   -1.644068   -0.644856
     10         17           0        1.194366    0.139950    2.214744
     11          1           0       -3.712798   -0.671300   -0.252283
     12          1           0       -2.168943    2.809244    0.911955
     13          1           0       -1.165605    1.486942    1.527123
     14          1           0       -0.756065    2.292520   -0.001293
     15          1           0       -3.141700    2.494688   -1.513235
     16          1           0       -1.847298    1.487594   -2.144155
     17          1           0       -3.517082    0.845854   -2.047584
     18          6           0       -3.002528   -0.492611    1.827752
     19          1           0       -3.831918    0.032105    2.320016
     20          1           0       -3.165869   -1.562047    1.983679
     21          1           0       -2.083714   -0.209972    2.346934
     22          6           0       -0.960171   -2.163652    0.436310
     23          1           0       -1.832937   -2.805164    0.562748
     24          1           0       -0.123027   -2.782760    0.081213
     25          1           0       -0.657721   -1.727984    1.387883
     26          6           0       -1.837190   -1.592836   -1.895589
     27          1           0       -1.106578   -2.250996   -2.386715
     28          1           0       -2.739946   -2.173709   -1.700379
     29          1           0       -2.044298   -0.771169   -2.578545
 ---------------------------------------------------------------------

 SCF Done:  E(UB97D3) =  -3034.62553612     A.U. after   17 cycles
 Normal termination of Gaussian 16 at Tue Feb 11 23:31:21 2020.
