 Gaussian 16, Revision A.03,

 --------------------------------
 #t pop=none jul-cc-pvdz upbe1pbe
 --------------------------------
 ------------------------
 theory_abbreviation pbe0
 ------------------------
 Symbolic Z-matrix:
 Charge =  0 Multiplicity = 6

 SCF Done:  E(UPBE1PBE) =  -3033.10721433     A.U. after   21 cycles
 Normal termination of Gaussian 16 at Tue Feb 11 13:56:39 2020.

 ---------------------------------------------------------------------
 #t pop=none jul-cc-pvdz guess=read upbe1pbe empiricaldispersion=gd3bj
 ---------------------------------------------------------------------
 -----------------------------
 theory_abbreviation pbe0_d3bj
 -----------------------------
 Symbolic Z-matrix:
 Charge =  0 Multiplicity = 6

 SCF Done:  E(UPBE1PBE) =  -3033.14398957     A.U. after    1 cycles
 Normal termination of Gaussian 16 at Tue Feb 11 13:58:21 2020.

 -----------------------------------------
 #t pop=none jul-cc-pvdz guess=read ub3lyp
 -----------------------------------------
 -------------------------
 theory_abbreviation b3lyp
 -------------------------
 Symbolic Z-matrix:
 Charge =  0 Multiplicity = 6

 SCF Done:  E(UB3LYP) =  -3034.31794665     A.U. after   15 cycles
 Normal termination of Gaussian 16 at Tue Feb 11 14:13:54 2020.

 -------------------------------------------------------------------
 #t pop=none jul-cc-pvdz guess=read ub3lyp empiricaldispersion=gd3bj
 -------------------------------------------------------------------
 ------------------------------
 theory_abbreviation b3lyp_d3bj
 ------------------------------
 Symbolic Z-matrix:
 Charge =  0 Multiplicity = 6

 SCF Done:  E(UB3LYP) =  -3034.38678326     A.U. after    1 cycles
 Normal termination of Gaussian 16 at Tue Feb 11 14:15:21 2020.

 ----------------------------------------
 #t pop=none jul-cc-pvdz guess=read ub97d
 ----------------------------------------
 ------------------------
 theory_abbreviation b97d
 ------------------------
 Symbolic Z-matrix:
 Charge =  0 Multiplicity = 6

 SCF Done:  E(UB97D) =  -3034.57118629     A.U. after   17 cycles

 ----------------------------------------------------------------
 #t pop=none jul-cc-pvdz guess=read ub97d empiricaldispersion=gd3
 ----------------------------------------------------------------
 -------------------------
 theory_abbreviation b97d3
 -------------------------
 Symbolic Z-matrix:
 Charge =  0 Multiplicity = 6

 SCF Done:  E(UB97D) =  -3034.57172929     A.U. after    1 cycles
 SCF Done:  E(UBHandHLYP) =  -3033.96044343     A.U. after   16 cycles
 SCF Done:  E(UBHandH) =  -3026.31193816     A.U. after   13 cycles
 SCF Done:  E(ULC-wPBE) =  -3033.44927423     A.U. after   17 cycles
 SCF Done:  E(UB-P86) =  -3034.62599246     A.U. after   18 cycles
 SCF Done:  E(UmPW1LYP) =  -3034.03580275     A.U. after   15 cycles
 SCF Done:  E(UmPW1PBE) =  -3033.88153984     A.U. after   15 cycles
 SCF Done:  E(UmPW3PBE) =  -3033.65377035     A.U. after   14 cycles
 SCF Done:  E(UM11) =  -3033.80217703     A.U. after   18 cycles
 SCF Done:  E(UN12SX) =  -3033.24691953     A.U. after   17 cycles
 SCF Done:  E(UMN12SX) =  -3033.64284541     A.U. after   16 cycles
 SCF Done:  E(UB1B95) =  -3034.37401286     A.U. after   16 cycles
 Normal termination of Gaussian 16 at Tue Feb 11 22:49:01 2020.
 SCF Done:  E(UB3PW91) =  -3033.96895624     A.U. after   15 cycles
 Normal termination of Gaussian 16 at Tue Feb 11 23:05:35 2020.
 SCF Done:  E(UM06L) =  -3034.18605635     A.U. after   18 cycles
 Normal termination of Gaussian 16 at Tue Feb 11 23:25:15 2020.
 Gaussian 16:  ES64L-G16RevA.03 25-Dec-2016

                         Standard orientation:
 ---------------------------------------------------------------------
 Center     Atomic      Atomic             Coordinates (Angstroms)
 Number     Number       Type             X           Y           Z
 ---------------------------------------------------------------------
      1          8           0       -0.273670   -0.328071   -0.616677
      2          6           0       -1.338811   -1.124559   -0.285773
      3          6           0       -2.304623   -0.362434    0.737152
      4          6           0       -2.906367    0.729436   -0.016176
      5          6           0       -4.289439    0.624523   -0.532526
      6         26           0        1.465812    0.122031   -0.098102
      7         17           0        2.756961   -0.253231   -1.832285
      8          6           0       -2.080622    1.856918   -0.386456
      9         17           0        2.086664   -1.008719    1.695300
     10         17           0        1.292059    2.287935    0.417439
     11          1           0       -3.078562   -1.089275    1.003996
     12          1           0       -2.561843    2.600957   -1.020963
     13          1           0       -1.541306    2.315934    0.449996
     14          1           0       -1.217852    1.346248   -0.903756
     15          1           0       -4.916870    1.242707    0.132553
     16          1           0       -4.387489    1.058718   -1.533169
     17          1           0       -4.681866   -0.393527   -0.507611
     18          6           0       -1.544721    0.093918    1.998357
     19          1           0       -2.206636    0.677899    2.645333
     20          1           0       -1.200470   -0.772304    2.563871
     21          1           0       -0.675034    0.702199    1.750710
     22          6           0       -0.897675   -2.421632    0.426729
     23          1           0       -1.764033   -3.028536    0.708478
     24          1           0       -0.285277   -2.990493   -0.278921
     25          1           0       -0.285150   -2.220585    1.304216
     26          6           0       -2.083866   -1.501661   -1.582527
     27          1           0       -1.416781   -2.115804   -2.192474
     28          1           0       -2.996727   -2.074340   -1.383214
     29          1           0       -2.335726   -0.616842   -2.175358
 ---------------------------------------------------------------------

 SCF Done:  E(UB97D3) =  -3034.60596635     A.U. after   16 cycles
 Normal termination of Gaussian 16 at Tue Feb 11 23:38:18 2020.
