 Gaussian 16, Revision A.03,

 --------------------------------
 #t pop=none jul-cc-pvdz upbe1pbe
 --------------------------------
 ------------------------
 theory_abbreviation pbe0
 ------------------------
 Symbolic Z-matrix:
 Charge =  0 Multiplicity = 6

 SCF Done:  E(UPBE1PBE) =  -3033.11424463     A.U. after   20 cycles
 Normal termination of Gaussian 16 at Tue Feb 11 23:38:10 2020.

 ---------------------------------------------------------------------
 #t pop=none jul-cc-pvdz guess=read upbe1pbe empiricaldispersion=gd3bj
 ---------------------------------------------------------------------
 -----------------------------
 theory_abbreviation pbe0_d3bj
 -----------------------------
 Symbolic Z-matrix:
 Charge =  0 Multiplicity = 6

 SCF Done:  E(UPBE1PBE) =  -3033.15206573     A.U. after    1 cycles
 Normal termination of Gaussian 16 at Tue Feb 11 23:39:19 2020.

 -----------------------------------------
 #t pop=none jul-cc-pvdz guess=read ub3lyp
 -----------------------------------------
 -------------------------
 theory_abbreviation b3lyp
 -------------------------
 Symbolic Z-matrix:
 Charge =  0 Multiplicity = 6

 SCF Done:  E(UB3LYP) =  -3034.32923198     A.U. after   13 cycles
 Normal termination of Gaussian 16 at Tue Feb 11 23:52:33 2020.

 -------------------------------------------------------------------
 #t pop=none jul-cc-pvdz guess=read ub3lyp empiricaldispersion=gd3bj
 -------------------------------------------------------------------
 ------------------------------
 theory_abbreviation b3lyp_d3bj
 ------------------------------
 Symbolic Z-matrix:
 Charge =  0 Multiplicity = 6

 SCF Done:  E(UB3LYP) =  -3034.39968485     A.U. after    1 cycles
 Normal termination of Gaussian 16 at Tue Feb 11 23:53:45 2020.

 ----------------------------------------
 #t pop=none jul-cc-pvdz guess=read ub97d
 ----------------------------------------
 ------------------------
 theory_abbreviation b97d
 ------------------------
 Symbolic Z-matrix:
 Charge =  0 Multiplicity = 6

 SCF Done:  E(UB97D) =  -3034.58239425     A.U. after   15 cycles

 ----------------------------------------------------------------
 #t pop=none jul-cc-pvdz guess=read ub97d empiricaldispersion=gd3
 ----------------------------------------------------------------
 -------------------------
 theory_abbreviation b97d3
 -------------------------
 Symbolic Z-matrix:
 Charge =  0 Multiplicity = 6

 SCF Done:  E(UB97D) =  -3034.58407175     A.U. after    1 cycles
 SCF Done:  E(UBHandHLYP) =  -3033.97094749     A.U. after   18 cycles
 SCF Done:  E(UBHandH) =  -3026.31523650     A.U. after   14 cycles
 SCF Done:  E(ULC-wPBE) =  -3033.45489644     A.U. after   19 cycles
 SCF Done:  E(UB-P86) =  -3034.63484475     A.U. after   16 cycles
 SCF Done:  E(UmPW1LYP) =  -3034.04739744     A.U. after   13 cycles
 SCF Done:  E(UmPW1PBE) =  -3033.88871816     A.U. after   14 cycles
 SCF Done:  E(UmPW3PBE) =  -3033.66140107     A.U. after   13 cycles
 SCF Done:  E(UM11) =  -3033.81202891     A.U. after   17 cycles
 SCF Done:  E(UN12SX) =  -3033.25332644     A.U. after   17 cycles
 SCF Done:  E(UMN12SX) =  -3033.65384643     A.U. after   16 cycles
 SCF Done:  E(UB1B95) =  -3034.38424793     A.U. after   15 cycles
 Normal termination of Gaussian 16 at Wed Feb 12 07:53:44 2020.
 SCF Done:  E(UB3PW91) =  -3033.97703652     A.U. after   13 cycles
 Normal termination of Gaussian 16 at Wed Feb 12 08:07:08 2020.
 SCF Done:  E(UM06L) =  -3034.19793813     A.U. after   17 cycles
 Normal termination of Gaussian 16 at Wed Feb 12 08:26:44 2020.
 Gaussian 16:  ES64L-G16RevA.03 25-Dec-2016

                         Standard orientation:
 ---------------------------------------------------------------------
 Center     Atomic      Atomic             Coordinates (Angstroms)
 Number     Number       Type             X           Y           Z
 ---------------------------------------------------------------------
      1          8           0       -0.314767   -0.139593   -0.657015
      2          6           0       -1.191307   -1.067570   -0.573248
      3          6           0       -3.126211   -0.026955    0.107388
      4          6           0       -2.348321    1.048020   -0.194214
      5          6           0       -2.329995    1.647765   -1.565989
      6         26           0        1.457634    0.076585    0.049673
      7         17           0        2.084807    2.003961   -0.773058
      8          6           0       -1.561459    1.800230    0.834167
      9         17           0        2.480916   -1.707023   -0.722030
     10         17           0        1.335121    0.057608    2.249682
     11          1           0       -3.757058   -0.417992   -0.688143
     12          1           0       -2.198100    2.604898    1.229343
     13          1           0       -1.242724    1.187307    1.677744
     14          1           0       -0.680303    2.272438    0.391923
     15          1           0       -2.641802    2.697799   -1.492289
     16          1           0       -1.310674    1.649230   -1.967512
     17          1           0       -3.005246    1.143249   -2.261238
     18          6           0       -3.502024   -0.470643    1.496562
     19          1           0       -4.413805    0.054960    1.810747
     20          1           0       -3.725217   -1.540843    1.535691
     21          1           0       -2.731311   -0.254524    2.239784
     22          6           0       -1.102404   -2.039457    0.568740
     23          1           0       -1.980416   -2.680612    0.647036
     24          1           0       -0.231903   -2.672645    0.340252
     25          1           0       -0.895874   -1.541020    1.515981
     26          6           0       -1.737061   -1.589932   -1.876386
     27          1           0       -0.939746   -2.224768   -2.288993
     28          1           0       -2.631741   -2.200656   -1.744725
     29          1           0       -1.916072   -0.787283   -2.591195
 ---------------------------------------------------------------------

 SCF Done:  E(UB97D3) =  -3034.61978733     A.U. after   17 cycles
 Normal termination of Gaussian 16 at Wed Feb 12 08:44:46 2020.
