 Gaussian 16, Revision A.03,

 --------------------------------
 #t pop=none jul-cc-pvdz upbe1pbe
 --------------------------------
 ------------------------
 theory_abbreviation pbe0
 ------------------------
 Symbolic Z-matrix:
 Charge =  0 Multiplicity = 6

 SCF Done:  E(UPBE1PBE) =  -3033.13498286     A.U. after   19 cycles
 Normal termination of Gaussian 16 at Tue Feb 11 13:57:59 2020.

 ---------------------------------------------------------------------
 #t pop=none jul-cc-pvdz guess=read upbe1pbe empiricaldispersion=gd3bj
 ---------------------------------------------------------------------
 -----------------------------
 theory_abbreviation pbe0_d3bj
 -----------------------------
 Symbolic Z-matrix:
 Charge =  0 Multiplicity = 6

 SCF Done:  E(UPBE1PBE) =  -3033.17151208     A.U. after    1 cycles
 Normal termination of Gaussian 16 at Tue Feb 11 13:59:09 2020.

 -----------------------------------------
 #t pop=none jul-cc-pvdz guess=read ub3lyp
 -----------------------------------------
 -------------------------
 theory_abbreviation b3lyp
 -------------------------
 Symbolic Z-matrix:
 Charge =  0 Multiplicity = 6

 SCF Done:  E(UB3LYP) =  -3034.35309208     A.U. after   13 cycles
 Normal termination of Gaussian 16 at Tue Feb 11 14:12:44 2020.

 -------------------------------------------------------------------
 #t pop=none jul-cc-pvdz guess=read ub3lyp empiricaldispersion=gd3bj
 -------------------------------------------------------------------
 ------------------------------
 theory_abbreviation b3lyp_d3bj
 ------------------------------
 Symbolic Z-matrix:
 Charge =  0 Multiplicity = 6

 SCF Done:  E(UB3LYP) =  -3034.42078108     A.U. after    1 cycles
 Normal termination of Gaussian 16 at Tue Feb 11 14:13:54 2020.

 ----------------------------------------
 #t pop=none jul-cc-pvdz guess=read ub97d
 ----------------------------------------
 ------------------------
 theory_abbreviation b97d
 ------------------------
 Symbolic Z-matrix:
 Charge =  0 Multiplicity = 6

 SCF Done:  E(UB97D) =  -3034.60419212     A.U. after   15 cycles

 ----------------------------------------------------------------
 #t pop=none jul-cc-pvdz guess=read ub97d empiricaldispersion=gd3
 ----------------------------------------------------------------
 -------------------------
 theory_abbreviation b97d3
 -------------------------
 Symbolic Z-matrix:
 Charge =  0 Multiplicity = 6

 SCF Done:  E(UB97D) =  -3034.60553125     A.U. after    1 cycles
 SCF Done:  E(UBHandHLYP) =  -3033.99466691     A.U. after   15 cycles
 SCF Done:  E(UBHandH) =  -3026.33172370     A.U. after   14 cycles
 SCF Done:  E(ULC-wPBE) =  -3033.47582156     A.U. after   19 cycles
 SCF Done:  E(UB-P86) =  -3034.65334068     A.U. after   16 cycles
 SCF Done:  E(UmPW1LYP) =  -3034.07140435     A.U. after   13 cycles
 SCF Done:  E(UmPW1PBE) =  -3033.90943572     A.U. after   13 cycles
 SCF Done:  E(UmPW3PBE) =  -3033.68243163     A.U. after   13 cycles
 SCF Done:  E(UM11) =  -3033.83337032     A.U. after   17 cycles
 SCF Done:  E(UN12SX) =  -3033.27386528     A.U. after   16 cycles
 SCF Done:  E(UMN12SX) =  -3033.67593619     A.U. after   16 cycles
 SCF Done:  E(UB1B95) =  -3034.40538573     A.U. after   14 cycles
 Normal termination of Gaussian 16 at Tue Feb 11 22:36:36 2020.
 SCF Done:  E(UB3PW91) =  -3033.99858832     A.U. after   13 cycles
 Normal termination of Gaussian 16 at Tue Feb 11 22:50:04 2020.
 SCF Done:  E(UM06L) =  -3034.22075328     A.U. after   17 cycles
 Normal termination of Gaussian 16 at Tue Feb 11 23:09:35 2020.
 Gaussian 16:  ES64L-G16RevA.03 25-Dec-2016

                         Standard orientation:
 ---------------------------------------------------------------------
 Center     Atomic      Atomic             Coordinates (Angstroms)
 Number     Number       Type             X           Y           Z
 ---------------------------------------------------------------------
      1          8           0        0.190458    0.373520   -0.875094
      2          6           0        0.993265    1.319090   -0.678191
      3          6           0        3.029064    0.158319    0.559001
      4          6           0        2.676440   -0.933380   -0.152714
      5          6           0        3.197995   -1.169395   -1.543436
      6         26           0       -1.485169   -0.164585    0.005997
      7         17           0       -2.052265   -2.008921   -0.997829
      8          6           0        1.757618   -2.005426    0.353712
      9         17           0       -2.740124    1.580201   -0.404083
     10         17           0       -1.082598   -0.405605    2.151162
     11          1           0        3.746291    0.839763    0.100957
     12          1           0        2.285552   -2.967849    0.383250
     13          1           0        1.354935   -1.806042    1.346305
     14          1           0        0.915178   -2.140558   -0.337482
     15          1           0        3.744703   -2.120625   -1.580916
     16          1           0        2.371128   -1.262513   -2.260475
     17          1           0        3.875758   -0.379163   -1.878175
     18          6           0        2.770398    0.385549    2.026072
     19          1           0        3.556929   -0.095741    2.623029
     20          1           0        2.794812    1.449859    2.277865
     21          1           0        1.811889   -0.018244    2.360724
     22          6           0        0.809303    2.248970    0.480644
     23          1           0        1.696404    2.854222    0.669527
     24          1           0       -0.017390    2.918023    0.197925
     25          1           0        0.502063    1.719957    1.382848
     26          6           0        1.822814    1.781909   -1.838673
     27          1           0        1.226784    2.556422   -2.343728
     28          1           0        2.762230    2.237541   -1.523493
     29          1           0        1.996853    0.975718   -2.549090
 ---------------------------------------------------------------------

 SCF Done:  E(UB97D3) =  -3034.64036533     A.U. after   15 cycles
 Normal termination of Gaussian 16 at Tue Feb 11 23:21:30 2020.
