 Gaussian 16, Revision A.03,

 --------------------------------
 #t pop=none jul-cc-pvdz upbe1pbe
 --------------------------------
 ------------------------
 theory_abbreviation pbe0
 ------------------------
 Symbolic Z-matrix:
 Charge =  0 Multiplicity = 6

 SCF Done:  E(UPBE1PBE) =  -3033.13241430     A.U. after   21 cycles
 Normal termination of Gaussian 16 at Tue Feb 11 13:59:39 2020.

 ---------------------------------------------------------------------
 #t pop=none jul-cc-pvdz guess=read upbe1pbe empiricaldispersion=gd3bj
 ---------------------------------------------------------------------
 -----------------------------
 theory_abbreviation pbe0_d3bj
 -----------------------------
 Symbolic Z-matrix:
 Charge =  0 Multiplicity = 6

 SCF Done:  E(UPBE1PBE) =  -3033.16909221     A.U. after    1 cycles
 Normal termination of Gaussian 16 at Tue Feb 11 14:00:48 2020.

 -----------------------------------------
 #t pop=none jul-cc-pvdz guess=read ub3lyp
 -----------------------------------------
 -------------------------
 theory_abbreviation b3lyp
 -------------------------
 Symbolic Z-matrix:
 Charge =  0 Multiplicity = 6

 SCF Done:  E(UB3LYP) =  -3034.35020678     A.U. after   13 cycles
 Normal termination of Gaussian 16 at Tue Feb 11 14:14:17 2020.

 -------------------------------------------------------------------
 #t pop=none jul-cc-pvdz guess=read ub3lyp empiricaldispersion=gd3bj
 -------------------------------------------------------------------
 ------------------------------
 theory_abbreviation b3lyp_d3bj
 ------------------------------
 Symbolic Z-matrix:
 Charge =  0 Multiplicity = 6

 SCF Done:  E(UB3LYP) =  -3034.41823494     A.U. after    1 cycles
 Normal termination of Gaussian 16 at Tue Feb 11 14:15:26 2020.

 ----------------------------------------
 #t pop=none jul-cc-pvdz guess=read ub97d
 ----------------------------------------
 ------------------------
 theory_abbreviation b97d
 ------------------------
 Symbolic Z-matrix:
 Charge =  0 Multiplicity = 6

 SCF Done:  E(UB97D) =  -3034.60198162     A.U. after   15 cycles

 ----------------------------------------------------------------
 #t pop=none jul-cc-pvdz guess=read ub97d empiricaldispersion=gd3
 ----------------------------------------------------------------
 -------------------------
 theory_abbreviation b97d3
 -------------------------
 Symbolic Z-matrix:
 Charge =  0 Multiplicity = 6

 SCF Done:  E(UB97D) =  -3034.60312658     A.U. after    1 cycles
 SCF Done:  E(UBHandHLYP) =  -3033.99143233     A.U. after   15 cycles
 SCF Done:  E(UBHandH) =  -3026.32946999     A.U. after   14 cycles
 SCF Done:  E(ULC-wPBE) =  -3033.47279812     A.U. after   19 cycles
 SCF Done:  E(UB-P86) =  -3034.65134128     A.U. after   16 cycles
 SCF Done:  E(UmPW1LYP) =  -3034.06844987     A.U. after   13 cycles
 SCF Done:  E(UmPW1PBE) =  -3033.90687506     A.U. after   14 cycles
 SCF Done:  E(UmPW3PBE) =  -3033.67988948     A.U. after   13 cycles
 SCF Done:  E(UM11) =  -3033.83030605     A.U. after   17 cycles
 SCF Done:  E(UN12SX) =  -3033.27124455     A.U. after   16 cycles
 SCF Done:  E(UMN12SX) =  -3033.67287750     A.U. after   16 cycles
 SCF Done:  E(UB1B95) =  -3034.40254563     A.U. after   14 cycles
 Normal termination of Gaussian 16 at Tue Feb 11 22:30:06 2020.
 SCF Done:  E(UB3PW91) =  -3033.99597460     A.U. after   13 cycles
 Normal termination of Gaussian 16 at Tue Feb 11 22:43:31 2020.
 SCF Done:  E(UM06L) =  -3034.21789854     A.U. after   17 cycles
 Normal termination of Gaussian 16 at Tue Feb 11 23:03:59 2020.
 Gaussian 16:  ES64L-G16RevA.03 25-Dec-2016

                         Standard orientation:
 ---------------------------------------------------------------------
 Center     Atomic      Atomic             Coordinates (Angstroms)
 Number     Number       Type             X           Y           Z
 ---------------------------------------------------------------------
      1          8           0        0.196439    0.354034   -0.865254
      2          6           0        1.022060    1.285571   -0.671612
      3          6           0        2.970135    0.205172    0.569454
      4          6           0        2.691872   -0.923209   -0.122659
      5          6           0        3.267415   -1.174164   -1.488040
      6         26           0       -1.485154   -0.163692   -0.002788
      7         17           0       -2.038737   -2.025335   -0.986063
      8          6           0        1.782361   -2.004398    0.377644
      9         17           0       -2.741743    1.572335   -0.444898
     10         17           0       -1.104534   -0.384426    2.150232
     11          1           0        3.683993    0.896781    0.122605
     12          1           0        2.316973   -2.962707    0.409413
     13          1           0        1.368442   -1.807614    1.366091
     14          1           0        0.946404   -2.143026   -0.321563
     15          1           0        3.845079   -2.107591   -1.481484
     16          1           0        2.468912   -1.312949   -2.229520
     17          1           0        3.930382   -0.370761   -1.820042
     18          6           0        2.683498    0.430195    2.033207
     19          1           0        3.452721   -0.065067    2.640742
     20          1           0        2.716932    1.492354    2.290091
     21          1           0        1.714191    0.037015    2.347937
     22          6           0        0.811599    2.259857    0.447932
     23          1           0        1.696283    2.866705    0.642882
     24          1           0        0.000559    2.922598    0.110622
     25          1           0        0.469573    1.769802    1.359286
     26          6           0        1.844245    1.729392   -1.847470
     27          1           0        1.228646    2.471124   -2.377161
     28          1           0        2.773527    2.216906   -1.550709
     29          1           0        2.035981    0.905909   -2.533021
 ---------------------------------------------------------------------

 SCF Done:  E(UB97D3) =  -3034.63814439     A.U. after   15 cycles
 Normal termination of Gaussian 16 at Tue Feb 11 23:15:54 2020.
