 Gaussian 16, Revision A.03,

 --------------------------------
 #t pop=none jul-cc-pvdz upbe1pbe
 --------------------------------
 ------------------------
 theory_abbreviation pbe0
 ------------------------
 Symbolic Z-matrix:
 Charge =  0 Multiplicity = 6

 SCF Done:  E(UPBE1PBE) =  -3033.13893388     A.U. after   20 cycles
 Normal termination of Gaussian 16 at Wed Feb 12 15:27:48 2020.

 ---------------------------------------------------------------------
 #t pop=none jul-cc-pvdz guess=read upbe1pbe empiricaldispersion=gd3bj
 ---------------------------------------------------------------------
 -----------------------------
 theory_abbreviation pbe0_d3bj
 -----------------------------
 Symbolic Z-matrix:
 Charge =  0 Multiplicity = 6

 SCF Done:  E(UPBE1PBE) =  -3033.17485978     A.U. after    1 cycles
 Normal termination of Gaussian 16 at Wed Feb 12 15:28:59 2020.

 -----------------------------------------
 #t pop=none jul-cc-pvdz guess=read ub3lyp
 -----------------------------------------
 -------------------------
 theory_abbreviation b3lyp
 -------------------------
 Symbolic Z-matrix:
 Charge =  0 Multiplicity = 6

 SCF Done:  E(UB3LYP) =  -3034.35779061     A.U. after   13 cycles
 Normal termination of Gaussian 16 at Wed Feb 12 15:42:33 2020.

 -------------------------------------------------------------------
 #t pop=none jul-cc-pvdz guess=read ub3lyp empiricaldispersion=gd3bj
 -------------------------------------------------------------------
 ------------------------------
 theory_abbreviation b3lyp_d3bj
 ------------------------------
 Symbolic Z-matrix:
 Charge =  0 Multiplicity = 6

 SCF Done:  E(UB3LYP) =  -3034.42417057     A.U. after    1 cycles
 Normal termination of Gaussian 16 at Wed Feb 12 15:43:43 2020.

 ----------------------------------------
 #t pop=none jul-cc-pvdz guess=read ub97d
 ----------------------------------------
 ------------------------
 theory_abbreviation b97d
 ------------------------
 Symbolic Z-matrix:
 Charge =  0 Multiplicity = 6

 SCF Done:  E(UB97D) =  -3034.60652051     A.U. after   16 cycles

 ----------------------------------------------------------------
 #t pop=none jul-cc-pvdz guess=read ub97d empiricaldispersion=gd3
 ----------------------------------------------------------------
 -------------------------
 theory_abbreviation b97d3
 -------------------------
 Symbolic Z-matrix:
 Charge =  0 Multiplicity = 6

 SCF Done:  E(UB97D) =  -3034.60868758     A.U. after    3 cycles
 SCF Done:  E(UBHandHLYP) =  -3033.99993694     A.U. after   18 cycles
 SCF Done:  E(UBHandH) =  -3026.33416019     A.U. after   14 cycles
 SCF Done:  E(ULC-wPBE) =  -3033.48064890     A.U. after   17 cycles
 SCF Done:  E(UB-P86) =  -3034.65557448     A.U. after   18 cycles
 SCF Done:  E(UmPW1LYP) =  -3034.07618154     A.U. after   13 cycles
 SCF Done:  E(UmPW1PBE) =  -3033.91344635     A.U. after   14 cycles
 SCF Done:  E(UmPW3PBE) =  -3033.68639135     A.U. after   13 cycles
 SCF Done:  E(UM11) =  -3033.83808531     A.U. after   17 cycles
 SCF Done:  E(UN12SX) =  -3033.27789121     A.U. after   16 cycles
 SCF Done:  E(UMN12SX) =  -3033.68050797     A.U. after   16 cycles
 SCF Done:  E(UB1B95) =  -3034.41001559     A.U. after   14 cycles
 Normal termination of Gaussian 16 at Wed Feb 12 23:11:42 2020.
 SCF Done:  E(UB3PW91) =  -3034.00276657     A.U. after   14 cycles
 Normal termination of Gaussian 16 at Wed Feb 12 23:25:11 2020.
 SCF Done:  E(UM06L) =  -3034.22449886     A.U. after   17 cycles
 Normal termination of Gaussian 16 at Wed Feb 12 23:43:09 2020.
 Gaussian 16:  ES64L-G16RevA.03 25-Dec-2016

                         Standard orientation:
 ---------------------------------------------------------------------
 Center     Atomic      Atomic             Coordinates (Angstroms)
 Number     Number       Type             X           Y           Z
 ---------------------------------------------------------------------
      1          8           0        0.200748    0.467947   -0.843675
      2          6           0        0.891854    1.478944   -0.606220
      3          6           0        3.220151   -0.043650    0.516603
      4          6           0        2.623603   -0.931002   -0.300387
      5          6           0        2.979351   -1.007961   -1.762632
      6         26           0       -1.469575   -0.180363    0.029667
      7         17           0       -2.067280   -1.921209   -1.121045
      8          6           0        1.668012   -1.998386    0.153827
      9         17           0       -2.727229    1.591826   -0.235443
     10         17           0       -1.047304   -0.564750    2.143970
     11          1           0        3.959723    0.625190    0.072643
     12          1           0        2.160190   -2.979021    0.095146
     13          1           0        1.310999   -1.864882    1.174854
     14          1           0        0.799448   -2.057846   -0.512078
     15          1           0        3.422199   -1.985707   -1.994479
     16          1           0        2.081780   -0.921178   -2.388379
     17          1           0        3.696606   -0.236381   -2.059192
     18          6           0        3.060124    0.079353    2.006323
     19          1           0        3.917810   -0.368456    2.527073
     20          1           0        3.025066    1.130709    2.316593
     21          1           0        2.156457   -0.409829    2.378620
     22          6           0        0.769181    2.223724    0.683790
     23          1           0        1.628512    2.872250    0.861424
     24          1           0       -0.133982    2.847259    0.609739
     25          1           0        0.622186    1.538760    1.520575
     26          6           0        1.714369    2.069405   -1.706134
     27          1           0        1.228439    3.009340   -2.004912
     28          1           0        2.717015    2.320356   -1.351972
     29          1           0        1.761469    1.403008   -2.565825
 ---------------------------------------------------------------------

 SCF Done:  E(UB97D3) =  -3034.64298638     A.U. after   17 cycles
 Normal termination of Gaussian 16 at Wed Feb 12 23:56:07 2020.
