 Gaussian 16, Revision A.03,

 --------------------------------
 #t pop=none jul-cc-pvdz upbe1pbe
 --------------------------------
 ------------------------
 theory_abbreviation pbe0
 ------------------------
 Symbolic Z-matrix:
 Charge =  0 Multiplicity = 6

 SCF Done:  E(UPBE1PBE) =  -3033.12122134     A.U. after   20 cycles
 Normal termination of Gaussian 16 at Tue Feb 11 13:58:42 2020.

 ---------------------------------------------------------------------
 #t pop=none jul-cc-pvdz guess=read upbe1pbe empiricaldispersion=gd3bj
 ---------------------------------------------------------------------
 -----------------------------
 theory_abbreviation pbe0_d3bj
 -----------------------------
 Symbolic Z-matrix:
 Charge =  0 Multiplicity = 6

 SCF Done:  E(UPBE1PBE) =  -3033.15873810     A.U. after    1 cycles
 Normal termination of Gaussian 16 at Tue Feb 11 13:59:54 2020.

 -----------------------------------------
 #t pop=none jul-cc-pvdz guess=read ub3lyp
 -----------------------------------------
 -------------------------
 theory_abbreviation b3lyp
 -------------------------
 Symbolic Z-matrix:
 Charge =  0 Multiplicity = 6

 SCF Done:  E(UB3LYP) =  -3034.33691526     A.U. after   13 cycles
 Normal termination of Gaussian 16 at Tue Feb 11 14:13:52 2020.

 -------------------------------------------------------------------
 #t pop=none jul-cc-pvdz guess=read ub3lyp empiricaldispersion=gd3bj
 -------------------------------------------------------------------
 ------------------------------
 theory_abbreviation b3lyp_d3bj
 ------------------------------
 Symbolic Z-matrix:
 Charge =  0 Multiplicity = 6

 SCF Done:  E(UB3LYP) =  -3034.40677967     A.U. after    1 cycles
 Normal termination of Gaussian 16 at Tue Feb 11 14:15:03 2020.

 ----------------------------------------
 #t pop=none jul-cc-pvdz guess=read ub97d
 ----------------------------------------
 ------------------------
 theory_abbreviation b97d
 ------------------------
 Symbolic Z-matrix:
 Charge =  0 Multiplicity = 6

 SCF Done:  E(UB97D) =  -3034.59081567     A.U. after   15 cycles

 ----------------------------------------------------------------
 #t pop=none jul-cc-pvdz guess=read ub97d empiricaldispersion=gd3
 ----------------------------------------------------------------
 -------------------------
 theory_abbreviation b97d3
 -------------------------
 Symbolic Z-matrix:
 Charge =  0 Multiplicity = 6

 SCF Done:  E(UB97D) =  -3034.59189347     A.U. after    1 cycles
 SCF Done:  E(UBHandHLYP) =  -3033.97756162     A.U. after   18 cycles
 SCF Done:  E(UBHandH) =  -3026.32068168     A.U. after   16 cycles
 SCF Done:  E(ULC-wPBE) =  -3033.46098598     A.U. after   19 cycles
 SCF Done:  E(UB-P86) =  -3034.64199965     A.U. after   16 cycles
 SCF Done:  E(UmPW1LYP) =  -3034.05499914     A.U. after   14 cycles
 SCF Done:  E(UmPW1PBE) =  -3033.89561969     A.U. after   15 cycles
 SCF Done:  E(UmPW3PBE) =  -3033.66851636     A.U. after   13 cycles
 SCF Done:  E(UM11) =  -3033.81889326     A.U. after   19 cycles
 SCF Done:  E(UN12SX) =  -3033.26034934     A.U. after   17 cycles
 SCF Done:  E(UMN12SX) =  -3033.66046937     A.U. after   16 cycles
 SCF Done:  E(UB1B95) =  -3034.39072551     A.U. after   14 cycles
 Normal termination of Gaussian 16 at Tue Feb 11 23:04:01 2020.
 SCF Done:  E(UB3PW91) =  -3033.98421817     A.U. after   15 cycles
 Normal termination of Gaussian 16 at Tue Feb 11 23:19:42 2020.
 SCF Done:  E(UM06L) =  -3034.20495781     A.U. after   18 cycles
 Normal termination of Gaussian 16 at Tue Feb 11 23:39:36 2020.
 Gaussian 16:  ES64L-G16RevA.03 25-Dec-2016

                         Standard orientation:
 ---------------------------------------------------------------------
 Center     Atomic      Atomic             Coordinates (Angstroms)
 Number     Number       Type             X           Y           Z
 ---------------------------------------------------------------------
      1          8           0       -0.272704   -0.242271   -0.792001
      2          6           0       -1.143450   -1.162645   -0.625870
      3          6           0       -2.848826   -0.253876    0.526662
      4          6           0       -2.597547    0.936896   -0.088664
      5          6           0       -3.189452    1.281231   -1.421484
      6         26           0        1.448941    0.139616   -0.012248
      7         17           0        2.021846    2.053173   -0.898515
      8          6           0       -1.689966    1.976886    0.479358
      9         17           0        2.659142   -1.589139   -0.602955
     10         17           0        1.170973    0.251430    2.174374
     11          1           0       -3.598206   -0.893417    0.063353
     12          1           0       -2.233650    2.925170    0.580958
     13          1           0       -1.263257    1.712730    1.445566
     14          1           0       -0.866264    2.168449   -0.221339
     15          1           0       -3.742360    2.225626   -1.338608
     16          1           0       -2.396198    1.453413   -2.161138
     17          1           0       -3.875533    0.517149   -1.793335
     18          6           0       -2.606227   -0.508917    1.997350
     19          1           0       -3.354768    0.034546    2.587823
     20          1           0       -2.715446   -1.568126    2.240461
     21          1           0       -1.619892   -0.183639    2.334595
     22          6           0       -0.864218   -2.251891    0.378652
     23          1           0       -1.731793   -2.888699    0.557711
     24          1           0       -0.071565   -2.862971   -0.076372
     25          1           0       -0.472811   -1.861733    1.317334
     26          6           0       -1.884543   -1.594535   -1.869667
     27          1           0       -1.196575   -2.266381   -2.400888
     28          1           0       -2.797129   -2.150965   -1.649437
     29          1           0       -2.093329   -0.754787   -2.529641
 ---------------------------------------------------------------------

 SCF Done:  E(UB97D3) =  -3034.62718935     A.U. after   15 cycles
 Normal termination of Gaussian 16 at Tue Feb 11 23:51:31 2020.
