 Gaussian 16, Revision A.03,

 --------------------------------
 #t pop=none jul-cc-pvdz upbe1pbe
 --------------------------------
 ------------------------
 theory_abbreviation pbe0
 ------------------------
 Symbolic Z-matrix:
 Charge =  0 Multiplicity = 6

 SCF Done:  E(UPBE1PBE) =  -3033.11495806     A.U. after   20 cycles
 Normal termination of Gaussian 16 at Tue Feb 11 13:58:43 2020.

 ---------------------------------------------------------------------
 #t pop=none jul-cc-pvdz guess=read upbe1pbe empiricaldispersion=gd3bj
 ---------------------------------------------------------------------
 -----------------------------
 theory_abbreviation pbe0_d3bj
 -----------------------------
 Symbolic Z-matrix:
 Charge =  0 Multiplicity = 6

 SCF Done:  E(UPBE1PBE) =  -3033.15275103     A.U. after    1 cycles
 Normal termination of Gaussian 16 at Tue Feb 11 13:59:56 2020.

 -----------------------------------------
 #t pop=none jul-cc-pvdz guess=read ub3lyp
 -----------------------------------------
 -------------------------
 theory_abbreviation b3lyp
 -------------------------
 Symbolic Z-matrix:
 Charge =  0 Multiplicity = 6

 SCF Done:  E(UB3LYP) =  -3034.32986218     A.U. after   13 cycles
 Normal termination of Gaussian 16 at Tue Feb 11 14:13:57 2020.

 -------------------------------------------------------------------
 #t pop=none jul-cc-pvdz guess=read ub3lyp empiricaldispersion=gd3bj
 -------------------------------------------------------------------
 ------------------------------
 theory_abbreviation b3lyp_d3bj
 ------------------------------
 Symbolic Z-matrix:
 Charge =  0 Multiplicity = 6

 SCF Done:  E(UB3LYP) =  -3034.40027143     A.U. after    1 cycles
 Normal termination of Gaussian 16 at Tue Feb 11 14:15:09 2020.

 ----------------------------------------
 #t pop=none jul-cc-pvdz guess=read ub97d
 ----------------------------------------
 ------------------------
 theory_abbreviation b97d
 ------------------------
 Symbolic Z-matrix:
 Charge =  0 Multiplicity = 6

 SCF Done:  E(UB97D) =  -3034.58331938     A.U. after   15 cycles

 ----------------------------------------------------------------
 #t pop=none jul-cc-pvdz guess=read ub97d empiricaldispersion=gd3
 ----------------------------------------------------------------
 -------------------------
 theory_abbreviation b97d3
 -------------------------
 Symbolic Z-matrix:
 Charge =  0 Multiplicity = 6

 SCF Done:  E(UB97D) =  -3034.58470478     A.U. after    1 cycles
 SCF Done:  E(UBHandHLYP) =  -3033.97140698     A.U. after   17 cycles
 SCF Done:  E(UBHandH) =  -3026.31591213     A.U. after   14 cycles
 SCF Done:  E(ULC-wPBE) =  -3033.45536129     A.U. after   19 cycles
 SCF Done:  E(UB-P86) =  -3034.63556492     A.U. after   16 cycles
 SCF Done:  E(UmPW1LYP) =  -3034.04801301     A.U. after   13 cycles
 SCF Done:  E(UmPW1PBE) =  -3033.88940841     A.U. after   13 cycles
 SCF Done:  E(UmPW3PBE) =  -3033.66210048     A.U. after   13 cycles
 SCF Done:  E(UM11) =  -3033.81261280     A.U. after   18 cycles
 SCF Done:  E(UN12SX) =  -3033.25413426     A.U. after   17 cycles
 SCF Done:  E(UMN12SX) =  -3033.65419382     A.U. after   16 cycles
 SCF Done:  E(UB1B95) =  -3034.38455106     A.U. after   15 cycles
 Normal termination of Gaussian 16 at Tue Feb 11 22:47:20 2020.
 SCF Done:  E(UB3PW91) =  -3033.97771544     A.U. after   13 cycles
 Normal termination of Gaussian 16 at Tue Feb 11 23:02:51 2020.
 SCF Done:  E(UM06L) =  -3034.19820012     A.U. after   17 cycles
 Normal termination of Gaussian 16 at Tue Feb 11 23:22:06 2020.
 Gaussian 16:  ES64L-G16RevA.03 25-Dec-2016

                         Standard orientation:
 ---------------------------------------------------------------------
 Center     Atomic      Atomic             Coordinates (Angstroms)
 Number     Number       Type             X           Y           Z
 ---------------------------------------------------------------------
      1          8           0       -0.308670   -0.150926   -0.696311
      2          6           0       -1.196132   -1.071903   -0.597691
      3          6           0       -3.058498   -0.086239    0.191331
      4          6           0       -2.385149    1.040500   -0.175529
      5          6           0       -2.477287    1.605566   -1.557725
      6         26           0        1.447236    0.084987    0.039697
      7         17           0        2.074080    2.022219   -0.762014
      8          6           0       -1.563191    1.847651    0.777702
      9         17           0        2.521609   -1.677510   -0.708743
     10         17           0        1.278538    0.064577    2.240021
     11          1           0       -3.731725   -0.518401   -0.545875
     12          1           0       -2.191219    2.665534    1.160125
     13          1           0       -1.198767    1.280581    1.634019
     14          1           0       -0.710013    2.307756    0.270920
     15          1           0       -2.784452    2.657020   -1.491197
     16          1           0       -1.487470    1.598357   -2.029839
     17          1           0       -3.196466    1.079170   -2.189310
     18          6           0       -3.316979   -0.507445    1.615940
     19          1           0       -4.205287    0.016636    1.992734
     20          1           0       -3.524510   -1.578223    1.690409
     21          1           0       -2.490554   -0.272262    2.290298
     22          6           0       -1.051050   -2.091147    0.499399
     23          1           0       -1.922033   -2.740760    0.588835
     24          1           0       -0.188752   -2.707591    0.204844
     25          1           0       -0.806108   -1.633389    1.457632
     26          6           0       -1.776623   -1.567957   -1.899331
     27          1           0       -0.989371   -2.190211   -2.347641
     28          1           0       -2.664867   -2.185802   -1.757006
     29          1           0       -1.979575   -0.752695   -2.592651
 ---------------------------------------------------------------------

 SCF Done:  E(UB97D3) =  -3034.62034764     A.U. after   16 cycles
 Normal termination of Gaussian 16 at Tue Feb 11 23:35:08 2020.
