 Gaussian 16, Revision A.03,

 --------------------------------
 #t pop=none jul-cc-pvdz upbe1pbe
 --------------------------------
 ------------------------
 theory_abbreviation pbe0
 ------------------------
 Symbolic Z-matrix:
 Charge =  0 Multiplicity = 6

 SCF Done:  E(UPBE1PBE) =  -3033.11287510     A.U. after   21 cycles
 Normal termination of Gaussian 16 at Tue Feb 11 20:11:43 2020.

 ---------------------------------------------------------------------
 #t pop=none jul-cc-pvdz guess=read upbe1pbe empiricaldispersion=gd3bj
 ---------------------------------------------------------------------
 -----------------------------
 theory_abbreviation pbe0_d3bj
 -----------------------------
 Symbolic Z-matrix:
 Charge =  0 Multiplicity = 6

 SCF Done:  E(UPBE1PBE) =  -3033.14897542     A.U. after    1 cycles
 Normal termination of Gaussian 16 at Tue Feb 11 20:13:12 2020.

 -----------------------------------------
 #t pop=none jul-cc-pvdz guess=read ub3lyp
 -----------------------------------------
 -------------------------
 theory_abbreviation b3lyp
 -------------------------
 Symbolic Z-matrix:
 Charge =  0 Multiplicity = 6

 SCF Done:  E(UB3LYP) =  -3034.32583183     A.U. after   15 cycles
 Normal termination of Gaussian 16 at Tue Feb 11 20:32:29 2020.

 -------------------------------------------------------------------
 #t pop=none jul-cc-pvdz guess=read ub3lyp empiricaldispersion=gd3bj
 -------------------------------------------------------------------
 ------------------------------
 theory_abbreviation b3lyp_d3bj
 ------------------------------
 Symbolic Z-matrix:
 Charge =  0 Multiplicity = 6

 SCF Done:  E(UB3LYP) =  -3034.39316930     A.U. after    1 cycles
 Normal termination of Gaussian 16 at Tue Feb 11 20:33:56 2020.

 ----------------------------------------
 #t pop=none jul-cc-pvdz guess=read ub97d
 ----------------------------------------
 ------------------------
 theory_abbreviation b97d
 ------------------------
 Symbolic Z-matrix:
 Charge =  0 Multiplicity = 6

 SCF Done:  E(UB97D) =  -3034.57805048     A.U. after   16 cycles

 ----------------------------------------------------------------
 #t pop=none jul-cc-pvdz guess=read ub97d empiricaldispersion=gd3
 ----------------------------------------------------------------
 -------------------------
 theory_abbreviation b97d3
 -------------------------
 Symbolic Z-matrix:
 Charge =  0 Multiplicity = 6

 SCF Done:  E(UB97D) =  -3034.57835240     A.U. after    1 cycles
 SCF Done:  E(UBHandHLYP) =  -3033.96632947     A.U. after   17 cycles
 SCF Done:  E(UBHandH) =  -3026.31404340     A.U. after   16 cycles
 SCF Done:  E(ULC-wPBE) =  -3033.45136386     A.U. after   18 cycles
 SCF Done:  E(UB-P86) =  -3034.63111753     A.U. after   17 cycles
 SCF Done:  E(UmPW1LYP) =  -3034.04356474     A.U. after   15 cycles
 SCF Done:  E(UmPW1PBE) =  -3033.88736004     A.U. after   15 cycles
 SCF Done:  E(UmPW3PBE) =  -3033.65996192     A.U. after   15 cycles
 SCF Done:  E(UM11) =  -3033.80795326     A.U. after   19 cycles
 SCF Done:  E(UN12SX) =  -3033.25253827     A.U. after   17 cycles
 SCF Done:  E(UMN12SX) =  -3033.64795651     A.U. after   16 cycles
 SCF Done:  E(UB1B95) =  -3034.37983212     A.U. after   16 cycles
 Normal termination of Gaussian 16 at Wed Feb 12 06:58:57 2020.
 SCF Done:  E(UB3PW91) =  -3033.97539993     A.U. after   15 cycles
 Normal termination of Gaussian 16 at Wed Feb 12 07:14:25 2020.
 SCF Done:  E(UM06L) =  -3034.19183594     A.U. after   16 cycles
 Normal termination of Gaussian 16 at Wed Feb 12 07:31:54 2020.
 Gaussian 16:  ES64L-G16RevA.03 25-Dec-2016

                         Standard orientation:
 ---------------------------------------------------------------------
 Center     Atomic      Atomic             Coordinates (Angstroms)
 Number     Number       Type             X           Y           Z
 ---------------------------------------------------------------------
      1          8           0       -0.335873   -0.117243   -0.441222
      2          6           0       -1.216938   -1.089000   -0.273413
      3          6           0       -2.586359   -0.377992    0.747201
      4          6           0       -2.925414    0.723909   -0.054886
      5          6           0       -3.974436    0.627802   -1.106715
      6         26           0        1.489651    0.173994   -0.084033
      7         17           0        1.790054    2.204507   -0.877630
      8          6           0       -2.170806    1.979454    0.040866
      9         17           0        2.541858   -1.452220   -1.126207
     10         17           0        1.766430    0.090793    2.109529
     11          1           0       -3.309644   -1.193163    0.696478
     12          1           0       -2.594005    2.790419   -0.554271
     13          1           0       -1.994588    2.299917    1.071359
     14          1           0       -1.164533    1.721687   -0.357272
     15          1           0       -4.802598    1.289137   -0.810591
     16          1           0       -3.609645    1.013910   -2.066669
     17          1           0       -4.368833   -0.381223   -1.234189
     18          6           0       -2.022736   -0.116718    2.140204
     19          1           0       -2.677543    0.570395    2.687080
     20          1           0       -1.967854   -1.044132    2.711966
     21          1           0       -1.020515    0.315946    2.104061
     22          6           0       -0.746088   -2.246892    0.610598
     23          1           0       -1.557672   -2.938734    0.851839
     24          1           0        0.011097   -2.784138    0.027339
     25          1           0       -0.267414   -1.895303    1.523860
     26          6           0       -1.799683   -1.586968   -1.593443
     27          1           0       -1.012023   -2.165512   -2.087927
     28          1           0       -2.666961   -2.238750   -1.451132
     29          1           0       -2.058252   -0.760287   -2.256560
 ---------------------------------------------------------------------

 SCF Done:  E(UB97D3) =  -3034.61261439     A.U. after   16 cycles
 Normal termination of Gaussian 16 at Wed Feb 12 07:45:23 2020.
