 Gaussian 16, Revision A.03,

 --------------------------------
 #t pop=none jul-cc-pvdz upbe1pbe
 --------------------------------
 ------------------------
 theory_abbreviation pbe0
 ------------------------
 Symbolic Z-matrix:
 Charge =  0 Multiplicity = 6

 SCF Done:  E(UPBE1PBE) =  -3033.10428829     A.U. after   21 cycles
 Normal termination of Gaussian 16 at Tue Feb 11 14:46:04 2020.

 ---------------------------------------------------------------------
 #t pop=none jul-cc-pvdz guess=read upbe1pbe empiricaldispersion=gd3bj
 ---------------------------------------------------------------------
 -----------------------------
 theory_abbreviation pbe0_d3bj
 -----------------------------
 Symbolic Z-matrix:
 Charge =  0 Multiplicity = 6

 SCF Done:  E(UPBE1PBE) =  -3033.14130347     A.U. after    1 cycles
 Normal termination of Gaussian 16 at Tue Feb 11 14:47:15 2020.

 -----------------------------------------
 #t pop=none jul-cc-pvdz guess=read ub3lyp
 -----------------------------------------
 -------------------------
 theory_abbreviation b3lyp
 -------------------------
 Symbolic Z-matrix:
 Charge =  0 Multiplicity = 6

 SCF Done:  E(UB3LYP) =  -3034.31728969     A.U. after   13 cycles
 Normal termination of Gaussian 16 at Tue Feb 11 15:00:54 2020.

 -------------------------------------------------------------------
 #t pop=none jul-cc-pvdz guess=read ub3lyp empiricaldispersion=gd3bj
 -------------------------------------------------------------------
 ------------------------------
 theory_abbreviation b3lyp_d3bj
 ------------------------------
 Symbolic Z-matrix:
 Charge =  0 Multiplicity = 6

 SCF Done:  E(UB3LYP) =  -3034.38618483     A.U. after    1 cycles
 Normal termination of Gaussian 16 at Tue Feb 11 15:02:04 2020.

 ----------------------------------------
 #t pop=none jul-cc-pvdz guess=read ub97d
 ----------------------------------------
 ------------------------
 theory_abbreviation b97d
 ------------------------
 Symbolic Z-matrix:
 Charge =  0 Multiplicity = 6

 SCF Done:  E(UB97D) =  -3034.56749607     A.U. after   15 cycles

 ----------------------------------------------------------------
 #t pop=none jul-cc-pvdz guess=read ub97d empiricaldispersion=gd3
 ----------------------------------------------------------------
 -------------------------
 theory_abbreviation b97d3
 -------------------------
 Symbolic Z-matrix:
 Charge =  0 Multiplicity = 6

 SCF Done:  E(UB97D) =  -3034.56844153     A.U. after    3 cycles
 SCF Done:  E(UBHandHLYP) =  -3033.96152723     A.U. after   15 cycles
 SCF Done:  E(UBHandH) =  -3026.30790918     A.U. after   13 cycles
 SCF Done:  E(ULC-wPBE) =  -3033.44772052     A.U. after   17 cycles
 SCF Done:  E(UB-P86) =  -3034.62227641     A.U. after   16 cycles
 SCF Done:  E(UmPW1LYP) =  -3034.03589003     A.U. after   14 cycles
 SCF Done:  E(UmPW1PBE) =  -3033.87873476     A.U. after   14 cycles
 SCF Done:  E(UmPW3PBE) =  -3033.65080386     A.U. after   13 cycles
 SCF Done:  E(UM11) =  -3033.80084339     A.U. after   16 cycles
 SCF Done:  E(UN12SX) =  -3033.24450003     A.U. after   15 cycles
 SCF Done:  E(UMN12SX) =  -3033.64171191     A.U. after   16 cycles
 SCF Done:  E(UB1B95) =  -3034.37061367     A.U. after   14 cycles
 Normal termination of Gaussian 16 at Tue Feb 11 22:59:41 2020.
 SCF Done:  E(UB3PW91) =  -3033.96616764     A.U. after   13 cycles
 Normal termination of Gaussian 16 at Tue Feb 11 23:12:48 2020.
 SCF Done:  E(UM06L) =  -3034.18189954     A.U. after   18 cycles
 Normal termination of Gaussian 16 at Tue Feb 11 23:32:20 2020.
 Gaussian 16:  ES64L-G16RevA.03 25-Dec-2016

                         Standard orientation:
 ---------------------------------------------------------------------
 Center     Atomic      Atomic             Coordinates (Angstroms)
 Number     Number       Type             X           Y           Z
 ---------------------------------------------------------------------
      1          8           0       -0.334722   -0.252788   -0.600718
      2          6           0       -1.380057   -1.171891   -0.447915
      3          6           0       -2.813153   -0.134249   -0.116957
      4          6           0       -2.079707    1.121870   -0.243140
      5          6           0       -1.957294    1.798328   -1.550804
      6         26           0        1.381134    0.038612    0.028197
      7         17           0        1.760615    2.080153   -0.774817
      8          6           0       -1.571183    1.835717    0.944704
      9         17           0        2.669468   -1.584135   -0.699772
     10         17           0        1.255158    0.089139    2.253798
     11          1           0       -3.469317   -0.289776   -0.975433
     12          1           0       -2.434018    2.371581    1.376152
     13          1           0       -1.199273    1.156226    1.714822
     14          1           0       -0.796243    2.559999    0.688267
     15          1           0       -2.610825    2.686019   -1.512564
     16          1           0       -0.932130    2.158450   -1.691580
     17          1           0       -2.268975    1.171433   -2.386639
     18          6           0       -3.523403   -0.425202    1.196649
     19          1           0       -4.350361    0.276949    1.356370
     20          1           0       -3.948644   -1.431965    1.172644
     21          1           0       -2.857254   -0.365524    2.059809
     22          6           0       -1.154460   -2.125907    0.706475
     23          1           0       -1.989571   -2.819912    0.836039
     24          1           0       -0.255926   -2.709826    0.469234
     25          1           0       -0.958817   -1.599066    1.641710
     26          6           0       -1.644804   -1.882596   -1.762877
     27          1           0       -0.750307   -2.463805   -2.015810
     28          1           0       -2.501737   -2.560504   -1.692389
     29          1           0       -1.813042   -1.165965   -2.571341
 ---------------------------------------------------------------------

 SCF Done:  E(UB97D3) =  -3034.60331693     A.U. after   14 cycles
 Normal termination of Gaussian 16 at Tue Feb 11 23:43:29 2020.
