 Gaussian 16, Revision A.03,

 --------------------------------
 #t pop=none jul-cc-pvdz upbe1pbe
 --------------------------------
 ------------------------
 theory_abbreviation pbe0
 ------------------------
 Symbolic Z-matrix:
 Charge =  0 Multiplicity = 6

 SCF Done:  E(UPBE1PBE) =  -3033.10528164     A.U. after   21 cycles
 Normal termination of Gaussian 16 at Tue Feb 11 14:51:05 2020.

 ---------------------------------------------------------------------
 #t pop=none jul-cc-pvdz guess=read upbe1pbe empiricaldispersion=gd3bj
 ---------------------------------------------------------------------
 -----------------------------
 theory_abbreviation pbe0_d3bj
 -----------------------------
 Symbolic Z-matrix:
 Charge =  0 Multiplicity = 6

 SCF Done:  E(UPBE1PBE) =  -3033.14250835     A.U. after    1 cycles
 Normal termination of Gaussian 16 at Tue Feb 11 14:52:36 2020.

 -----------------------------------------
 #t pop=none jul-cc-pvdz guess=read ub3lyp
 -----------------------------------------
 -------------------------
 theory_abbreviation b3lyp
 -------------------------
 Symbolic Z-matrix:
 Charge =  0 Multiplicity = 6

 SCF Done:  E(UB3LYP) =  -3034.31690458     A.U. after   13 cycles
 Normal termination of Gaussian 16 at Tue Feb 11 15:10:05 2020.

 -------------------------------------------------------------------
 #t pop=none jul-cc-pvdz guess=read ub3lyp empiricaldispersion=gd3bj
 -------------------------------------------------------------------
 ------------------------------
 theory_abbreviation b3lyp_d3bj
 ------------------------------
 Symbolic Z-matrix:
 Charge =  0 Multiplicity = 6

 SCF Done:  E(UB3LYP) =  -3034.38627638     A.U. after    1 cycles
 Normal termination of Gaussian 16 at Tue Feb 11 15:11:34 2020.

 ----------------------------------------
 #t pop=none jul-cc-pvdz guess=read ub97d
 ----------------------------------------
 ------------------------
 theory_abbreviation b97d
 ------------------------
 Symbolic Z-matrix:
 Charge =  0 Multiplicity = 6

 SCF Done:  E(UB97D) =  -3034.56716555     A.U. after   16 cycles

 ----------------------------------------------------------------
 #t pop=none jul-cc-pvdz guess=read ub97d empiricaldispersion=gd3
 ----------------------------------------------------------------
 -------------------------
 theory_abbreviation b97d3
 -------------------------
 Symbolic Z-matrix:
 Charge =  0 Multiplicity = 6

 SCF Done:  E(UB97D) =  -3034.56771886     A.U. after    1 cycles
 SCF Done:  E(UBHandHLYP) =  -3033.96293936     A.U. after   17 cycles
 SCF Done:  E(UBHandH) =  -3026.31163156     A.U. after   13 cycles
 SCF Done:  E(ULC-wPBE) =  -3033.45006861     A.U. after   16 cycles
 SCF Done:  E(UB-P86) =  -3034.62133377     A.U. after   16 cycles
 SCF Done:  E(UmPW1LYP) =  -3034.03577129     A.U. after   13 cycles
 SCF Done:  E(UmPW1PBE) =  -3033.87954487     A.U. after   13 cycles
 SCF Done:  E(UmPW3PBE) =  -3033.65126487     A.U. after   13 cycles
 SCF Done:  E(UM11) =  -3033.80395171     A.U. after   16 cycles
 SCF Done:  E(UN12SX) =  -3033.24544819     A.U. after   15 cycles
 SCF Done:  E(UMN12SX) =  -3033.64374527     A.U. after   16 cycles
 SCF Done:  E(UB1B95) =  -3034.37217505     A.U. after   15 cycles
 Normal termination of Gaussian 16 at Wed Feb 12 01:24:49 2020.
 SCF Done:  E(UB3PW91) =  -3033.96648101     A.U. after   13 cycles
 Normal termination of Gaussian 16 at Wed Feb 12 01:42:25 2020.
 SCF Done:  E(UM06L) =  -3034.18377470     A.U. after   18 cycles
 Normal termination of Gaussian 16 at Wed Feb 12 02:06:14 2020.
 Gaussian 16:  ES64L-G16RevA.03 25-Dec-2016

                         Standard orientation:
 ---------------------------------------------------------------------
 Center     Atomic      Atomic             Coordinates (Angstroms)
 Number     Number       Type             X           Y           Z
 ---------------------------------------------------------------------
      1          8           0       -0.292571   -0.295297   -0.729145
      2          6           0       -1.330287   -1.177709   -0.513081
      3          6           0       -2.598142   -0.354062    0.264191
      4          6           0       -2.334946    1.016242   -0.130307
      5          6           0       -2.709503    1.525615   -1.461125
      6         26           0        1.366488    0.097098   -0.036122
      7         17           0        1.693149    2.170413   -0.762463
      8          6           0       -1.622715    1.941360    0.759186
      9         17           0        2.820309   -1.417377   -0.683960
     10         17           0        1.107723    0.099108    2.199560
     11          1           0       -3.495735   -0.725829   -0.237407
     12          1           0       -2.397114    2.375958    1.418393
     13          1           0       -0.910119    1.434493    1.415777
     14          1           0       -1.136128    2.754092    0.216105
     15          1           0       -3.006032    2.578963   -1.408349
     16          1           0       -1.768082    1.505650   -2.037889
     17          1           0       -3.463399    0.929728   -1.974892
     18          6           0       -2.669686   -0.599380    1.774528
     19          1           0       -3.442565    0.031456    2.227732
     20          1           0       -2.940178   -1.639408    1.966193
     21          1           0       -1.720268   -0.399764    2.275138
     22          6           0       -0.911219   -2.364687    0.353084
     23          1           0       -1.729193   -3.074485    0.509542
     24          1           0       -0.106637   -2.874796   -0.188619
     25          1           0       -0.509506   -2.046137    1.315456
     26          6           0       -1.860097   -1.670267   -1.864073
     27          1           0       -1.044677   -2.204580   -2.360941
     28          1           0       -2.708588   -2.352055   -1.744549
     29          1           0       -2.150434   -0.844580   -2.517108
 ---------------------------------------------------------------------

 SCF Done:  E(UB97D3) =  -3034.60241107     A.U. after   15 cycles
 Normal termination of Gaussian 16 at Wed Feb 12 02:20:42 2020.
