 Gaussian 16, Revision A.03,

 --------------------------------
 #t pop=none jul-cc-pvdz upbe1pbe
 --------------------------------
 ------------------------
 theory_abbreviation pbe0
 ------------------------
 Symbolic Z-matrix:
 Charge =  0 Multiplicity = 6

 SCF Done:  E(UPBE1PBE) =  -3033.12316465     A.U. after   21 cycles
 Normal termination of Gaussian 16 at Tue Feb 11 13:59:29 2020.

 ---------------------------------------------------------------------
 #t pop=none jul-cc-pvdz guess=read upbe1pbe empiricaldispersion=gd3bj
 ---------------------------------------------------------------------
 -----------------------------
 theory_abbreviation pbe0_d3bj
 -----------------------------
 Symbolic Z-matrix:
 Charge =  0 Multiplicity = 6

 SCF Done:  E(UPBE1PBE) =  -3033.15968307     A.U. after    1 cycles
 Normal termination of Gaussian 16 at Tue Feb 11 14:00:40 2020.

 -----------------------------------------
 #t pop=none jul-cc-pvdz guess=read ub3lyp
 -----------------------------------------
 -------------------------
 theory_abbreviation b3lyp
 -------------------------
 Symbolic Z-matrix:
 Charge =  0 Multiplicity = 6

 SCF Done:  E(UB3LYP) =  -3034.33982521     A.U. after   14 cycles
 Normal termination of Gaussian 16 at Tue Feb 11 14:15:20 2020.

 -------------------------------------------------------------------
 #t pop=none jul-cc-pvdz guess=read ub3lyp empiricaldispersion=gd3bj
 -------------------------------------------------------------------
 ------------------------------
 theory_abbreviation b3lyp_d3bj
 ------------------------------
 Symbolic Z-matrix:
 Charge =  0 Multiplicity = 6

 SCF Done:  E(UB3LYP) =  -3034.40780614     A.U. after    1 cycles
 Normal termination of Gaussian 16 at Tue Feb 11 14:16:30 2020.

 ----------------------------------------
 #t pop=none jul-cc-pvdz guess=read ub97d
 ----------------------------------------
 ------------------------
 theory_abbreviation b97d
 ------------------------
 Symbolic Z-matrix:
 Charge =  0 Multiplicity = 6

 SCF Done:  E(UB97D) =  -3034.59213596     A.U. after   15 cycles

 ----------------------------------------------------------------
 #t pop=none jul-cc-pvdz guess=read ub97d empiricaldispersion=gd3
 ----------------------------------------------------------------
 -------------------------
 theory_abbreviation b97d3
 -------------------------
 Symbolic Z-matrix:
 Charge =  0 Multiplicity = 6

 SCF Done:  E(UB97D) =  -3034.59348734     A.U. after    1 cycles
 SCF Done:  E(UBHandHLYP) =  -3033.97943363     A.U. after   18 cycles
 SCF Done:  E(UBHandH) =  -3026.32047468     A.U. after   16 cycles
 SCF Done:  E(ULC-wPBE) =  -3033.46135954     A.U. after   19 cycles
 SCF Done:  E(UB-P86) =  -3034.64297194     A.U. after   17 cycles
 SCF Done:  E(UmPW1LYP) =  -3034.05765160     A.U. after   16 cycles
 SCF Done:  E(UmPW1PBE) =  -3033.89780092     A.U. after   16 cycles
 SCF Done:  E(UmPW3PBE) =  -3033.67086631     A.U. after   13 cycles
 SCF Done:  E(UM11) =  -3033.81898243     A.U. after   19 cycles
 SCF Done:  E(UN12SX) =  -3033.26198379     A.U. after   17 cycles
 SCF Done:  E(UMN12SX) =  -3033.66061393     A.U. after   17 cycles
 SCF Done:  E(UB1B95) =  -3034.39200443     A.U. after   14 cycles
 Normal termination of Gaussian 16 at Tue Feb 11 23:02:33 2020.
 SCF Done:  E(UB3PW91) =  -3033.98678918     A.U. after   15 cycles
 Normal termination of Gaussian 16 at Tue Feb 11 23:18:04 2020.
 SCF Done:  E(UM06L) =  -3034.20523980     A.U. after   17 cycles
 Normal termination of Gaussian 16 at Tue Feb 11 23:36:46 2020.
 Gaussian 16:  ES64L-G16RevA.03 25-Dec-2016

                         Standard orientation:
 ---------------------------------------------------------------------
 Center     Atomic      Atomic             Coordinates (Angstroms)
 Number     Number       Type             X           Y           Z
 ---------------------------------------------------------------------
      1          8           0       -0.291467   -0.244670   -0.574750
      2          6           0       -1.105727   -1.201566   -0.359003
      3          6           0       -2.756713   -0.252529    0.839360
      4          6           0       -2.973929    0.737738   -0.075439
      5          6           0       -3.965713    0.589201   -1.188686
      6         26           0        1.524389    0.183546   -0.078823
      7         17           0        1.864575    2.108193   -1.053489
      8          6           0       -2.192622    2.009478   -0.051133
      9         17           0        2.622209   -1.533565   -0.888272
     10         17           0        1.662848    0.296595    2.112605
     11          1           0       -3.409105   -1.123070    0.784628
     12          1           0       -2.698423    2.809831   -0.598201
     13          1           0       -1.966157    2.351206    0.961747
     14          1           0       -1.226473    1.827103   -0.549603
     15          1           0       -4.772046    1.320960   -1.042730
     16          1           0       -3.515140    0.822836   -2.161939
     17          1           0       -4.415488   -0.405556   -1.228058
     18          6           0       -2.085541    0.004022    2.169921
     19          1           0       -2.667499    0.734040    2.746061
     20          1           0       -2.027235   -0.907261    2.768192
     21          1           0       -1.073367    0.402454    2.065629
     22          6           0       -0.757275   -2.223555    0.696783
     23          1           0       -1.611407   -2.838711    0.985812
     24          1           0       -0.004283   -2.874062    0.229086
     25          1           0       -0.294175   -1.770041    1.572008
     26          6           0       -1.854545   -1.722670   -1.560709
     27          1           0       -1.169289   -2.419379   -2.062590
     28          1           0       -2.757701   -2.272891   -1.289855
     29          1           0       -2.085943   -0.923788   -2.263725
 ---------------------------------------------------------------------

 SCF Done:  E(UB97D3) =  -3034.62875829     A.U. after   15 cycles
 Normal termination of Gaussian 16 at Tue Feb 11 23:48:38 2020.
