 Gaussian 16, Revision A.03,

 --------------------------------
 #t pop=none jul-cc-pvdz upbe1pbe
 --------------------------------
 ------------------------
 theory_abbreviation pbe0
 ------------------------
 Symbolic Z-matrix:
 Charge =  0 Multiplicity = 6

 SCF Done:  E(UPBE1PBE) =  -3033.10766363     A.U. after   21 cycles
 Normal termination of Gaussian 16 at Tue Feb 11 13:57:11 2020.

 ---------------------------------------------------------------------
 #t pop=none jul-cc-pvdz guess=read upbe1pbe empiricaldispersion=gd3bj
 ---------------------------------------------------------------------
 -----------------------------
 theory_abbreviation pbe0_d3bj
 -----------------------------
 Symbolic Z-matrix:
 Charge =  0 Multiplicity = 6

 SCF Done:  E(UPBE1PBE) =  -3033.14423526     A.U. after    1 cycles
 Normal termination of Gaussian 16 at Tue Feb 11 13:58:20 2020.

 -----------------------------------------
 #t pop=none jul-cc-pvdz guess=read ub3lyp
 -----------------------------------------
 -------------------------
 theory_abbreviation b3lyp
 -------------------------
 Symbolic Z-matrix:
 Charge =  0 Multiplicity = 6

 SCF Done:  E(UB3LYP) =  -3034.31925436     A.U. after   15 cycles
 Normal termination of Gaussian 16 at Tue Feb 11 14:13:45 2020.

 -------------------------------------------------------------------
 #t pop=none jul-cc-pvdz guess=read ub3lyp empiricaldispersion=gd3bj
 -------------------------------------------------------------------
 ------------------------------
 theory_abbreviation b3lyp_d3bj
 ------------------------------
 Symbolic Z-matrix:
 Charge =  0 Multiplicity = 6

 SCF Done:  E(UB3LYP) =  -3034.38766534     A.U. after    1 cycles
 Normal termination of Gaussian 16 at Tue Feb 11 14:14:54 2020.

 ----------------------------------------
 #t pop=none jul-cc-pvdz guess=read ub97d
 ----------------------------------------
 ------------------------
 theory_abbreviation b97d
 ------------------------
 Symbolic Z-matrix:
 Charge =  0 Multiplicity = 6

 SCF Done:  E(UB97D) =  -3034.57285730     A.U. after   17 cycles

 ----------------------------------------------------------------
 #t pop=none jul-cc-pvdz guess=read ub97d empiricaldispersion=gd3
 ----------------------------------------------------------------
 -------------------------
 theory_abbreviation b97d3
 -------------------------
 Symbolic Z-matrix:
 Charge =  0 Multiplicity = 6

 SCF Done:  E(UB97D) =  -3034.57327883     A.U. after    3 cycles
 SCF Done:  E(UBHandHLYP) =  -3033.96103717     A.U. after   17 cycles
 SCF Done:  E(UBHandH) =  -3026.31066850     A.U. after   14 cycles
 SCF Done:  E(ULC-wPBE) =  -3033.44855698     A.U. after   17 cycles
 SCF Done:  E(UB-P86) =  -3034.62690218     A.U. after   18 cycles
 SCF Done:  E(UmPW1LYP) =  -3034.03705469     A.U. after   15 cycles
 SCF Done:  E(UmPW1PBE) =  -3033.88201731     A.U. after   15 cycles
 SCF Done:  E(UmPW3PBE) =  -3033.65440945     A.U. after   14 cycles
 SCF Done:  E(UM11) =  -3033.80278354     A.U. after   18 cycles
 SCF Done:  E(UN12SX) =  -3033.24759763     A.U. after   17 cycles
 SCF Done:  E(UMN12SX) =  -3033.64403222     A.U. after   17 cycles
 SCF Done:  E(UB1B95) =  -3034.37482195     A.U. after   16 cycles
 Normal termination of Gaussian 16 at Tue Feb 11 22:57:15 2020.
 SCF Done:  E(UB3PW91) =  -3033.96970645     A.U. after   15 cycles
 Normal termination of Gaussian 16 at Tue Feb 11 23:12:46 2020.
 SCF Done:  E(UM06L) =  -3034.18735543     A.U. after   18 cycles
 Normal termination of Gaussian 16 at Tue Feb 11 23:32:43 2020.
 Gaussian 16:  ES64L-G16RevA.03 25-Dec-2016

                         Standard orientation:
 ---------------------------------------------------------------------
 Center     Atomic      Atomic             Coordinates (Angstroms)
 Number     Number       Type             X           Y           Z
 ---------------------------------------------------------------------
      1          8           0       -0.233417   -0.386630   -0.633362
      2          6           0       -1.312138   -1.141829   -0.292867
      3          6           0       -2.293433   -0.332702    0.758265
      4          6           0       -2.958159    0.701226   -0.007003
      5          6           0       -4.346434    0.533700   -0.490255
      6         26           0        1.482198    0.123807   -0.097851
      7         17           0        2.822162   -0.325578   -1.775424
      8          6           0       -2.180126    1.858310   -0.433554
      9         17           0        2.061359   -0.924117    1.760458
     10         17           0        1.269950    2.310810    0.294974
     11          1           0       -3.022643   -1.082335    1.078979
     12          1           0       -2.710391    2.547087   -1.091944
     13          1           0       -1.708630    2.391015    0.400839
     14          1           0       -1.284954    1.414906   -0.934600
     15          1           0       -4.971630    1.238537    0.083273
     16          1           0       -4.444832    0.834496   -1.539936
     17          1           0       -4.738813   -0.472850   -0.337490
     18          6           0       -1.479725    0.184280    1.958581
     19          1           0       -2.136234    0.727039    2.646018
     20          1           0       -1.035539   -0.648482    2.503496
     21          1           0       -0.674143    0.849664    1.649620
     22          6           0       -0.911727   -2.431017    0.455592
     23          1           0       -1.791283   -3.013553    0.746285
     24          1           0       -0.308789   -3.027766   -0.235656
     25          1           0       -0.296567   -2.223464    1.330097
     26          6           0       -2.083219   -1.514537   -1.572204
     27          1           0       -1.444789   -2.163465   -2.177440
     28          1           0       -3.013515   -2.050634   -1.354000
     29          1           0       -2.306278   -0.629676   -2.175993
 ---------------------------------------------------------------------

 SCF Done:  E(UB97D3) =  -3034.60729715     A.U. after   17 cycles
 Normal termination of Gaussian 16 at Tue Feb 11 23:46:22 2020.
