 Gaussian 16, Revision A.03,

 --------------------------------
 #t pop=none jul-cc-pvdz upbe1pbe
 --------------------------------
 ------------------------
 theory_abbreviation pbe0
 ------------------------
 Symbolic Z-matrix:
 Charge =  0 Multiplicity = 6

 SCF Done:  E(UPBE1PBE) =  -3033.12289008     A.U. after   20 cycles
 Normal termination of Gaussian 16 at Tue Feb 11 13:58:40 2020.

 ---------------------------------------------------------------------
 #t pop=none jul-cc-pvdz guess=read upbe1pbe empiricaldispersion=gd3bj
 ---------------------------------------------------------------------
 -----------------------------
 theory_abbreviation pbe0_d3bj
 -----------------------------
 Symbolic Z-matrix:
 Charge =  0 Multiplicity = 6

 SCF Done:  E(UPBE1PBE) =  -3033.16038652     A.U. after    1 cycles
 Normal termination of Gaussian 16 at Tue Feb 11 13:59:51 2020.

 -----------------------------------------
 #t pop=none jul-cc-pvdz guess=read ub3lyp
 -----------------------------------------
 -------------------------
 theory_abbreviation b3lyp
 -------------------------
 Symbolic Z-matrix:
 Charge =  0 Multiplicity = 6

 SCF Done:  E(UB3LYP) =  -3034.33885080     A.U. after   13 cycles
 Normal termination of Gaussian 16 at Tue Feb 11 14:13:38 2020.

 -------------------------------------------------------------------
 #t pop=none jul-cc-pvdz guess=read ub3lyp empiricaldispersion=gd3bj
 -------------------------------------------------------------------
 ------------------------------
 theory_abbreviation b3lyp_d3bj
 ------------------------------
 Symbolic Z-matrix:
 Charge =  0 Multiplicity = 6

 SCF Done:  E(UB3LYP) =  -3034.40865201     A.U. after    1 cycles
 Normal termination of Gaussian 16 at Tue Feb 11 14:14:49 2020.

 ----------------------------------------
 #t pop=none jul-cc-pvdz guess=read ub97d
 ----------------------------------------
 ------------------------
 theory_abbreviation b97d
 ------------------------
 Symbolic Z-matrix:
 Charge =  0 Multiplicity = 6

 SCF Done:  E(UB97D) =  -3034.59260485     A.U. after   15 cycles

 ----------------------------------------------------------------
 #t pop=none jul-cc-pvdz guess=read ub97d empiricaldispersion=gd3
 ----------------------------------------------------------------
 -------------------------
 theory_abbreviation b97d3
 -------------------------
 Symbolic Z-matrix:
 Charge =  0 Multiplicity = 6

 SCF Done:  E(UB97D) =  -3034.59371914     A.U. after    1 cycles
 SCF Done:  E(UBHandHLYP) =  -3033.97966277     A.U. after   18 cycles
 SCF Done:  E(UBHandH) =  -3026.32221114     A.U. after   16 cycles
 SCF Done:  E(ULC-wPBE) =  -3033.46290635     A.U. after   19 cycles
 SCF Done:  E(UB-P86) =  -3034.64354068     A.U. after   16 cycles
 SCF Done:  E(UmPW1LYP) =  -3034.05697642     A.U. after   14 cycles
 SCF Done:  E(UmPW1PBE) =  -3033.89728488     A.U. after   14 cycles
 SCF Done:  E(UmPW3PBE) =  -3033.67019150     A.U. after   13 cycles
 SCF Done:  E(UM11) =  -3033.82066368     A.U. after   19 cycles
 SCF Done:  E(UN12SX) =  -3033.26192856     A.U. after   17 cycles
 SCF Done:  E(UMN12SX) =  -3033.66246624     A.U. after   16 cycles
 SCF Done:  E(UB1B95) =  -3034.39259568     A.U. after   14 cycles
 Normal termination of Gaussian 16 at Tue Feb 11 22:54:45 2020.
 SCF Done:  E(UB3PW91) =  -3033.98593559     A.U. after   15 cycles
 Normal termination of Gaussian 16 at Tue Feb 11 23:10:23 2020.
 SCF Done:  E(UM06L) =  -3034.20719925     A.U. after   17 cycles
 Normal termination of Gaussian 16 at Tue Feb 11 23:29:15 2020.
 Gaussian 16:  ES64L-G16RevA.03 25-Dec-2016

                         Standard orientation:
 ---------------------------------------------------------------------
 Center     Atomic      Atomic             Coordinates (Angstroms)
 Number     Number       Type             X           Y           Z
 ---------------------------------------------------------------------
      1          8           0       -0.267968   -0.250557   -0.804910
      2          6           0       -1.129778   -1.173804   -0.636523
      3          6           0       -2.881571   -0.227948    0.515249
      4          6           0       -2.584450    0.946622   -0.104446
      5          6           0       -3.134753    1.292745   -1.455323
      6         26           0        1.450266    0.138047   -0.006166
      7         17           0        2.036288    2.043339   -0.897453
      8          6           0       -1.676554    1.979043    0.480141
      9         17           0        2.654661   -1.599182   -0.582596
     10         17           0        1.156087    0.254963    2.176659
     11          1           0       -3.624864   -0.861807    0.034556
     12          1           0       -2.224692    2.922925    0.600313
     13          1           0       -1.250835    1.700233    1.442704
     14          1           0       -0.853382    2.188197   -0.215402
     15          1           0       -3.663517    2.252644   -1.396980
     16          1           0       -2.319423    1.434199   -2.177259
     17          1           0       -3.832746    0.543489   -1.835663
     18          6           0       -2.664834   -0.491632    1.987164
     19          1           0       -3.426528    0.043804    2.568488
     20          1           0       -2.772691   -1.552950    2.222726
     21          1           0       -1.686584   -0.162839    2.344583
     22          6           0       -0.870855   -2.239011    0.395658
     23          1           0       -1.742674   -2.870474    0.571893
     24          1           0       -0.070480   -2.861358   -0.030295
     25          1           0       -0.496503   -1.828064    1.332438
     26          6           0       -1.878057   -1.615003   -1.870403
     27          1           0       -1.197024   -2.300053   -2.394292
     28          1           0       -2.793669   -2.161520   -1.639087
     29          1           0       -2.082066   -0.782320   -2.540599
 ---------------------------------------------------------------------

 SCF Done:  E(UB97D3) =  -3034.62898615     A.U. after   16 cycles
 Normal termination of Gaussian 16 at Tue Feb 11 23:41:58 2020.
