 Gaussian 16, Revision A.03,

 --------------------------------
 #t pop=none jul-cc-pvdz upbe1pbe
 --------------------------------
 ------------------------
 theory_abbreviation pbe0
 ------------------------
 Symbolic Z-matrix:
 Charge =  0 Multiplicity = 6

 SCF Done:  E(UPBE1PBE) =  -3033.10346366     A.U. after   21 cycles
 Normal termination of Gaussian 16 at Tue Feb 11 13:59:46 2020.

 ---------------------------------------------------------------------
 #t pop=none jul-cc-pvdz guess=read upbe1pbe empiricaldispersion=gd3bj
 ---------------------------------------------------------------------
 -----------------------------
 theory_abbreviation pbe0_d3bj
 -----------------------------
 Symbolic Z-matrix:
 Charge =  0 Multiplicity = 6

 SCF Done:  E(UPBE1PBE) =  -3033.14067030     A.U. after    1 cycles
 Normal termination of Gaussian 16 at Tue Feb 11 14:00:59 2020.

 -----------------------------------------
 #t pop=none jul-cc-pvdz guess=read ub3lyp
 -----------------------------------------
 -------------------------
 theory_abbreviation b3lyp
 -------------------------
 Symbolic Z-matrix:
 Charge =  0 Multiplicity = 6

 SCF Done:  E(UB3LYP) =  -3034.31568184     A.U. after   14 cycles
 Normal termination of Gaussian 16 at Tue Feb 11 14:16:29 2020.

 -------------------------------------------------------------------
 #t pop=none jul-cc-pvdz guess=read ub3lyp empiricaldispersion=gd3bj
 -------------------------------------------------------------------
 ------------------------------
 theory_abbreviation b3lyp_d3bj
 ------------------------------
 Symbolic Z-matrix:
 Charge =  0 Multiplicity = 6

 SCF Done:  E(UB3LYP) =  -3034.38500600     A.U. after    1 cycles
 Normal termination of Gaussian 16 at Tue Feb 11 14:17:43 2020.

 ----------------------------------------
 #t pop=none jul-cc-pvdz guess=read ub97d
 ----------------------------------------
 ------------------------
 theory_abbreviation b97d
 ------------------------
 Symbolic Z-matrix:
 Charge =  0 Multiplicity = 6

 SCF Done:  E(UB97D) =  -3034.56719586     A.U. after   15 cycles

 ----------------------------------------------------------------
 #t pop=none jul-cc-pvdz guess=read ub97d empiricaldispersion=gd3
 ----------------------------------------------------------------
 -------------------------
 theory_abbreviation b97d3
 -------------------------
 Symbolic Z-matrix:
 Charge =  0 Multiplicity = 6

 SCF Done:  E(UB97D) =  -3034.56745641     A.U. after    1 cycles
 SCF Done:  E(UBHandHLYP) =  -3033.96000915     A.U. after   17 cycles
 SCF Done:  E(UBHandH) =  -3026.30821029     A.U. after   13 cycles
 SCF Done:  E(ULC-wPBE) =  -3033.44576353     A.U. after   18 cycles
 SCF Done:  E(UB-P86) =  -3034.62074922     A.U. after   15 cycles
 SCF Done:  E(UmPW1LYP) =  -3034.03426183     A.U. after   13 cycles
 SCF Done:  E(UmPW1PBE) =  -3033.87781469     A.U. after   14 cycles
 SCF Done:  E(UmPW3PBE) =  -3033.64981151     A.U. after   13 cycles
 SCF Done:  E(UM11) =  -3033.80140500     A.U. after   18 cycles
 SCF Done:  E(UN12SX) =  -3033.24361422     A.U. after   16 cycles
 SCF Done:  E(UMN12SX) =  -3033.64160217     A.U. after   16 cycles
 SCF Done:  E(UB1B95) =  -3034.37076685     A.U. after   16 cycles
 Normal termination of Gaussian 16 at Tue Feb 11 23:05:37 2020.
 SCF Done:  E(UB3PW91) =  -3033.96507724     A.U. after   13 cycles
 Normal termination of Gaussian 16 at Tue Feb 11 23:19:54 2020.
 SCF Done:  E(UM06L) =  -3034.18266873     A.U. after   18 cycles
 Normal termination of Gaussian 16 at Tue Feb 11 23:40:54 2020.
 Gaussian 16:  ES64L-G16RevA.03 25-Dec-2016

                         Standard orientation:
 ---------------------------------------------------------------------
 Center     Atomic      Atomic             Coordinates (Angstroms)
 Number     Number       Type             X           Y           Z
 ---------------------------------------------------------------------
      1          8           0       -0.336927   -0.161918   -0.658671
      2          6           0       -1.307829   -1.100039   -0.538138
      3          6           0       -2.777611   -0.251049    0.197698
      4          6           0       -2.297873    1.034049   -0.161868
      5          6           0       -2.532542    1.611107   -1.507474
      6         26           0        1.382061    0.085223    0.005792
      7         17           0        1.865464    2.117791   -0.719654
      8          6           0       -1.558967    1.888988    0.790032
      9         17           0        2.641050   -1.553604   -0.746625
     10         17           0        1.185670    0.033296    2.232447
     11          1           0       -3.585425   -0.605296   -0.442162
     12          1           0       -2.323436    2.497314    1.304340
     13          1           0       -1.023649    1.325308    1.554314
     14          1           0       -0.871291    2.567822    0.279809
     15          1           0       -2.897441    2.640114   -1.394270
     16          1           0       -1.559833    1.684410   -2.012148
     17          1           0       -3.233286    1.039623   -2.116228
     18          6           0       -2.984838   -0.581402    1.668081
     19          1           0       -3.799156    0.026753    2.079213
     20          1           0       -3.266392   -1.630047    1.784923
     21          1           0       -2.091904   -0.403913    2.270857
     22          6           0       -0.967960   -2.243614    0.401064
     23          1           0       -1.787615   -2.960435    0.496049
     24          1           0       -0.107869   -2.756830   -0.048305
     25          1           0       -0.658631   -1.891553    1.385123
     26          6           0       -1.775525   -1.595579   -1.900727
     27          1           0       -0.925900   -2.121820   -2.350801
     28          1           0       -2.616986   -2.289774   -1.819688
     29          1           0       -2.037610   -0.774102   -2.569117
 ---------------------------------------------------------------------

 SCF Done:  E(UB97D3) =  -3034.60212410     A.U. after   14 cycles
 Normal termination of Gaussian 16 at Tue Feb 11 23:52:49 2020.
