 Gaussian 16, Revision A.03,

 --------------------------------
 #t pop=none jul-cc-pvdz upbe1pbe
 --------------------------------
 ------------------------
 theory_abbreviation pbe0
 ------------------------
 Symbolic Z-matrix:
 Charge =  0 Multiplicity = 6

 SCF Done:  E(UPBE1PBE) =  -3033.12886668     A.U. after   21 cycles
 Normal termination of Gaussian 16 at Tue Feb 11 13:58:30 2020.

 ---------------------------------------------------------------------
 #t pop=none jul-cc-pvdz guess=read upbe1pbe empiricaldispersion=gd3bj
 ---------------------------------------------------------------------
 -----------------------------
 theory_abbreviation pbe0_d3bj
 -----------------------------
 Symbolic Z-matrix:
 Charge =  0 Multiplicity = 6

 SCF Done:  E(UPBE1PBE) =  -3033.16594598     A.U. after    1 cycles
 Normal termination of Gaussian 16 at Tue Feb 11 13:59:41 2020.

 -----------------------------------------
 #t pop=none jul-cc-pvdz guess=read ub3lyp
 -----------------------------------------
 -------------------------
 theory_abbreviation b3lyp
 -------------------------
 Symbolic Z-matrix:
 Charge =  0 Multiplicity = 6

 SCF Done:  E(UB3LYP) =  -3034.34592550     A.U. after   13 cycles
 Normal termination of Gaussian 16 at Tue Feb 11 14:12:47 2020.

 -------------------------------------------------------------------
 #t pop=none jul-cc-pvdz guess=read ub3lyp empiricaldispersion=gd3bj
 -------------------------------------------------------------------
 ------------------------------
 theory_abbreviation b3lyp_d3bj
 ------------------------------
 Symbolic Z-matrix:
 Charge =  0 Multiplicity = 6

 SCF Done:  E(UB3LYP) =  -3034.41481388     A.U. after    1 cycles
 Normal termination of Gaussian 16 at Tue Feb 11 14:14:06 2020.

 ----------------------------------------
 #t pop=none jul-cc-pvdz guess=read ub97d
 ----------------------------------------
 ------------------------
 theory_abbreviation b97d
 ------------------------
 Symbolic Z-matrix:
 Charge =  0 Multiplicity = 6

 SCF Done:  E(UB97D) =  -3034.59868244     A.U. after   15 cycles

 ----------------------------------------------------------------
 #t pop=none jul-cc-pvdz guess=read ub97d empiricaldispersion=gd3
 ----------------------------------------------------------------
 -------------------------
 theory_abbreviation b97d3
 -------------------------
 Symbolic Z-matrix:
 Charge =  0 Multiplicity = 6

 SCF Done:  E(UB97D) =  -3034.59983625     A.U. after    1 cycles
 SCF Done:  E(UBHandHLYP) =  -3033.98699749     A.U. after   18 cycles
 SCF Done:  E(UBHandH) =  -3026.32696229     A.U. after   14 cycles
 SCF Done:  E(ULC-wPBE) =  -3033.46918995     A.U. after   19 cycles
 SCF Done:  E(UB-P86) =  -3034.64863785     A.U. after   16 cycles
 SCF Done:  E(UmPW1LYP) =  -3034.06412955     A.U. after   13 cycles
 SCF Done:  E(UmPW1PBE) =  -3033.90329044     A.U. after   14 cycles
 SCF Done:  E(UmPW3PBE) =  -3033.67626807     A.U. after   13 cycles
 SCF Done:  E(UM11) =  -3033.82673830     A.U. after   17 cycles
 SCF Done:  E(UN12SX) =  -3033.26773056     A.U. after   17 cycles
 SCF Done:  E(UMN12SX) =  -3033.66908883     A.U. after   16 cycles
 SCF Done:  E(UB1B95) =  -3034.39888659     A.U. after   14 cycles
 Normal termination of Gaussian 16 at Tue Feb 11 22:20:37 2020.
 SCF Done:  E(UB3PW91) =  -3033.99220743     A.U. after   13 cycles
 Normal termination of Gaussian 16 at Tue Feb 11 22:33:22 2020.
 SCF Done:  E(UM06L) =  -3034.21417694     A.U. after   17 cycles
 Normal termination of Gaussian 16 at Tue Feb 11 22:53:28 2020.
 Gaussian 16:  ES64L-G16RevA.03 25-Dec-2016

                         Standard orientation:
 ---------------------------------------------------------------------
 Center     Atomic      Atomic             Coordinates (Angstroms)
 Number     Number       Type             X           Y           Z
 ---------------------------------------------------------------------
      1          8           0       -0.232823   -0.307163   -0.840276
      2          6           0       -1.070137   -1.236962   -0.658106
      3          6           0       -2.938725   -0.203382    0.542979
      4          6           0       -2.634380    0.938967   -0.119391
      5          6           0       -3.186579    1.233923   -1.484182
      6         26           0        1.468127    0.150654   -0.002333
      7         17           0        2.044574    2.028127   -0.946705
      8          6           0       -1.721838    1.994702    0.422454
      9         17           0        2.694115   -1.592249   -0.504802
     10         17           0        1.128301    0.325919    2.164667
     11          1           0       -3.665435   -0.867010    0.075989
     12          1           0       -2.257765    2.950425    0.492247
     13          1           0       -1.307642    1.759117    1.401916
     14          1           0       -0.888254    2.161249   -0.272742
     15          1           0       -3.734437    2.184762   -1.461936
     16          1           0       -2.374181    1.364474   -2.211717
     17          1           0       -3.870177    0.459278   -1.840707
     18          6           0       -2.690594   -0.448645    2.011245
     19          1           0       -3.458395    0.065526    2.604372
     20          1           0       -2.760932   -1.511147    2.257881
     21          1           0       -1.717454   -0.086387    2.350279
     22          6           0       -0.844776   -2.244857    0.431142
     23          1           0       -1.725911   -2.859444    0.618472
     24          1           0       -0.038251   -2.895429    0.061398
     25          1           0       -0.490916   -1.784500    1.353086
     26          6           0       -1.862042   -1.682961   -1.856698
     27          1           0       -1.219300   -2.404578   -2.381319
     28          1           0       -2.787085   -2.193387   -1.585609
     29          1           0       -2.056968   -0.857910   -2.539121
 ---------------------------------------------------------------------

 SCF Done:  E(UB97D3) =  -3034.63491531     A.U. after   16 cycles
 Normal termination of Gaussian 16 at Tue Feb 11 23:05:52 2020.
