 Gaussian 16, Revision A.03,

 --------------------------------
 #t pop=none jul-cc-pvdz upbe1pbe
 --------------------------------
 ------------------------
 theory_abbreviation pbe0
 ------------------------
 Symbolic Z-matrix:
 Charge =  0 Multiplicity = 6

 SCF Done:  E(UPBE1PBE) =  -3033.13181476     A.U. after   20 cycles
 Normal termination of Gaussian 16 at Tue Feb 11 14:47:07 2020.

 ---------------------------------------------------------------------
 #t pop=none jul-cc-pvdz guess=read upbe1pbe empiricaldispersion=gd3bj
 ---------------------------------------------------------------------
 -----------------------------
 theory_abbreviation pbe0_d3bj
 -----------------------------
 Symbolic Z-matrix:
 Charge =  0 Multiplicity = 6

 SCF Done:  E(UPBE1PBE) =  -3033.16861516     A.U. after    1 cycles
 Normal termination of Gaussian 16 at Tue Feb 11 14:48:18 2020.

 -----------------------------------------
 #t pop=none jul-cc-pvdz guess=read ub3lyp
 -----------------------------------------
 -------------------------
 theory_abbreviation b3lyp
 -------------------------
 Symbolic Z-matrix:
 Charge =  0 Multiplicity = 6

 SCF Done:  E(UB3LYP) =  -3034.34946250     A.U. after   13 cycles
 Normal termination of Gaussian 16 at Tue Feb 11 15:02:12 2020.

 -------------------------------------------------------------------
 #t pop=none jul-cc-pvdz guess=read ub3lyp empiricaldispersion=gd3bj
 -------------------------------------------------------------------
 ------------------------------
 theory_abbreviation b3lyp_d3bj
 ------------------------------
 Symbolic Z-matrix:
 Charge =  0 Multiplicity = 6

 SCF Done:  E(UB3LYP) =  -3034.41771139     A.U. after    1 cycles
 Normal termination of Gaussian 16 at Tue Feb 11 15:03:23 2020.

 ----------------------------------------
 #t pop=none jul-cc-pvdz guess=read ub97d
 ----------------------------------------
 ------------------------
 theory_abbreviation b97d
 ------------------------
 Symbolic Z-matrix:
 Charge =  0 Multiplicity = 6

 SCF Done:  E(UB97D) =  -3034.60047047     A.U. after   16 cycles

 ----------------------------------------------------------------
 #t pop=none jul-cc-pvdz guess=read ub97d empiricaldispersion=gd3
 ----------------------------------------------------------------
 -------------------------
 theory_abbreviation b97d3
 -------------------------
 Symbolic Z-matrix:
 Charge =  0 Multiplicity = 6

 SCF Done:  E(UB97D) =  -3034.60240920     A.U. after    1 cycles
 SCF Done:  E(UBHandHLYP) =  -3033.99147432     A.U. after   18 cycles
 SCF Done:  E(UBHandH) =  -3026.32954677     A.U. after   14 cycles
 SCF Done:  E(ULC-wPBE) =  -3033.47343742     A.U. after   17 cycles
 SCF Done:  E(UB-P86) =  -3034.65041185     A.U. after   17 cycles
 SCF Done:  E(UmPW1LYP) =  -3034.06779862     A.U. after   13 cycles
 SCF Done:  E(UmPW1PBE) =  -3033.90628489     A.U. after   14 cycles
 SCF Done:  E(UmPW3PBE) =  -3033.67918324     A.U. after   13 cycles
 SCF Done:  E(UM11) =  -3033.83083701     A.U. after   17 cycles
 SCF Done:  E(UN12SX) =  -3033.27063962     A.U. after   17 cycles
 SCF Done:  E(UMN12SX) =  -3033.67310142     A.U. after   16 cycles
 SCF Done:  E(UB1B95) =  -3034.40260081     A.U. after   14 cycles
 Normal termination of Gaussian 16 at Tue Feb 11 23:16:38 2020.
 SCF Done:  E(UB3PW91) =  -3033.99528767     A.U. after   15 cycles
 Normal termination of Gaussian 16 at Tue Feb 11 23:31:29 2020.
 SCF Done:  E(UM06L) =  -3034.21798203     A.U. after   17 cycles
 Normal termination of Gaussian 16 at Tue Feb 11 23:49:56 2020.
 Gaussian 16:  ES64L-G16RevA.03 25-Dec-2016

                         Standard orientation:
 ---------------------------------------------------------------------
 Center     Atomic      Atomic             Coordinates (Angstroms)
 Number     Number       Type             X           Y           Z
 ---------------------------------------------------------------------
      1          8           0        0.261764    0.295856   -0.791865
      2          6           0        1.030409    1.274949   -0.637418
      3          6           0        3.202838   -0.003161    0.330558
      4          6           0        2.501089   -1.006805   -0.234150
      5          6           0        2.681275   -1.374121   -1.681266
      6         26           0       -1.470760   -0.129928    0.046576
      7         17           0       -2.105359   -1.969343   -0.925859
      8          6           0        1.592962   -1.929142    0.526393
      9         17           0       -2.600107    1.670352   -0.487307
     10         17           0       -1.193324   -0.293996    2.216385
     11          1           0        3.902704    0.537709   -0.306762
     12          1           0        2.112210   -2.881929    0.700051
     13          1           0        1.278039   -1.540672    1.494865
     14          1           0        0.699232   -2.171072   -0.058580
     15          1           0        3.021881   -2.414757   -1.759786
     16          1           0        1.725270   -1.320098   -2.217003
     17          1           0        3.416983   -0.741864   -2.186837
     18          6           0        3.274910    0.335021    1.794350
     19          1           0        4.162125   -0.128894    2.246839
     20          1           0        3.372180    1.414257    1.955386
     21          1           0        2.404395   -0.013712    2.355949
     22          6           0        0.936386    2.142615    0.576995
     23          1           0        1.826506    2.757650    0.712565
     24          1           0        0.075061    2.807544    0.411878
     25          1           0        0.726681    1.557998    1.473318
     26          6           0        1.770654    1.792051   -1.832289
     27          1           0        1.124376    2.566346   -2.272560
     28          1           0        2.716863    2.262106   -1.560654
     29          1           0        1.917429    1.013015   -2.578481
 ---------------------------------------------------------------------

 SCF Done:  E(UB97D3) =  -3034.63707058     A.U. after   16 cycles
 Normal termination of Gaussian 16 at Wed Feb 12 00:03:27 2020.
