 Gaussian 16, Revision A.03,

 --------------------------------
 #t pop=none jul-cc-pvdz upbe1pbe
 --------------------------------
 ------------------------
 theory_abbreviation pbe0
 ------------------------
 Symbolic Z-matrix:
 Charge =  0 Multiplicity = 6

 SCF Done:  E(UPBE1PBE) =  -3033.12105598     A.U. after   19 cycles
 Normal termination of Gaussian 16 at Tue Feb 11 13:58:06 2020.

 ---------------------------------------------------------------------
 #t pop=none jul-cc-pvdz guess=read upbe1pbe empiricaldispersion=gd3bj
 ---------------------------------------------------------------------
 -----------------------------
 theory_abbreviation pbe0_d3bj
 -----------------------------
 Symbolic Z-matrix:
 Charge =  0 Multiplicity = 6

 SCF Done:  E(UPBE1PBE) =  -3033.15853381     A.U. after    1 cycles
 Normal termination of Gaussian 16 at Tue Feb 11 13:59:17 2020.

 -----------------------------------------
 #t pop=none jul-cc-pvdz guess=read ub3lyp
 -----------------------------------------
 -------------------------
 theory_abbreviation b3lyp
 -------------------------
 Symbolic Z-matrix:
 Charge =  0 Multiplicity = 6

 SCF Done:  E(UB3LYP) =  -3034.33727520     A.U. after   13 cycles
 Normal termination of Gaussian 16 at Tue Feb 11 14:13:05 2020.

 -------------------------------------------------------------------
 #t pop=none jul-cc-pvdz guess=read ub3lyp empiricaldispersion=gd3bj
 -------------------------------------------------------------------
 ------------------------------
 theory_abbreviation b3lyp_d3bj
 ------------------------------
 Symbolic Z-matrix:
 Charge =  0 Multiplicity = 6

 SCF Done:  E(UB3LYP) =  -3034.40697356     A.U. after    1 cycles
 Normal termination of Gaussian 16 at Tue Feb 11 14:14:17 2020.

 ----------------------------------------
 #t pop=none jul-cc-pvdz guess=read ub97d
 ----------------------------------------
 ------------------------
 theory_abbreviation b97d
 ------------------------
 Symbolic Z-matrix:
 Charge =  0 Multiplicity = 6

 SCF Done:  E(UB97D) =  -3034.58951691     A.U. after   15 cycles

 ----------------------------------------------------------------
 #t pop=none jul-cc-pvdz guess=read ub97d empiricaldispersion=gd3
 ----------------------------------------------------------------
 -------------------------
 theory_abbreviation b97d3
 -------------------------
 Symbolic Z-matrix:
 Charge =  0 Multiplicity = 6

 SCF Done:  E(UB97D) =  -3034.59157016     A.U. after    1 cycles
 SCF Done:  E(UBHandHLYP) =  -3033.97914422     A.U. after   15 cycles
 SCF Done:  E(UBHandH) =  -3026.32080269     A.U. after   15 cycles
 SCF Done:  E(ULC-wPBE) =  -3033.46234646     A.U. after   17 cycles
 SCF Done:  E(UB-P86) =  -3034.64108799     A.U. after   16 cycles
 SCF Done:  E(UmPW1LYP) =  -3034.05550771     A.U. after   14 cycles
 SCF Done:  E(UmPW1PBE) =  -3033.89554517     A.U. after   14 cycles
 SCF Done:  E(UmPW3PBE) =  -3033.66834170     A.U. after   13 cycles
 SCF Done:  E(UM11) =  -3033.81944207     A.U. after   16 cycles
 SCF Done:  E(UN12SX) =  -3033.25983346     A.U. after   17 cycles
 SCF Done:  E(UMN12SX) =  -3033.66168975     A.U. after   16 cycles
 SCF Done:  E(UB1B95) =  -3034.39170932     A.U. after   14 cycles
 Normal termination of Gaussian 16 at Tue Feb 11 22:32:14 2020.
 SCF Done:  E(UB3PW91) =  -3033.98418560     A.U. after   15 cycles
 Normal termination of Gaussian 16 at Tue Feb 11 22:48:02 2020.
 SCF Done:  E(UM06L) =  -3034.20663454     A.U. after   17 cycles
 Normal termination of Gaussian 16 at Tue Feb 11 23:08:35 2020.
 Gaussian 16:  ES64L-G16RevA.03 25-Dec-2016

                         Standard orientation:
 ---------------------------------------------------------------------
 Center     Atomic      Atomic             Coordinates (Angstroms)
 Number     Number       Type             X           Y           Z
 ---------------------------------------------------------------------
      1          8           0       -0.307630   -0.182105   -0.682168
      2          6           0       -1.126678   -1.139944   -0.586462
      3          6           0       -3.213208    0.033113    0.134870
      4          6           0       -2.379202    1.039790   -0.215203
      5          6           0       -2.358955    1.590708   -1.611410
      6         26           0        1.470384    0.091032    0.056425
      7         17           0        2.102528    1.984541   -0.821806
      8          6           0       -1.554866    1.809486    0.775449
      9         17           0        2.489083   -1.712597   -0.668226
     10         17           0        1.337432    0.116226    2.248809
     11          1           0       -3.850068   -0.380769   -0.645690
     12          1           0       -2.143326    2.668024    1.128238
     13          1           0       -1.263410    1.228501    1.651313
     14          1           0       -0.651788    2.214589    0.310646
     15          1           0       -2.646393    2.649844   -1.580706
     16          1           0       -1.347301    1.552489   -2.030280
     17          1           0       -3.054922    1.075120   -2.278871
     18          6           0       -3.548372   -0.403393    1.534502
     19          1           0       -4.467101    0.097985    1.868550
     20          1           0       -3.742081   -1.479793    1.591148
     21          1           0       -2.766377   -0.158996    2.257557
     22          6           0       -1.079092   -2.047412    0.603470
     23          1           0       -1.974269   -2.662346    0.695857
     24          1           0       -0.218698   -2.712743    0.433619
     25          1           0       -0.883571   -1.497882    1.524626
     26          6           0       -1.739920   -1.660583   -1.852871
     27          1           0       -0.992197   -2.347400   -2.277229
     28          1           0       -2.657549   -2.222781   -1.674471
     29          1           0       -1.901856   -0.863331   -2.577279
 ---------------------------------------------------------------------

 SCF Done:  E(UB97D3) =  -3034.62688705     A.U. after   17 cycles
 Normal termination of Gaussian 16 at Tue Feb 11 23:22:14 2020.
