 Gaussian 16, Revision A.03,

 --------------------------------
 #t pop=none jul-cc-pvdz upbe1pbe
 --------------------------------
 ------------------------
 theory_abbreviation pbe0
 ------------------------
 Symbolic Z-matrix:
 Charge =  0 Multiplicity = 6

 SCF Done:  E(UPBE1PBE) =  -3033.10538830     A.U. after   20 cycles
 Normal termination of Gaussian 16 at Tue Feb 11 14:49:33 2020.

 ---------------------------------------------------------------------
 #t pop=none jul-cc-pvdz guess=read upbe1pbe empiricaldispersion=gd3bj
 ---------------------------------------------------------------------
 -----------------------------
 theory_abbreviation pbe0_d3bj
 -----------------------------
 Symbolic Z-matrix:
 Charge =  0 Multiplicity = 6

 SCF Done:  E(UPBE1PBE) =  -3033.14267702     A.U. after    1 cycles
 Normal termination of Gaussian 16 at Tue Feb 11 14:51:05 2020.

 -----------------------------------------
 #t pop=none jul-cc-pvdz guess=read ub3lyp
 -----------------------------------------
 -------------------------
 theory_abbreviation b3lyp
 -------------------------
 Symbolic Z-matrix:
 Charge =  0 Multiplicity = 6

 SCF Done:  E(UB3LYP) =  -3034.31707546     A.U. after   13 cycles
 Normal termination of Gaussian 16 at Tue Feb 11 15:08:36 2020.

 -------------------------------------------------------------------
 #t pop=none jul-cc-pvdz guess=read ub3lyp empiricaldispersion=gd3bj
 -------------------------------------------------------------------
 ------------------------------
 theory_abbreviation b3lyp_d3bj
 ------------------------------
 Symbolic Z-matrix:
 Charge =  0 Multiplicity = 6

 SCF Done:  E(UB3LYP) =  -3034.38655650     A.U. after    1 cycles
 Normal termination of Gaussian 16 at Tue Feb 11 15:10:06 2020.

 ----------------------------------------
 #t pop=none jul-cc-pvdz guess=read ub97d
 ----------------------------------------
 ------------------------
 theory_abbreviation b97d
 ------------------------
 Symbolic Z-matrix:
 Charge =  0 Multiplicity = 6

 SCF Done:  E(UB97D) =  -3034.56713546     A.U. after   15 cycles

 ----------------------------------------------------------------
 #t pop=none jul-cc-pvdz guess=read ub97d empiricaldispersion=gd3
 ----------------------------------------------------------------
 -------------------------
 theory_abbreviation b97d3
 -------------------------
 Symbolic Z-matrix:
 Charge =  0 Multiplicity = 6

 SCF Done:  E(UB97D) =  -3034.56776217     A.U. after    1 cycles
 SCF Done:  E(UBHandHLYP) =  -3033.96326441     A.U. after   16 cycles
 SCF Done:  E(UBHandH) =  -3026.31184475     A.U. after   13 cycles
 SCF Done:  E(ULC-wPBE) =  -3033.45051634     A.U. after   16 cycles
 SCF Done:  E(UB-P86) =  -3034.62151547     A.U. after   16 cycles
 SCF Done:  E(UmPW1LYP) =  -3034.03599062     A.U. after   13 cycles
 SCF Done:  E(UmPW1PBE) =  -3033.87965576     A.U. after   13 cycles
 SCF Done:  E(UmPW3PBE) =  -3033.65135522     A.U. after   13 cycles
 SCF Done:  E(UM11) =  -3033.80408081     A.U. after   16 cycles
 SCF Done:  E(UN12SX) =  -3033.24555100     A.U. after   15 cycles
 SCF Done:  E(UMN12SX) =  -3033.64384943     A.U. after   16 cycles
 SCF Done:  E(UB1B95) =  -3034.37213122     A.U. after   14 cycles
 Normal termination of Gaussian 16 at Wed Feb 12 01:19:20 2020.
 SCF Done:  E(UB3PW91) =  -3033.96656876     A.U. after   13 cycles
 Normal termination of Gaussian 16 at Wed Feb 12 01:37:50 2020.
 SCF Done:  E(UM06L) =  -3034.18365460     A.U. after   18 cycles
 Normal termination of Gaussian 16 at Wed Feb 12 02:01:37 2020.
 Gaussian 16:  ES64L-G16RevA.03 25-Dec-2016

                         Standard orientation:
 ---------------------------------------------------------------------
 Center     Atomic      Atomic             Coordinates (Angstroms)
 Number     Number       Type             X           Y           Z
 ---------------------------------------------------------------------
      1          8           0       -0.301124   -0.284637   -0.722140
      2          6           0       -1.340981   -1.179656   -0.516763
      3          6           0       -2.612517   -0.335098    0.231513
      4          6           0       -2.284440    1.032769   -0.144692
      5          6           0       -2.607203    1.567497   -1.480126
      6         26           0        1.360727    0.089724   -0.026800
      7         17           0        1.689032    2.165880   -0.749408
      8          6           0       -1.597709    1.938094    0.783964
      9         17           0        2.807784   -1.426287   -0.685238
     10         17           0        1.100970    0.079481    2.208373
     11          1           0       -3.508847   -0.665308   -0.300964
     12          1           0       -2.397602    2.383557    1.404542
     13          1           0       -0.926845    1.415720    1.471161
     14          1           0       -1.070234    2.743593    0.268981
     15          1           0       -2.917495    2.616420   -1.410707
     16          1           0       -1.646764    1.572176   -2.022534
     17          1           0       -3.338346    0.979415   -2.033908
     18          6           0       -2.740120   -0.592320    1.734799
     19          1           0       -3.515230    0.048431    2.170095
     20          1           0       -3.035915   -1.629236    1.906402
     21          1           0       -1.804152   -0.416510    2.268793
     22          6           0       -0.926018   -2.357082    0.360704
     23          1           0       -1.741088   -3.072770    0.505631
     24          1           0       -0.107629   -2.864416   -0.162993
     25          1           0       -0.544767   -2.031445    1.329051
     26          6           0       -1.846109   -1.678968   -1.872958
     27          1           0       -1.021901   -2.212062   -2.356816
     28          1           0       -2.693925   -2.363324   -1.763110
     29          1           0       -2.130959   -0.855660   -2.531705
 ---------------------------------------------------------------------

 SCF Done:  E(UB97D3) =  -3034.60252951     A.U. after   15 cycles
 Normal termination of Gaussian 16 at Wed Feb 12 02:16:13 2020.
