 Gaussian 16, Revision A.03,

 --------------------------------
 #t pop=none jul-cc-pvdz upbe1pbe
 --------------------------------
 ------------------------
 theory_abbreviation pbe0
 ------------------------
 Symbolic Z-matrix:
 Charge =  0 Multiplicity = 6

 SCF Done:  E(UPBE1PBE) =  -3033.12936888     A.U. after   21 cycles
 Normal termination of Gaussian 16 at Wed Feb 12 07:01:31 2020.

 ---------------------------------------------------------------------
 #t pop=none jul-cc-pvdz guess=read upbe1pbe empiricaldispersion=gd3bj
 ---------------------------------------------------------------------
 -----------------------------
 theory_abbreviation pbe0_d3bj
 -----------------------------
 Symbolic Z-matrix:
 Charge =  0 Multiplicity = 6

 SCF Done:  E(UPBE1PBE) =  -3033.16599554     A.U. after    1 cycles
 Normal termination of Gaussian 16 at Wed Feb 12 07:02:36 2020.

 -----------------------------------------
 #t pop=none jul-cc-pvdz guess=read ub3lyp
 -----------------------------------------
 -------------------------
 theory_abbreviation b3lyp
 -------------------------
 Symbolic Z-matrix:
 Charge =  0 Multiplicity = 6

 SCF Done:  E(UB3LYP) =  -3034.34700941     A.U. after   13 cycles
 Normal termination of Gaussian 16 at Wed Feb 12 07:15:20 2020.

 -------------------------------------------------------------------
 #t pop=none jul-cc-pvdz guess=read ub3lyp empiricaldispersion=gd3bj
 -------------------------------------------------------------------
 ------------------------------
 theory_abbreviation b3lyp_d3bj
 ------------------------------
 Symbolic Z-matrix:
 Charge =  0 Multiplicity = 6

 SCF Done:  E(UB3LYP) =  -3034.41497631     A.U. after    1 cycles
 Normal termination of Gaussian 16 at Wed Feb 12 07:16:25 2020.

 ----------------------------------------
 #t pop=none jul-cc-pvdz guess=read ub97d
 ----------------------------------------
 ------------------------
 theory_abbreviation b97d
 ------------------------
 Symbolic Z-matrix:
 Charge =  0 Multiplicity = 6

 SCF Done:  E(UB97D) =  -3034.59907273     A.U. after   15 cycles

 ----------------------------------------------------------------
 #t pop=none jul-cc-pvdz guess=read ub97d empiricaldispersion=gd3
 ----------------------------------------------------------------
 -------------------------
 theory_abbreviation b97d3
 -------------------------
 Symbolic Z-matrix:
 Charge =  0 Multiplicity = 6

 SCF Done:  E(UB97D) =  -3034.60000995     A.U. after    1 cycles
 SCF Done:  E(UBHandHLYP) =  -3033.98764651     A.U. after   18 cycles
 SCF Done:  E(UBHandH) =  -3026.32619704     A.U. after   15 cycles
 SCF Done:  E(ULC-wPBE) =  -3033.46890514     A.U. after   19 cycles
 SCF Done:  E(UB-P86) =  -3034.64866683     A.U. after   16 cycles
 SCF Done:  E(UmPW1LYP) =  -3034.06512916     A.U. after   14 cycles
 SCF Done:  E(UmPW1PBE) =  -3033.90388413     A.U. after   14 cycles
 SCF Done:  E(UmPW3PBE) =  -3033.67694728     A.U. after   13 cycles
 SCF Done:  E(UM11) =  -3033.82633211     A.U. after   17 cycles
 SCF Done:  E(UN12SX) =  -3033.26815298     A.U. after   17 cycles
 SCF Done:  E(UMN12SX) =  -3033.66894597     A.U. after   16 cycles
 SCF Done:  E(UB1B95) =  -3034.39907846     A.U. after   14 cycles
 Normal termination of Gaussian 16 at Wed Feb 12 15:26:27 2020.
 SCF Done:  E(UB3PW91) =  -3033.99300231     A.U. after   13 cycles
 Normal termination of Gaussian 16 at Wed Feb 12 15:39:09 2020.
 SCF Done:  E(UM06L) =  -3034.21407588     A.U. after   18 cycles
 Normal termination of Gaussian 16 at Wed Feb 12 15:58:12 2020.
 Gaussian 16:  ES64L-G16RevA.03 25-Dec-2016

                         Standard orientation:
 ---------------------------------------------------------------------
 Center     Atomic      Atomic             Coordinates (Angstroms)
 Number     Number       Type             X           Y           Z
 ---------------------------------------------------------------------
      1          8           0        0.191645    0.347127   -0.842785
      2          6           0        1.041843    1.262719   -0.649396
      3          6           0        2.897935    0.272380    0.606254
      4          6           0        2.760567   -0.888114   -0.083011
      5          6           0        3.447647   -1.112397   -1.399171
      6         26           0       -1.496943   -0.170950   -0.018115
      7         17           0       -2.015835   -2.039565   -1.011876
      8          6           0        1.867997   -2.005564    0.361454
      9         17           0       -2.764041    1.553968   -0.474215
     10         17           0       -1.148684   -0.405408    2.139755
     11          1           0        3.602427    1.000831    0.206229
     12          1           0        2.405973   -2.961342    0.339472
     13          1           0        1.448569   -1.862209    1.357013
     14          1           0        1.031844   -2.105472   -0.346075
     15          1           0        4.098845   -1.993418   -1.328534
     16          1           0        2.719033   -1.332873   -2.191178
     17          1           0        4.063341   -0.262261   -1.703686
     18          6           0        2.534771    0.457903    2.060983
     19          1           0        3.269455   -0.061148    2.690285
     20          1           0        2.561874    1.511650    2.348380
     21          1           0        1.548724    0.063916    2.315277
     22          6           0        0.796413    2.285246    0.422734
     23          1           0        1.677908    2.891425    0.633966
     24          1           0        0.009839    2.940782    0.020510
     25          1           0        0.406756    1.837458    1.336609
     26          6           0        1.860615    1.681636   -1.840122
     27          1           0        1.231574    2.390251   -2.397805
     28          1           0        2.780949    2.196275   -1.561799
     29          1           0        2.069063    0.838058   -2.496042
 ---------------------------------------------------------------------

 SCF Done:  E(UB97D3) =  -3034.63530153     A.U. after   15 cycles
 Normal termination of Gaussian 16 at Wed Feb 12 16:09:49 2020.
