 Gaussian 16, Revision A.03,

 --------------------------------
 #t pop=none jul-cc-pvdz upbe1pbe
 --------------------------------
 ------------------------
 theory_abbreviation pbe0
 ------------------------
 Symbolic Z-matrix:
 Charge =  0 Multiplicity = 6

 SCF Done:  E(UPBE1PBE) =  -3033.13785441     A.U. after   20 cycles
 Normal termination of Gaussian 16 at Wed Feb 12 14:10:28 2020.

 ---------------------------------------------------------------------
 #t pop=none jul-cc-pvdz guess=read upbe1pbe empiricaldispersion=gd3bj
 ---------------------------------------------------------------------
 -----------------------------
 theory_abbreviation pbe0_d3bj
 -----------------------------
 Symbolic Z-matrix:
 Charge =  0 Multiplicity = 6

 SCF Done:  E(UPBE1PBE) =  -3033.17410970     A.U. after    1 cycles
 Normal termination of Gaussian 16 at Wed Feb 12 14:11:32 2020.

 -----------------------------------------
 #t pop=none jul-cc-pvdz guess=read ub3lyp
 -----------------------------------------
 -------------------------
 theory_abbreviation b3lyp
 -------------------------
 Symbolic Z-matrix:
 Charge =  0 Multiplicity = 6

 SCF Done:  E(UB3LYP) =  -3034.35637308     A.U. after   13 cycles
 Normal termination of Gaussian 16 at Wed Feb 12 14:23:57 2020.

 -------------------------------------------------------------------
 #t pop=none jul-cc-pvdz guess=read ub3lyp empiricaldispersion=gd3bj
 -------------------------------------------------------------------
 ------------------------------
 theory_abbreviation b3lyp_d3bj
 ------------------------------
 Symbolic Z-matrix:
 Charge =  0 Multiplicity = 6

 SCF Done:  E(UB3LYP) =  -3034.42345010     A.U. after    1 cycles
 Normal termination of Gaussian 16 at Wed Feb 12 14:25:00 2020.

 ----------------------------------------
 #t pop=none jul-cc-pvdz guess=read ub97d
 ----------------------------------------
 ------------------------
 theory_abbreviation b97d
 ------------------------
 Symbolic Z-matrix:
 Charge =  0 Multiplicity = 6

 SCF Done:  E(UB97D) =  -3034.60621617     A.U. after   16 cycles

 ----------------------------------------------------------------
 #t pop=none jul-cc-pvdz guess=read ub97d empiricaldispersion=gd3
 ----------------------------------------------------------------
 -------------------------
 theory_abbreviation b97d3
 -------------------------
 Symbolic Z-matrix:
 Charge =  0 Multiplicity = 6

 SCF Done:  E(UB97D) =  -3034.60805639     A.U. after    2 cycles
 SCF Done:  E(UBHandHLYP) =  -3033.99841826     A.U. after   18 cycles
 SCF Done:  E(UBHandH) =  -3026.33395213     A.U. after   14 cycles
 SCF Done:  E(ULC-wPBE) =  -3033.47940503     A.U. after   17 cycles
 SCF Done:  E(UB-P86) =  -3034.65526564     A.U. after   17 cycles
 SCF Done:  E(UmPW1LYP) =  -3034.07476198     A.U. after   13 cycles
 SCF Done:  E(UmPW1PBE) =  -3033.91231730     A.U. after   14 cycles
 SCF Done:  E(UmPW3PBE) =  -3033.68527268     A.U. after   13 cycles
 SCF Done:  E(UM11) =  -3033.83695159     A.U. after   17 cycles
 SCF Done:  E(UN12SX) =  -3033.27681704     A.U. after   16 cycles
 SCF Done:  E(UMN12SX) =  -3033.67940114     A.U. after   16 cycles
 SCF Done:  E(UB1B95) =  -3034.40877434     A.U. after   14 cycles
 Normal termination of Gaussian 16 at Wed Feb 12 21:43:52 2020.
 SCF Done:  E(UB3PW91) =  -3034.00154576     A.U. after   14 cycles
 Normal termination of Gaussian 16 at Wed Feb 12 21:57:15 2020.
 SCF Done:  E(UM06L) =  -3034.22375500     A.U. after   17 cycles
 Normal termination of Gaussian 16 at Wed Feb 12 22:15:06 2020.
 Gaussian 16:  ES64L-G16RevA.03 25-Dec-2016

                         Standard orientation:
 ---------------------------------------------------------------------
 Center     Atomic      Atomic             Coordinates (Angstroms)
 Number     Number       Type             X           Y           Z
 ---------------------------------------------------------------------
      1          8           0        0.200784    0.410925   -0.861845
      2          6           0        0.943976    1.394085   -0.651273
      3          6           0        3.156838    0.032074    0.519485
      4          6           0        2.627109   -0.947712   -0.237685
      5          6           0        3.022925   -1.124406   -1.679692
      6         26           0       -1.477048   -0.166466    0.024776
      7         17           0       -2.077276   -1.958293   -1.046620
      8          6           0        1.682993   -1.998559    0.271849
      9         17           0       -2.714211    1.605438   -0.322251
     10         17           0       -1.069296   -0.470426    2.157511
     11          1           0        3.887987    0.688786    0.045715
     12          1           0        2.186671   -2.974902    0.275165
     13          1           0        1.313297   -1.807802    1.278992
     14          1           0        0.821442   -2.105205   -0.398276
     15          1           0        3.489821   -2.107486   -1.824764
     16          1           0        2.139979   -1.104572   -2.331986
     17          1           0        3.733169   -0.362974   -2.015558
     18          6           0        2.981028    0.231236    2.000052
     19          1           0        3.819988   -0.218659    2.548695
     20          1           0        2.974263    1.295024    2.262428
     21          1           0        2.060435   -0.215424    2.384047
     22          6           0        0.809546    2.218632    0.588604
     23          1           0        1.690140    2.837810    0.764472
     24          1           0       -0.057834    2.877370    0.432545
     25          1           0        0.592413    1.598566    1.459225
     26          6           0        1.766389    1.924661   -1.783419
     27          1           0        1.218314    2.788791   -2.187246
     28          1           0        2.739650    2.282652   -1.443130
     29          1           0        1.875739    1.184447   -2.574122
 ---------------------------------------------------------------------

 SCF Done:  E(UB97D3) =  -3034.64251815     A.U. after   16 cycles
 Normal termination of Gaussian 16 at Wed Feb 12 22:27:14 2020.
