 Gaussian 16, Revision A.03,

 --------------------------------
 #t pop=none jul-cc-pvdz upbe1pbe
 --------------------------------
 ------------------------
 theory_abbreviation pbe0
 ------------------------
 Symbolic Z-matrix:
 Charge =  0 Multiplicity = 6

 SCF Done:  E(UPBE1PBE) =  -3033.11383950     A.U. after   21 cycles
 Normal termination of Gaussian 16 at Tue Feb 11 13:59:01 2020.

 ---------------------------------------------------------------------
 #t pop=none jul-cc-pvdz guess=read upbe1pbe empiricaldispersion=gd3bj
 ---------------------------------------------------------------------
 -----------------------------
 theory_abbreviation pbe0_d3bj
 -----------------------------
 Symbolic Z-matrix:
 Charge =  0 Multiplicity = 6

 SCF Done:  E(UPBE1PBE) =  -3033.14948999     A.U. after    1 cycles
 Normal termination of Gaussian 16 at Tue Feb 11 14:00:12 2020.

 -----------------------------------------
 #t pop=none jul-cc-pvdz guess=read ub3lyp
 -----------------------------------------
 -------------------------
 theory_abbreviation b3lyp
 -------------------------
 Symbolic Z-matrix:
 Charge =  0 Multiplicity = 6

 SCF Done:  E(UB3LYP) =  -3034.32802904     A.U. after   13 cycles
 Normal termination of Gaussian 16 at Tue Feb 11 14:13:56 2020.

 -------------------------------------------------------------------
 #t pop=none jul-cc-pvdz guess=read ub3lyp empiricaldispersion=gd3bj
 -------------------------------------------------------------------
 ------------------------------
 theory_abbreviation b3lyp_d3bj
 ------------------------------
 Symbolic Z-matrix:
 Charge =  0 Multiplicity = 6

 SCF Done:  E(UB3LYP) =  -3034.39453105     A.U. after    1 cycles
 Normal termination of Gaussian 16 at Tue Feb 11 14:15:06 2020.

 ----------------------------------------
 #t pop=none jul-cc-pvdz guess=read ub97d
 ----------------------------------------
 ------------------------
 theory_abbreviation b97d
 ------------------------
 Symbolic Z-matrix:
 Charge =  0 Multiplicity = 6

 SCF Done:  E(UB97D) =  -3034.58075580     A.U. after   17 cycles

 ----------------------------------------------------------------
 #t pop=none jul-cc-pvdz guess=read ub97d empiricaldispersion=gd3
 ----------------------------------------------------------------
 -------------------------
 theory_abbreviation b97d3
 -------------------------
 Symbolic Z-matrix:
 Charge =  0 Multiplicity = 6

 SCF Done:  E(UB97D) =  -3034.58073804     A.U. after    1 cycles
 SCF Done:  E(UBHandHLYP) =  -3033.96713070     A.U. after   17 cycles
 SCF Done:  E(UBHandH) =  -3026.31241092     A.U. after   16 cycles
 SCF Done:  E(ULC-wPBE) =  -3033.45065707     A.U. after   18 cycles
 SCF Done:  E(UB-P86) =  -3034.63269302     A.U. after   17 cycles
 SCF Done:  E(UmPW1LYP) =  -3034.04554253     A.U. after   15 cycles
 SCF Done:  E(UmPW1PBE) =  -3033.88844865     A.U. after   16 cycles
 SCF Done:  E(UmPW3PBE) =  -3033.66132522     A.U. after   15 cycles
 SCF Done:  E(UM11) =  -3033.80840313     A.U. after   19 cycles
 SCF Done:  E(UN12SX) =  -3033.25343789     A.U. after   17 cycles
 SCF Done:  E(UMN12SX) =  -3033.64898296     A.U. after   17 cycles
 SCF Done:  E(UB1B95) =  -3034.38100813     A.U. after   16 cycles
 Normal termination of Gaussian 16 at Tue Feb 11 23:04:46 2020.
 SCF Done:  E(UB3PW91) =  -3033.97695886     A.U. after   15 cycles
 Normal termination of Gaussian 16 at Tue Feb 11 23:19:56 2020.
 SCF Done:  E(UM06L) =  -3034.19329439     A.U. after   16 cycles
 Normal termination of Gaussian 16 at Tue Feb 11 23:37:21 2020.
 Gaussian 16:  ES64L-G16RevA.03 25-Dec-2016

                         Standard orientation:
 ---------------------------------------------------------------------
 Center     Atomic      Atomic             Coordinates (Angstroms)
 Number     Number       Type             X           Y           Z
 ---------------------------------------------------------------------
      1          8           0       -0.295795   -0.132598   -0.426895
      2          6           0       -1.191663   -1.063233   -0.176608
      3          6           0       -2.573694   -0.257269    0.848285
      4          6           0       -3.118218    0.648722   -0.071939
      5          6           0       -4.277375    0.296600   -0.935981
      6         26           0        1.543366    0.169171   -0.104319
      7         17           0        1.895758    2.118992   -1.048711
      8          6           0       -2.441305    1.941961   -0.300346
      9         17           0        2.526053   -1.560542   -1.044301
     10         17           0        1.865301    0.221688    2.079919
     11          1           0       -3.201115   -1.131589    1.024641
     12          1           0       -2.938567    2.568847   -1.042638
     13          1           0       -2.292877    2.502794    0.628788
     14          1           0       -1.417730    1.689260   -0.648538
     15          1           0       -5.110626    0.965245   -0.672848
     16          1           0       -4.058140    0.491103   -1.993308
     17          1           0       -4.610059   -0.735102   -0.809165
     18          6           0       -1.876265    0.288144    2.089954
     19          1           0       -2.514831    1.026022    2.587604
     20          1           0       -1.679217   -0.511970    2.804362
     21          1           0       -0.922860    0.762039    1.850131
     22          6           0       -0.741826   -2.150484    0.800429
     23          1           0       -1.561015   -2.810861    1.095648
     24          1           0        0.009657   -2.742383    0.263538
     25          1           0       -0.256994   -1.731171    1.681629
     26          6           0       -1.821075   -1.634596   -1.440994
     27          1           0       -1.060589   -2.262841   -1.918007
     28          1           0       -2.697503   -2.254338   -1.231142
     29          1           0       -2.081073   -0.844142   -2.147445
 ---------------------------------------------------------------------

 SCF Done:  E(UB97D3) =  -3034.61493907     A.U. after   16 cycles
 Normal termination of Gaussian 16 at Tue Feb 11 23:49:54 2020.
