 Gaussian 16, Revision A.03,

 --------------------------------
 #t pop=none jul-cc-pvdz upbe1pbe
 --------------------------------
 ------------------------
 theory_abbreviation pbe0
 ------------------------
 Symbolic Z-matrix:
 Charge =  0 Multiplicity = 6

 SCF Done:  E(UPBE1PBE) =  -3033.13753227     A.U. after   20 cycles
 Normal termination of Gaussian 16 at Wed Feb 12 14:11:51 2020.

 ---------------------------------------------------------------------
 #t pop=none jul-cc-pvdz guess=read upbe1pbe empiricaldispersion=gd3bj
 ---------------------------------------------------------------------
 -----------------------------
 theory_abbreviation pbe0_d3bj
 -----------------------------
 Symbolic Z-matrix:
 Charge =  0 Multiplicity = 6

 SCF Done:  E(UPBE1PBE) =  -3033.17364815     A.U. after    1 cycles
 Normal termination of Gaussian 16 at Wed Feb 12 14:13:03 2020.

 -----------------------------------------
 #t pop=none jul-cc-pvdz guess=read ub3lyp
 -----------------------------------------
 -------------------------
 theory_abbreviation b3lyp
 -------------------------
 Symbolic Z-matrix:
 Charge =  0 Multiplicity = 6

 SCF Done:  E(UB3LYP) =  -3034.35620562     A.U. after   13 cycles
 Normal termination of Gaussian 16 at Wed Feb 12 14:26:29 2020.

 -------------------------------------------------------------------
 #t pop=none jul-cc-pvdz guess=read ub3lyp empiricaldispersion=gd3bj
 -------------------------------------------------------------------
 ------------------------------
 theory_abbreviation b3lyp_d3bj
 ------------------------------
 Symbolic Z-matrix:
 Charge =  0 Multiplicity = 6

 SCF Done:  E(UB3LYP) =  -3034.42301567     A.U. after    1 cycles
 Normal termination of Gaussian 16 at Wed Feb 12 14:27:40 2020.

 ----------------------------------------
 #t pop=none jul-cc-pvdz guess=read ub97d
 ----------------------------------------
 ------------------------
 theory_abbreviation b97d
 ------------------------
 Symbolic Z-matrix:
 Charge =  0 Multiplicity = 6

 SCF Done:  E(UB97D) =  -3034.60621270     A.U. after   16 cycles

 ----------------------------------------------------------------
 #t pop=none jul-cc-pvdz guess=read ub97d empiricaldispersion=gd3
 ----------------------------------------------------------------
 -------------------------
 theory_abbreviation b97d3
 -------------------------
 Symbolic Z-matrix:
 Charge =  0 Multiplicity = 6

 SCF Done:  E(UB97D) =  -3034.60758134     A.U. after    1 cycles
 SCF Done:  E(UBHandHLYP) =  -3033.99787903     A.U. after   17 cycles
 SCF Done:  E(UBHandH) =  -3026.33324192     A.U. after   14 cycles
 SCF Done:  E(ULC-wPBE) =  -3033.47829918     A.U. after   17 cycles
 SCF Done:  E(UB-P86) =  -3034.65499770     A.U. after   17 cycles
 SCF Done:  E(UmPW1LYP) =  -3034.07453351     A.U. after   13 cycles
 SCF Done:  E(UmPW1PBE) =  -3033.91203161     A.U. after   14 cycles
 SCF Done:  E(UmPW3PBE) =  -3033.68504544     A.U. after   13 cycles
 SCF Done:  E(UM11) =  -3033.83572983     A.U. after   17 cycles
 SCF Done:  E(UN12SX) =  -3033.27644710     A.U. after   16 cycles
 SCF Done:  E(UMN12SX) =  -3033.67848049     A.U. after   16 cycles
 SCF Done:  E(UB1B95) =  -3034.40796385     A.U. after   14 cycles
 Normal termination of Gaussian 16 at Wed Feb 12 21:53:36 2020.
 SCF Done:  E(UB3PW91) =  -3034.00132998     A.U. after   13 cycles
 Normal termination of Gaussian 16 at Wed Feb 12 22:06:06 2020.
 SCF Done:  E(UM06L) =  -3034.22302735     A.U. after   18 cycles
 Normal termination of Gaussian 16 at Wed Feb 12 22:24:56 2020.
 Gaussian 16:  ES64L-G16RevA.03 25-Dec-2016

                         Standard orientation:
 ---------------------------------------------------------------------
 Center     Atomic      Atomic             Coordinates (Angstroms)
 Number     Number       Type             X           Y           Z
 ---------------------------------------------------------------------
      1          8           0        0.149580    0.418882   -0.898374
      2          6           0        0.944077    1.365545   -0.691295
      3          6           0        3.064845    0.161751    0.579818
      4          6           0        2.731504   -0.917148   -0.157611
      5          6           0        3.269336   -1.113836   -1.549299
      6         26           0       -1.501159   -0.177082    0.006142
      7         17           0       -2.045950   -2.009326   -1.028424
      8          6           0        1.816375   -2.010182    0.313419
      9         17           0       -2.792845    1.552837   -0.342958
     10         17           0       -1.048419   -0.456395    2.134609
     11          1           0        3.773725    0.864326    0.140094
     12          1           0        2.343899   -2.973172    0.305873
     13          1           0        1.417796   -1.847190    1.314480
     14          1           0        0.969618   -2.120482   -0.377436
     15          1           0        3.839693   -2.050378   -1.603521
     16          1           0        2.451242   -1.210968   -2.275950
     17          1           0        3.929763   -0.300064   -1.862368
     18          6           0        2.774604    0.372405    2.042874
     19          1           0        3.566949   -0.083007    2.652570
     20          1           0        2.758100    1.436129    2.299185
     21          1           0        1.824712   -0.064868    2.359369
     22          6           0        0.772860    2.265469    0.491476
     23          1           0        1.660159    2.869892    0.681851
     24          1           0       -0.062913    2.936628    0.242484
     25          1           0        0.484602    1.709278    1.383962
     26          6           0        1.797156    1.826631   -1.833420
     27          1           0        1.228414    2.622574   -2.336818
     28          1           0        2.741809    2.255251   -1.496740
     29          1           0        1.964023    1.024345   -2.550362
 ---------------------------------------------------------------------

 SCF Done:  E(UB97D3) =  -3034.64240354     A.U. after   16 cycles
 Normal termination of Gaussian 16 at Wed Feb 12 22:37:05 2020.
