 Gaussian 16, Revision A.03,

 --------------------------------
 #t pop=none jul-cc-pvdz upbe1pbe
 --------------------------------
 ------------------------
 theory_abbreviation pbe0
 ------------------------
 Symbolic Z-matrix:
 Charge =  0 Multiplicity = 6

 SCF Done:  E(UPBE1PBE) =  -3033.10983741     A.U. after   19 cycles
 Normal termination of Gaussian 16 at Tue Feb 11 20:03:38 2020.

 ---------------------------------------------------------------------
 #t pop=none jul-cc-pvdz guess=read upbe1pbe empiricaldispersion=gd3bj
 ---------------------------------------------------------------------
 -----------------------------
 theory_abbreviation pbe0_d3bj
 -----------------------------
 Symbolic Z-matrix:
 Charge =  0 Multiplicity = 6

 SCF Done:  E(UPBE1PBE) =  -3033.14662831     A.U. after    1 cycles
 Normal termination of Gaussian 16 at Tue Feb 11 20:04:46 2020.

 -----------------------------------------
 #t pop=none jul-cc-pvdz guess=read ub3lyp
 -----------------------------------------
 -------------------------
 theory_abbreviation b3lyp
 -------------------------
 Symbolic Z-matrix:
 Charge =  0 Multiplicity = 6

 SCF Done:  E(UB3LYP) =  -3034.32331803     A.U. after   13 cycles
 Normal termination of Gaussian 16 at Tue Feb 11 20:17:57 2020.

 -------------------------------------------------------------------
 #t pop=none jul-cc-pvdz guess=read ub3lyp empiricaldispersion=gd3bj
 -------------------------------------------------------------------
 ------------------------------
 theory_abbreviation b3lyp_d3bj
 ------------------------------
 Symbolic Z-matrix:
 Charge =  0 Multiplicity = 6

 SCF Done:  E(UB3LYP) =  -3034.39172992     A.U. after    1 cycles
 Normal termination of Gaussian 16 at Tue Feb 11 20:19:05 2020.

 ----------------------------------------
 #t pop=none jul-cc-pvdz guess=read ub97d
 ----------------------------------------
 ------------------------
 theory_abbreviation b97d
 ------------------------
 Symbolic Z-matrix:
 Charge =  0 Multiplicity = 6

 SCF Done:  E(UB97D) =  -3034.57433062     A.U. after   16 cycles

 ----------------------------------------------------------------
 #t pop=none jul-cc-pvdz guess=read ub97d empiricaldispersion=gd3
 ----------------------------------------------------------------
 -------------------------
 theory_abbreviation b97d3
 -------------------------
 Symbolic Z-matrix:
 Charge =  0 Multiplicity = 6

 SCF Done:  E(UB97D) =  -3034.57514651     A.U. after    1 cycles
 SCF Done:  E(UBHandHLYP) =  -3033.96385881     A.U. after   16 cycles
 SCF Done:  E(UBHandH) =  -3026.30897036     A.U. after   14 cycles
 SCF Done:  E(ULC-wPBE) =  -3033.45386486     A.U. after   17 cycles
 SCF Done:  E(UB-P86) =  -3034.63051457     A.U. after   16 cycles
 SCF Done:  E(UmPW1LYP) =  -3034.04129202     A.U. after   14 cycles
 SCF Done:  E(UmPW1PBE) =  -3033.88436206     A.U. after   14 cycles
 SCF Done:  E(UmPW3PBE) =  -3033.65688566     A.U. after   13 cycles
 SCF Done:  E(UM11) =  -3033.80449611     A.U. after   16 cycles
 SCF Done:  E(UN12SX) =  -3033.25028972     A.U. after   16 cycles
 SCF Done:  E(UMN12SX) =  -3033.64439949     A.U. after   15 cycles
 SCF Done:  E(UB1B95) =  -3034.37565876     A.U. after   14 cycles
 Normal termination of Gaussian 16 at Wed Feb 12 04:21:30 2020.
 SCF Done:  E(UB3PW91) =  -3033.97231142     A.U. after   14 cycles
 Normal termination of Gaussian 16 at Wed Feb 12 04:35:40 2020.
 SCF Done:  E(UM06L) =  -3034.18580755     A.U. after   18 cycles
 Normal termination of Gaussian 16 at Wed Feb 12 04:55:18 2020.
 Gaussian 16:  ES64L-G16RevA.03 25-Dec-2016

                         Standard orientation:
 ---------------------------------------------------------------------
 Center     Atomic      Atomic             Coordinates (Angstroms)
 Number     Number       Type             X           Y           Z
 ---------------------------------------------------------------------
      1          8           0       -0.443185   -0.150947   -0.476183
      2          6           0       -1.401316   -1.232297   -0.351511
      3          6           0       -2.844455   -0.085215   -0.196425
      4          6           0       -1.920951    1.108311   -0.294613
      5          6           0       -1.828975    1.825221   -1.597103
      6         26           0        1.370893    0.049273    0.047772
      7         17           0        1.870396    1.997520   -0.857480
      8          6           0       -1.550051    1.877094    0.926101
      9         17           0        2.396208   -1.720524   -0.739871
     10         17           0        1.382511    0.151492    2.253225
     11          1           0       -3.433002   -0.196125   -1.109336
     12          1           0       -2.407870    2.520174    1.175873
     13          1           0       -1.348010    1.234389    1.783117
     14          1           0       -0.684684    2.517387    0.742031
     15          1           0       -2.637312    2.573148   -1.613508
     16          1           0       -0.873910    2.347125   -1.693587
     17          1           0       -1.973778    1.150614   -2.442848
     18          6           0       -3.687926   -0.254443    1.050111
     19          1           0       -4.449297    0.532051    1.127538
     20          1           0       -4.212756   -1.214023    1.012807
     21          1           0       -3.092856   -0.236009    1.966394
     22          6           0       -1.183070   -2.059521    0.888833
     23          1           0       -1.995407   -2.781536    1.019169
     24          1           0       -0.244883   -2.619175    0.784308
     25          1           0       -1.099904   -1.440606    1.784065
     26          6           0       -1.463652   -2.023432   -1.633924
     27          1           0       -0.496714   -2.516294   -1.793677
     28          1           0       -2.243764   -2.790206   -1.582151
     29          1           0       -1.656162   -1.373050   -2.491460
 ---------------------------------------------------------------------

 SCF Done:  E(UB97D3) =  -3034.61011131     A.U. after   15 cycles
 Normal termination of Gaussian 16 at Wed Feb 12 05:07:17 2020.
