 Gaussian 16, Revision A.03,

 --------------------------------
 #t pop=none jul-cc-pvdz upbe1pbe
 --------------------------------
 ------------------------
 theory_abbreviation pbe0
 ------------------------
 Symbolic Z-matrix:
 Charge =  0 Multiplicity = 6

 SCF Done:  E(UPBE1PBE) =  -3033.11330781     A.U. after   21 cycles
 Normal termination of Gaussian 16 at Tue Feb 11 14:45:10 2020.

 ---------------------------------------------------------------------
 #t pop=none jul-cc-pvdz guess=read upbe1pbe empiricaldispersion=gd3bj
 ---------------------------------------------------------------------
 -----------------------------
 theory_abbreviation pbe0_d3bj
 -----------------------------
 Symbolic Z-matrix:
 Charge =  0 Multiplicity = 6

 SCF Done:  E(UPBE1PBE) =  -3033.14907316     A.U. after    1 cycles
 Normal termination of Gaussian 16 at Tue Feb 11 14:46:23 2020.

 -----------------------------------------
 #t pop=none jul-cc-pvdz guess=read ub3lyp
 -----------------------------------------
 -------------------------
 theory_abbreviation b3lyp
 -------------------------
 Symbolic Z-matrix:
 Charge =  0 Multiplicity = 6

 SCF Done:  E(UB3LYP) =  -3034.32688382     A.U. after   14 cycles
 Normal termination of Gaussian 16 at Tue Feb 11 15:00:26 2020.

 -------------------------------------------------------------------
 #t pop=none jul-cc-pvdz guess=read ub3lyp empiricaldispersion=gd3bj
 -------------------------------------------------------------------
 ------------------------------
 theory_abbreviation b3lyp_d3bj
 ------------------------------
 Symbolic Z-matrix:
 Charge =  0 Multiplicity = 6

 SCF Done:  E(UB3LYP) =  -3034.39360643     A.U. after    1 cycles
 Normal termination of Gaussian 16 at Tue Feb 11 15:01:33 2020.

 ----------------------------------------
 #t pop=none jul-cc-pvdz guess=read ub97d
 ----------------------------------------
 ------------------------
 theory_abbreviation b97d
 ------------------------
 Symbolic Z-matrix:
 Charge =  0 Multiplicity = 6

 SCF Done:  E(UB97D) =  -3034.57942284     A.U. after   16 cycles

 ----------------------------------------------------------------
 #t pop=none jul-cc-pvdz guess=read ub97d empiricaldispersion=gd3
 ----------------------------------------------------------------
 -------------------------
 theory_abbreviation b97d3
 -------------------------
 Symbolic Z-matrix:
 Charge =  0 Multiplicity = 6

 SCF Done:  E(UB97D) =  -3034.57945616     A.U. after    1 cycles
 SCF Done:  E(UBHandHLYP) =  -3033.96651407     A.U. after   17 cycles
 SCF Done:  E(UBHandH) =  -3026.31288068     A.U. after   16 cycles
 SCF Done:  E(ULC-wPBE) =  -3033.45080392     A.U. after   18 cycles
 SCF Done:  E(UB-P86) =  -3034.63197891     A.U. after   18 cycles
 SCF Done:  E(UmPW1LYP) =  -3034.04444847     A.U. after   15 cycles
 SCF Done:  E(UmPW1PBE) =  -3033.88787160     A.U. after   15 cycles
 SCF Done:  E(UmPW3PBE) =  -3033.66063481     A.U. after   15 cycles
 SCF Done:  E(UM11) =  -3033.80770577     A.U. after   19 cycles
 SCF Done:  E(UN12SX) =  -3033.25294887     A.U. after   17 cycles
 SCF Done:  E(UMN12SX) =  -3033.64820006     A.U. after   16 cycles
 SCF Done:  E(UB1B95) =  -3034.38017622     A.U. after   16 cycles
 Normal termination of Gaussian 16 at Tue Feb 11 23:37:09 2020.
 SCF Done:  E(UB3PW91) =  -3033.97618715     A.U. after   15 cycles
 Normal termination of Gaussian 16 at Tue Feb 11 23:55:14 2020.
 SCF Done:  E(UM06L) =  -3034.19246590     A.U. after   16 cycles
 Normal termination of Gaussian 16 at Wed Feb 12 00:13:36 2020.
 Gaussian 16:  ES64L-G16RevA.03 25-Dec-2016

                         Standard orientation:
 ---------------------------------------------------------------------
 Center     Atomic      Atomic             Coordinates (Angstroms)
 Number     Number       Type             X           Y           Z
 ---------------------------------------------------------------------
      1          8           0       -0.305285   -0.119276   -0.420558
      2          6           0       -1.208590   -1.061242   -0.199851
      3          6           0       -2.562515   -0.309471    0.812189
      4          6           0       -3.073219    0.668498   -0.062810
      5          6           0       -4.220806    0.391616   -0.966835
      6         26           0        1.528838    0.171230   -0.098231
      7         17           0        1.863652    2.155576   -0.981851
      8          6           0       -2.365124    1.951268   -0.202161
      9         17           0        2.528370   -1.518791   -1.092054
     10         17           0        1.850015    0.163668    2.088998
     11          1           0       -3.224071   -1.169503    0.926433
     12          1           0       -2.837795    2.641941   -0.902326
     13          1           0       -2.187198    2.441285    0.760651
     14          1           0       -1.350176    1.676479   -0.567980
     15          1           0       -5.052120    1.045453   -0.662171
     16          1           0       -3.985965    0.667321   -2.002414
     17          1           0       -4.562995   -0.643622   -0.923689
     18          6           0       -1.908962    0.156609    2.111685
     19          1           0       -2.557153    0.875144    2.624521
     20          1           0       -1.754055   -0.686833    2.785614
     21          1           0       -0.939201    0.625952    1.936525
     22          6           0       -0.742284   -2.186397    0.729285
     23          1           0       -1.557155   -2.860804    1.005438
     24          1           0        0.007369   -2.753585    0.164911
     25          1           0       -0.254027   -1.799257    1.623279
     26          6           0       -1.813101   -1.600102   -1.493418
     27          1           0       -1.038627   -2.200023   -1.983117
     28          1           0       -2.683209   -2.239225   -1.315616
     29          1           0       -2.078156   -0.790870   -2.176666
 ---------------------------------------------------------------------

 SCF Done:  E(UB97D3) =  -3034.61372491     A.U. after   16 cycles
 Normal termination of Gaussian 16 at Wed Feb 12 00:26:07 2020.
