 Gaussian 16, Revision A.03,

 --------------------------------
 #t pop=none jul-cc-pvdz upbe1pbe
 --------------------------------
 ------------------------
 theory_abbreviation pbe0
 ------------------------
 Symbolic Z-matrix:
 Charge =  0 Multiplicity = 6

 SCF Done:  E(UPBE1PBE) =  -3033.10864821     A.U. after   21 cycles
 Normal termination of Gaussian 16 at Tue Feb 11 14:45:17 2020.

 ---------------------------------------------------------------------
 #t pop=none jul-cc-pvdz guess=read upbe1pbe empiricaldispersion=gd3bj
 ---------------------------------------------------------------------
 -----------------------------
 theory_abbreviation pbe0_d3bj
 -----------------------------
 Symbolic Z-matrix:
 Charge =  0 Multiplicity = 6

 SCF Done:  E(UPBE1PBE) =  -3033.14519099     A.U. after    1 cycles
 Normal termination of Gaussian 16 at Tue Feb 11 14:46:27 2020.

 -----------------------------------------
 #t pop=none jul-cc-pvdz guess=read ub3lyp
 -----------------------------------------
 -------------------------
 theory_abbreviation b3lyp
 -------------------------
 Symbolic Z-matrix:
 Charge =  0 Multiplicity = 6

 SCF Done:  E(UB3LYP) =  -3034.31941673     A.U. after   15 cycles
 Normal termination of Gaussian 16 at Tue Feb 11 15:02:04 2020.

 -------------------------------------------------------------------
 #t pop=none jul-cc-pvdz guess=read ub3lyp empiricaldispersion=gd3bj
 -------------------------------------------------------------------
 ------------------------------
 theory_abbreviation b3lyp_d3bj
 ------------------------------
 Symbolic Z-matrix:
 Charge =  0 Multiplicity = 6

 SCF Done:  E(UB3LYP) =  -3034.38764282     A.U. after    1 cycles
 Normal termination of Gaussian 16 at Tue Feb 11 15:03:14 2020.

 ----------------------------------------
 #t pop=none jul-cc-pvdz guess=read ub97d
 ----------------------------------------
 ------------------------
 theory_abbreviation b97d
 ------------------------
 Symbolic Z-matrix:
 Charge =  0 Multiplicity = 6

 SCF Done:  E(UB97D) =  -3034.57076012     A.U. after   16 cycles

 ----------------------------------------------------------------
 #t pop=none jul-cc-pvdz guess=read ub97d empiricaldispersion=gd3
 ----------------------------------------------------------------
 -------------------------
 theory_abbreviation b97d3
 -------------------------
 Symbolic Z-matrix:
 Charge =  0 Multiplicity = 6

 SCF Done:  E(UB97D) =  -3034.57120975     A.U. after    1 cycles
 SCF Done:  E(UBHandHLYP) =  -3033.96273147     A.U. after   17 cycles
 SCF Done:  E(UBHandH) =  -3026.31390343     A.U. after   13 cycles
 SCF Done:  E(ULC-wPBE) =  -3033.45074290     A.U. after   18 cycles
 SCF Done:  E(UB-P86) =  -3034.62575208     A.U. after   18 cycles
 SCF Done:  E(UmPW1LYP) =  -3034.03744263     A.U. after   15 cycles
 SCF Done:  E(UmPW1PBE) =  -3033.88301400     A.U. after   15 cycles
 SCF Done:  E(UmPW3PBE) =  -3033.65508868     A.U. after   14 cycles
 SCF Done:  E(UM11) =  -3033.80318925     A.U. after   18 cycles
 SCF Done:  E(UN12SX) =  -3033.24818382     A.U. after   16 cycles
 SCF Done:  E(UMN12SX) =  -3033.64358550     A.U. after   16 cycles
 SCF Done:  E(UB1B95) =  -3034.37478831     A.U. after   16 cycles
 Normal termination of Gaussian 16 at Tue Feb 11 23:21:08 2020.
 SCF Done:  E(UB3PW91) =  -3033.97028777     A.U. after   15 cycles
 Normal termination of Gaussian 16 at Tue Feb 11 23:36:14 2020.
 SCF Done:  E(UM06L) =  -3034.18609334     A.U. after   17 cycles
 Normal termination of Gaussian 16 at Tue Feb 11 23:54:46 2020.
 Gaussian 16:  ES64L-G16RevA.03 25-Dec-2016

                         Standard orientation:
 ---------------------------------------------------------------------
 Center     Atomic      Atomic             Coordinates (Angstroms)
 Number     Number       Type             X           Y           Z
 ---------------------------------------------------------------------
      1          8           0       -0.352885   -0.088144   -0.414843
      2          6           0       -1.269102   -1.082072   -0.273471
      3          6           0       -2.502611   -0.472441    0.637192
      4          6           0       -2.838999    0.750733   -0.043269
      5          6           0       -3.889527    0.773698   -1.091360
      6         26           0        1.461003    0.171693   -0.076714
      7         17           0        1.698766    2.265534   -0.751735
      8          6           0       -2.068580    1.953473    0.178772
      9         17           0        2.561773   -1.360511   -1.209876
     10         17           0        1.741518   -0.007739    2.117778
     11          1           0       -3.306053   -1.206862    0.528087
     12          1           0       -2.439655    2.842885   -0.330668
     13          1           0       -1.807635    2.143757    1.222179
     14          1           0       -1.087738    1.626231   -0.273987
     15          1           0       -4.728760    1.364743   -0.691012
     16          1           0       -3.545580    1.309862   -1.984293
     17          1           0       -4.260817   -0.215771   -1.358505
     18          6           0       -2.069394   -0.307211    2.101961
     19          1           0       -2.775045    0.334426    2.639267
     20          1           0       -2.060797   -1.278244    2.599386
     21          1           0       -1.067721    0.120727    2.181980
     22          6           0       -0.724268   -2.297124    0.500394
     23          1           0       -1.510872   -3.031443    0.701492
     24          1           0        0.039375   -2.762861   -0.130358
     25          1           0       -0.247613   -2.002022    1.435104
     26          6           0       -1.770206   -1.535175   -1.653823
     27          1           0       -0.938186   -2.035350   -2.157230
     28          1           0       -2.606419   -2.239560   -1.583317
     29          1           0       -2.058320   -0.686477   -2.278035
 ---------------------------------------------------------------------

 SCF Done:  E(UB97D3) =  -3034.60595881     A.U. after   16 cycles
 Normal termination of Gaussian 16 at Wed Feb 12 00:08:11 2020.
