 Gaussian 16, Revision A.03,

 --------------------------------
 #t pop=none jul-cc-pvdz upbe1pbe
 --------------------------------
 ------------------------
 theory_abbreviation pbe0
 ------------------------
 Symbolic Z-matrix:
 Charge =  0 Multiplicity = 6

 SCF Done:  E(UPBE1PBE) =  -3033.10361048     A.U. after   21 cycles
 Normal termination of Gaussian 16 at Tue Feb 11 13:59:51 2020.

 ---------------------------------------------------------------------
 #t pop=none jul-cc-pvdz guess=read upbe1pbe empiricaldispersion=gd3bj
 ---------------------------------------------------------------------
 -----------------------------
 theory_abbreviation pbe0_d3bj
 -----------------------------
 Symbolic Z-matrix:
 Charge =  0 Multiplicity = 6

 SCF Done:  E(UPBE1PBE) =  -3033.14114762     A.U. after    1 cycles
 Normal termination of Gaussian 16 at Tue Feb 11 14:01:03 2020.

 -----------------------------------------
 #t pop=none jul-cc-pvdz guess=read ub3lyp
 -----------------------------------------
 -------------------------
 theory_abbreviation b3lyp
 -------------------------
 Symbolic Z-matrix:
 Charge =  0 Multiplicity = 6

 SCF Done:  E(UB3LYP) =  -3034.31685376     A.U. after   14 cycles
 Normal termination of Gaussian 16 at Tue Feb 11 14:16:08 2020.

 -------------------------------------------------------------------
 #t pop=none jul-cc-pvdz guess=read ub3lyp empiricaldispersion=gd3bj
 -------------------------------------------------------------------
 ------------------------------
 theory_abbreviation b3lyp_d3bj
 ------------------------------
 Symbolic Z-matrix:
 Charge =  0 Multiplicity = 6

 SCF Done:  E(UB3LYP) =  -3034.38679208     A.U. after    1 cycles
 Normal termination of Gaussian 16 at Tue Feb 11 14:17:19 2020.

 ----------------------------------------
 #t pop=none jul-cc-pvdz guess=read ub97d
 ----------------------------------------
 ------------------------
 theory_abbreviation b97d
 ------------------------
 Symbolic Z-matrix:
 Charge =  0 Multiplicity = 6

 SCF Done:  E(UB97D) =  -3034.56940903     A.U. after   15 cycles

 ----------------------------------------------------------------
 #t pop=none jul-cc-pvdz guess=read ub97d empiricaldispersion=gd3
 ----------------------------------------------------------------
 -------------------------
 theory_abbreviation b97d3
 -------------------------
 Symbolic Z-matrix:
 Charge =  0 Multiplicity = 6

 SCF Done:  E(UB97D) =  -3034.57034906     A.U. after    1 cycles
 SCF Done:  E(UBHandHLYP) =  -3033.95947600     A.U. after   17 cycles
 SCF Done:  E(UBHandH) =  -3026.30647256     A.U. after   14 cycles
 SCF Done:  E(ULC-wPBE) =  -3033.44406914     A.U. after   18 cycles
 SCF Done:  E(UB-P86) =  -3034.62281473     A.U. after   17 cycles
 SCF Done:  E(UmPW1LYP) =  -3034.03512568     A.U. after   14 cycles
 SCF Done:  E(UmPW1PBE) =  -3033.87805559     A.U. after   14 cycles
 SCF Done:  E(UmPW3PBE) =  -3033.65040317     A.U. after   13 cycles
 SCF Done:  E(UM11) =  -3033.80149601     A.U. after   19 cycles
 SCF Done:  E(UN12SX) =  -3033.24347281     A.U. after   17 cycles
 SCF Done:  E(UMN12SX) =  -3033.64232969     A.U. after   16 cycles
 SCF Done:  E(UB1B95) =  -3034.37255460     A.U. after   16 cycles
 Normal termination of Gaussian 16 at Tue Feb 11 22:58:39 2020.
 SCF Done:  E(UB3PW91) =  -3033.96579247     A.U. after   13 cycles
 Normal termination of Gaussian 16 at Tue Feb 11 23:12:39 2020.
 SCF Done:  E(UM06L) =  -3034.18399948     A.U. after   17 cycles
 Normal termination of Gaussian 16 at Tue Feb 11 23:31:54 2020.
 Gaussian 16:  ES64L-G16RevA.03 25-Dec-2016

                         Standard orientation:
 ---------------------------------------------------------------------
 Center     Atomic      Atomic             Coordinates (Angstroms)
 Number     Number       Type             X           Y           Z
 ---------------------------------------------------------------------
      1          8           0       -0.331312   -0.127387   -0.583097
      2          6           0       -1.276554   -1.039289   -0.508724
      3          6           0       -3.014515   -0.066949   -0.022371
      4          6           0       -2.253817    1.075137   -0.198508
      5          6           0       -2.137043    1.744704   -1.524203
      6         26           0        1.432182    0.056742    0.043761
      7         17           0        1.983431    2.034687   -0.753782
      8          6           0       -1.581307    1.768171    0.937243
      9         17           0        2.496675   -1.689984   -0.765778
     10         17           0        1.351720    0.025634    2.257037
     11          1           0       -3.619615   -0.365875   -0.875343
     12          1           0       -2.316556    2.458746    1.378390
     13          1           0       -1.255019    1.089350    1.725989
     14          1           0       -0.725270    2.355489    0.598442
     15          1           0       -2.578472    2.747042   -1.428750
     16          1           0       -1.082883    1.882374   -1.785054
     17          1           0       -2.661713    1.215496   -2.321732
     18          6           0       -3.565687   -0.500344    1.316568
     19          1           0       -4.468086    0.081602    1.543669
     20          1           0       -3.857078   -1.553746    1.303802
     21          1           0       -2.863043   -0.351588    2.138819
     22          6           0       -1.149338   -2.035518    0.618507
     23          1           0       -2.003505   -2.710332    0.688742
     24          1           0       -0.257465   -2.631214    0.376805
     25          1           0       -0.958647   -1.550151    1.576122
     26          6           0       -1.670671   -1.625180   -1.847930
     27          1           0       -0.804404   -2.211610   -2.182267
     28          1           0       -2.538766   -2.284978   -1.778455
     29          1           0       -1.843162   -0.846908   -2.592809
 ---------------------------------------------------------------------

 SCF Done:  E(UB97D3) =  -3034.60569475     A.U. after   15 cycles
 Normal termination of Gaussian 16 at Tue Feb 11 23:44:16 2020.
