 Gaussian 16, Revision A.03,

 --------------------------------
 #t pop=none jul-cc-pvdz upbe1pbe
 --------------------------------
 ------------------------
 theory_abbreviation pbe0
 ------------------------
 Symbolic Z-matrix:
 Charge =  0 Multiplicity = 6

 SCF Done:  E(UPBE1PBE) =  -3033.12729845     A.U. after   21 cycles
 Normal termination of Gaussian 16 at Tue Feb 11 13:59:37 2020.

 ---------------------------------------------------------------------
 #t pop=none jul-cc-pvdz guess=read upbe1pbe empiricaldispersion=gd3bj
 ---------------------------------------------------------------------
 -----------------------------
 theory_abbreviation pbe0_d3bj
 -----------------------------
 Symbolic Z-matrix:
 Charge =  0 Multiplicity = 6

 SCF Done:  E(UPBE1PBE) =  -3033.16443752     A.U. after    1 cycles
 Normal termination of Gaussian 16 at Tue Feb 11 14:00:47 2020.

 -----------------------------------------
 #t pop=none jul-cc-pvdz guess=read ub3lyp
 -----------------------------------------
 -------------------------
 theory_abbreviation b3lyp
 -------------------------
 Symbolic Z-matrix:
 Charge =  0 Multiplicity = 6

 SCF Done:  E(UB3LYP) =  -3034.34414310     A.U. after   13 cycles
 Normal termination of Gaussian 16 at Tue Feb 11 14:14:27 2020.

 -------------------------------------------------------------------
 #t pop=none jul-cc-pvdz guess=read ub3lyp empiricaldispersion=gd3bj
 -------------------------------------------------------------------
 ------------------------------
 theory_abbreviation b3lyp_d3bj
 ------------------------------
 Symbolic Z-matrix:
 Charge =  0 Multiplicity = 6

 SCF Done:  E(UB3LYP) =  -3034.41317366     A.U. after    1 cycles
 Normal termination of Gaussian 16 at Tue Feb 11 14:15:37 2020.

 ----------------------------------------
 #t pop=none jul-cc-pvdz guess=read ub97d
 ----------------------------------------
 ------------------------
 theory_abbreviation b97d
 ------------------------
 Symbolic Z-matrix:
 Charge =  0 Multiplicity = 6

 SCF Done:  E(UB97D) =  -3034.59717819     A.U. after   15 cycles

 ----------------------------------------------------------------
 #t pop=none jul-cc-pvdz guess=read ub97d empiricaldispersion=gd3
 ----------------------------------------------------------------
 -------------------------
 theory_abbreviation b97d3
 -------------------------
 Symbolic Z-matrix:
 Charge =  0 Multiplicity = 6

 SCF Done:  E(UB97D) =  -3034.59827599     A.U. after    1 cycles
 SCF Done:  E(UBHandHLYP) =  -3033.98500652     A.U. after   18 cycles
 SCF Done:  E(UBHandH) =  -3026.32552415     A.U. after   15 cycles
 SCF Done:  E(ULC-wPBE) =  -3033.46734351     A.U. after   19 cycles
 SCF Done:  E(UB-P86) =  -3034.64732434     A.U. after   16 cycles
 SCF Done:  E(UmPW1LYP) =  -3034.06230248     A.U. after   14 cycles
 SCF Done:  E(UmPW1PBE) =  -3033.90172824     A.U. after   14 cycles
 SCF Done:  E(UmPW3PBE) =  -3033.67470972     A.U. after   13 cycles
 SCF Done:  E(UM11) =  -3033.82491570     A.U. after   17 cycles
 SCF Done:  E(UN12SX) =  -3033.26618473     A.U. after   17 cycles
 SCF Done:  E(UMN12SX) =  -3033.66719131     A.U. after   16 cycles
 SCF Done:  E(UB1B95) =  -3034.39714753     A.U. after   14 cycles
 Normal termination of Gaussian 16 at Tue Feb 11 22:45:46 2020.
 SCF Done:  E(UB3PW91) =  -3033.99060869     A.U. after   13 cycles
 Normal termination of Gaussian 16 at Tue Feb 11 23:00:34 2020.
 SCF Done:  E(UM06L) =  -3034.21224433     A.U. after   17 cycles
 Normal termination of Gaussian 16 at Tue Feb 11 23:19:26 2020.
 Gaussian 16:  ES64L-G16RevA.03 25-Dec-2016

                         Standard orientation:
 ---------------------------------------------------------------------
 Center     Atomic      Atomic             Coordinates (Angstroms)
 Number     Number       Type             X           Y           Z
 ---------------------------------------------------------------------
      1          8           0       -0.236999   -0.296901   -0.830296
      2          6           0       -1.084231   -1.221833   -0.650328
      3          6           0       -2.906814   -0.228369    0.554341
      4          6           0       -2.646780    0.929784   -0.103563
      5          6           0       -3.238128    1.224889   -1.451137
      6         26           0        1.467985    0.151517   -0.007865
      7         17           0        2.035517    2.036002   -0.946484
      8          6           0       -1.735580    1.992736    0.423638
      9         17           0        2.695563   -1.586407   -0.524591
     10         17           0        1.142026    0.321169    2.162747
     11          1           0       -3.636192   -0.898834    0.101823
     12          1           0       -2.270396    2.949541    0.482139
     13          1           0       -1.316748    1.768270    1.403721
     14          1           0       -0.904256    2.148509   -0.277340
     15          1           0       -3.808123    2.161708   -1.403795
     16          1           0       -2.447207    1.384107   -2.196408
     17          1           0       -3.911061    0.437778   -1.800046
     18          6           0       -2.635006   -0.465899    2.020635
     19          1           0       -3.390832    0.056439    2.621631
     20          1           0       -2.706959   -1.526307    2.274421
     21          1           0       -1.654815   -0.106844    2.341676
     22          6           0       -0.841480   -2.254057    0.414343
     23          1           0       -1.719943   -2.871554    0.605131
     24          1           0       -0.043432   -2.897207    0.014925
     25          1           0       -0.469361   -1.814913    1.339377
     26          6           0       -1.870605   -1.658256   -1.857995
     27          1           0       -1.220462   -2.366634   -2.390983
     28          1           0       -2.792700   -2.179540   -1.597514
     29          1           0       -2.070189   -0.825701   -2.529916
 ---------------------------------------------------------------------

 SCF Done:  E(UB97D3) =  -3034.63343108     A.U. after   16 cycles
 Normal termination of Gaussian 16 at Tue Feb 11 23:32:15 2020.
