 Gaussian 16, Revision A.03,

 --------------------------------
 #t pop=none jul-cc-pvdz upbe1pbe
 --------------------------------
 ------------------------
 theory_abbreviation pbe0
 ------------------------
 Symbolic Z-matrix:
 Charge =  0 Multiplicity = 6

 SCF Done:  E(UPBE1PBE) =  -3033.10717738     A.U. after   21 cycles
 Normal termination of Gaussian 16 at Tue Feb 11 13:57:16 2020.

 ---------------------------------------------------------------------
 #t pop=none jul-cc-pvdz guess=read upbe1pbe empiricaldispersion=gd3bj
 ---------------------------------------------------------------------
 -----------------------------
 theory_abbreviation pbe0_d3bj
 -----------------------------
 Symbolic Z-matrix:
 Charge =  0 Multiplicity = 6

 SCF Done:  E(UPBE1PBE) =  -3033.14378973     A.U. after    1 cycles
 Normal termination of Gaussian 16 at Tue Feb 11 13:58:27 2020.

 -----------------------------------------
 #t pop=none jul-cc-pvdz guess=read ub3lyp
 -----------------------------------------
 -------------------------
 theory_abbreviation b3lyp
 -------------------------
 Symbolic Z-matrix:
 Charge =  0 Multiplicity = 6

 SCF Done:  E(UB3LYP) =  -3034.31802406     A.U. after   15 cycles
 Normal termination of Gaussian 16 at Tue Feb 11 14:14:02 2020.

 -------------------------------------------------------------------
 #t pop=none jul-cc-pvdz guess=read ub3lyp empiricaldispersion=gd3bj
 -------------------------------------------------------------------
 ------------------------------
 theory_abbreviation b3lyp_d3bj
 ------------------------------
 Symbolic Z-matrix:
 Charge =  0 Multiplicity = 6

 SCF Done:  E(UB3LYP) =  -3034.38635733     A.U. after    1 cycles
 Normal termination of Gaussian 16 at Tue Feb 11 14:15:12 2020.

 ----------------------------------------
 #t pop=none jul-cc-pvdz guess=read ub97d
 ----------------------------------------
 ------------------------
 theory_abbreviation b97d
 ------------------------
 Symbolic Z-matrix:
 Charge =  0 Multiplicity = 6

 SCF Done:  E(UB97D) =  -3034.56892374     A.U. after   16 cycles

 ----------------------------------------------------------------
 #t pop=none jul-cc-pvdz guess=read ub97d empiricaldispersion=gd3
 ----------------------------------------------------------------
 -------------------------
 theory_abbreviation b97d3
 -------------------------
 Symbolic Z-matrix:
 Charge =  0 Multiplicity = 6

 SCF Done:  E(UB97D) =  -3034.56954710     A.U. after    1 cycles
 SCF Done:  E(UBHandHLYP) =  -3033.96210053     A.U. after   17 cycles
 SCF Done:  E(UBHandH) =  -3026.31294023     A.U. after   13 cycles
 SCF Done:  E(ULC-wPBE) =  -3033.44976578     A.U. after   17 cycles
 SCF Done:  E(UB-P86) =  -3034.62390756     A.U. after   18 cycles
 SCF Done:  E(UmPW1LYP) =  -3034.03622160     A.U. after   15 cycles
 SCF Done:  E(UmPW1PBE) =  -3033.88152782     A.U. after   15 cycles
 SCF Done:  E(UmPW3PBE) =  -3033.65350757     A.U. after   14 cycles
 SCF Done:  E(UM11) =  -3033.80230151     A.U. after   18 cycles
 SCF Done:  E(UN12SX) =  -3033.24686687     A.U. after   15 cycles
 SCF Done:  E(UMN12SX) =  -3033.64287664     A.U. after   16 cycles
 SCF Done:  E(UB1B95) =  -3034.37349926     A.U. after   16 cycles
 Normal termination of Gaussian 16 at Tue Feb 11 22:44:14 2020.
 SCF Done:  E(UB3PW91) =  -3033.96870962     A.U. after   15 cycles
 Normal termination of Gaussian 16 at Tue Feb 11 23:01:16 2020.
 SCF Done:  E(UM06L) =  -3034.18489065     A.U. after   17 cycles
 Normal termination of Gaussian 16 at Tue Feb 11 23:19:51 2020.
 Gaussian 16:  ES64L-G16RevA.03 25-Dec-2016

                         Standard orientation:
 ---------------------------------------------------------------------
 Center     Atomic      Atomic             Coordinates (Angstroms)
 Number     Number       Type             X           Y           Z
 ---------------------------------------------------------------------
      1          8           0       -0.353668   -0.123860   -0.449650
      2          6           0       -1.267920   -1.118696   -0.297612
      3          6           0       -2.500799   -0.486327    0.598281
      4          6           0       -2.762703    0.770435   -0.053628
      5          6           0       -3.747574    0.861877   -1.158828
      6         26           0        1.440998    0.169147   -0.074784
      7         17           0        1.631142    2.280115   -0.732499
      8          6           0       -2.005405    1.963906    0.272666
      9         17           0        2.617764   -1.325196   -1.180174
     10         17           0        1.675289   -0.000573    2.128371
     11          1           0       -3.331766   -1.180166    0.438567
     12          1           0       -2.385670    2.879936   -0.181084
     13          1           0       -1.788077    2.084149    1.335984
     14          1           0       -1.010135    1.716854   -0.180080
     15          1           0       -4.573449    1.498109   -0.803405
     16          1           0       -3.316824    1.388520   -2.020026
     17          1           0       -4.155462   -0.101295   -1.464210
     18          6           0       -2.114861   -0.383264    2.080911
     19          1           0       -2.826878    0.251744    2.617956
     20          1           0       -2.141613   -1.372043    2.541476
     21          1           0       -1.108962    0.022399    2.210602
     22          6           0       -0.724818   -2.329058    0.481661
     23          1           0       -1.507850   -3.068712    0.677584
     24          1           0        0.045808   -2.791212   -0.143659
     25          1           0       -0.255719   -2.031706    1.419453
     26          6           0       -1.772758   -1.581702   -1.673509
     27          1           0       -0.944394   -2.094839   -2.169919
     28          1           0       -2.615241   -2.277852   -1.596299
     29          1           0       -2.050648   -0.737749   -2.307873
 ---------------------------------------------------------------------

 SCF Done:  E(UB97D3) =  -3034.60420689     A.U. after   16 cycles
 Normal termination of Gaussian 16 at Tue Feb 11 23:32:34 2020.
