 Gaussian 16, Revision A.03,

 --------------------------------
 #t pop=none jul-cc-pvdz upbe1pbe
 --------------------------------
 ------------------------
 theory_abbreviation pbe0
 ------------------------
 Symbolic Z-matrix:
 Charge =  0 Multiplicity = 6

 SCF Done:  E(UPBE1PBE) =  -3033.10021423     A.U. after   20 cycles
 Normal termination of Gaussian 16 at Tue Feb 11 13:58:00 2020.

 ---------------------------------------------------------------------
 #t pop=none jul-cc-pvdz guess=read upbe1pbe empiricaldispersion=gd3bj
 ---------------------------------------------------------------------
 -----------------------------
 theory_abbreviation pbe0_d3bj
 -----------------------------
 Symbolic Z-matrix:
 Charge =  0 Multiplicity = 6

 SCF Done:  E(UPBE1PBE) =  -3033.13830177     A.U. after    1 cycles
 Normal termination of Gaussian 16 at Tue Feb 11 13:59:14 2020.

 -----------------------------------------
 #t pop=none jul-cc-pvdz guess=read ub3lyp
 -----------------------------------------
 -------------------------
 theory_abbreviation b3lyp
 -------------------------
 Symbolic Z-matrix:
 Charge =  0 Multiplicity = 6

 SCF Done:  E(UB3LYP) =  -3034.31377859     A.U. after   14 cycles
 Normal termination of Gaussian 16 at Tue Feb 11 14:13:52 2020.

 -------------------------------------------------------------------
 #t pop=none jul-cc-pvdz guess=read ub3lyp empiricaldispersion=gd3bj
 -------------------------------------------------------------------
 ------------------------------
 theory_abbreviation b3lyp_d3bj
 ------------------------------
 Symbolic Z-matrix:
 Charge =  0 Multiplicity = 6

 SCF Done:  E(UB3LYP) =  -3034.38479136     A.U. after    1 cycles
 Normal termination of Gaussian 16 at Tue Feb 11 14:15:03 2020.

 ----------------------------------------
 #t pop=none jul-cc-pvdz guess=read ub97d
 ----------------------------------------
 ------------------------
 theory_abbreviation b97d
 ------------------------
 Symbolic Z-matrix:
 Charge =  0 Multiplicity = 6

 SCF Done:  E(UB97D) =  -3034.56700013     A.U. after   16 cycles

 ----------------------------------------------------------------
 #t pop=none jul-cc-pvdz guess=read ub97d empiricaldispersion=gd3
 ----------------------------------------------------------------
 -------------------------
 theory_abbreviation b97d3
 -------------------------
 Symbolic Z-matrix:
 Charge =  0 Multiplicity = 6

 SCF Done:  E(UB97D) =  -3034.56879266     A.U. after    1 cycles
 SCF Done:  E(UBHandHLYP) =  -3033.95580708     A.U. after   17 cycles
 SCF Done:  E(UBHandH) =  -3026.30264939     A.U. after   15 cycles
 SCF Done:  E(ULC-wPBE) =  -3033.44072308     A.U. after   19 cycles
 SCF Done:  E(UB-P86) =  -3034.62113863     A.U. after   17 cycles
 SCF Done:  E(UmPW1LYP) =  -3034.03192631     A.U. after   15 cycles
 SCF Done:  E(UmPW1PBE) =  -3033.87467618     A.U. after   15 cycles
 SCF Done:  E(UmPW3PBE) =  -3033.64717636     A.U. after   13 cycles
 SCF Done:  E(UM11) =  -3033.79765522     A.U. after   17 cycles
 SCF Done:  E(UN12SX) =  -3033.23978535     A.U. after   17 cycles
 SCF Done:  E(UMN12SX) =  -3033.63981274     A.U. after   15 cycles
 SCF Done:  E(UB1B95) =  -3034.37024807     A.U. after   15 cycles
 Normal termination of Gaussian 16 at Tue Feb 11 22:36:08 2020.
 SCF Done:  E(UB3PW91) =  -3033.96259067     A.U. after   15 cycles
 Normal termination of Gaussian 16 at Tue Feb 11 22:53:29 2020.
 SCF Done:  E(UM06L) =  -3034.18196656     A.U. after   17 cycles
 Normal termination of Gaussian 16 at Tue Feb 11 23:12:26 2020.
 Gaussian 16:  ES64L-G16RevA.03 25-Dec-2016

                         Standard orientation:
 ---------------------------------------------------------------------
 Center     Atomic      Atomic             Coordinates (Angstroms)
 Number     Number       Type             X           Y           Z
 ---------------------------------------------------------------------
      1          8           0       -0.351773   -0.075266   -0.514914
      2          6           0       -1.235622   -1.027142   -0.472016
      3          6           0       -3.127277    0.031336   -0.096170
      4          6           0       -2.218137    1.052364   -0.223125
      5          6           0       -2.009350    1.740871   -1.535184
      6         26           0        1.452537    0.054959    0.056927
      7         17           0        2.065701    1.984120   -0.791283
      8          6           0       -1.594182    1.720086    0.963810
      9         17           0        2.371484   -1.759871   -0.784483
     10         17           0        1.434201    0.030805    2.262758
     11          1           0       -3.656670   -0.263667   -0.999393
     12          1           0       -2.321748    2.446075    1.354690
     13          1           0       -1.351939    1.029759    1.772927
     14          1           0       -0.688891    2.263414    0.687239
     15          1           0       -2.515299    2.715021   -1.470556
     16          1           0       -0.950200    1.932335   -1.722291
     17          1           0       -2.448692    1.197351   -2.374703
     18          6           0       -3.763735   -0.415690    1.193080
     19          1           0       -4.688607    0.152753    1.359731
     20          1           0       -4.043662   -1.473218    1.160064
     21          1           0       -3.124365   -0.258794    2.064353
     22          6           0       -1.210606   -1.943953    0.717991
     23          1           0       -2.080926   -2.598932    0.767326
     24          1           0       -0.315735   -2.569350    0.581309
     25          1           0       -1.076564   -1.398235    1.652378
     26          6           0       -1.600868   -1.643006   -1.796420
     27          1           0       -0.728128   -2.246373   -2.085605
     28          1           0       -2.474526   -2.294662   -1.730710
     29          1           0       -1.740711   -0.885394   -2.568190
 ---------------------------------------------------------------------

 SCF Done:  E(UB97D3) =  -3034.60486630     A.U. after   15 cycles
 Normal termination of Gaussian 16 at Tue Feb 11 23:24:38 2020.
