 Gaussian 16, Revision A.03,

 --------------------------------
 #t pop=none jul-cc-pvdz upbe1pbe
 --------------------------------
 ------------------------
 theory_abbreviation pbe0
 ------------------------
 Symbolic Z-matrix:
 Charge =  0 Multiplicity = 6

 SCF Done:  E(UPBE1PBE) =  -3033.11199275     A.U. after   20 cycles
 Normal termination of Gaussian 16 at Tue Feb 11 13:56:47 2020.

 ---------------------------------------------------------------------
 #t pop=none jul-cc-pvdz guess=read upbe1pbe empiricaldispersion=gd3bj
 ---------------------------------------------------------------------
 -----------------------------
 theory_abbreviation pbe0_d3bj
 -----------------------------
 Symbolic Z-matrix:
 Charge =  0 Multiplicity = 6

 SCF Done:  E(UPBE1PBE) =  -3033.14891217     A.U. after    1 cycles
 Normal termination of Gaussian 16 at Tue Feb 11 13:58:03 2020.

 -----------------------------------------
 #t pop=none jul-cc-pvdz guess=read ub3lyp
 -----------------------------------------
 -------------------------
 theory_abbreviation b3lyp
 -------------------------
 Symbolic Z-matrix:
 Charge =  0 Multiplicity = 6

 SCF Done:  E(UB3LYP) =  -3034.32522378     A.U. after   13 cycles
 Normal termination of Gaussian 16 at Tue Feb 11 14:11:46 2020.

 -------------------------------------------------------------------
 #t pop=none jul-cc-pvdz guess=read ub3lyp empiricaldispersion=gd3bj
 -------------------------------------------------------------------
 ------------------------------
 theory_abbreviation b3lyp_d3bj
 ------------------------------
 Symbolic Z-matrix:
 Charge =  0 Multiplicity = 6

 SCF Done:  E(UB3LYP) =  -3034.39390848     A.U. after    1 cycles
 Normal termination of Gaussian 16 at Tue Feb 11 14:13:00 2020.

 ----------------------------------------
 #t pop=none jul-cc-pvdz guess=read ub97d
 ----------------------------------------
 ------------------------
 theory_abbreviation b97d
 ------------------------
 Symbolic Z-matrix:
 Charge =  0 Multiplicity = 6

 SCF Done:  E(UB97D) =  -3034.57550272     A.U. after   16 cycles

 ----------------------------------------------------------------
 #t pop=none jul-cc-pvdz guess=read ub97d empiricaldispersion=gd3
 ----------------------------------------------------------------
 -------------------------
 theory_abbreviation b97d3
 -------------------------
 Symbolic Z-matrix:
 Charge =  0 Multiplicity = 6

 SCF Done:  E(UB97D) =  -3034.57650415     A.U. after    1 cycles
 SCF Done:  E(UBHandHLYP) =  -3033.96792091     A.U. after   16 cycles
 SCF Done:  E(UBHandH) =  -3026.31329721     A.U. after   14 cycles
 SCF Done:  E(ULC-wPBE) =  -3033.45658779     A.U. after   17 cycles
 SCF Done:  E(UB-P86) =  -3034.63150897     A.U. after   16 cycles
 SCF Done:  E(UmPW1LYP) =  -3034.04352600     A.U. after   14 cycles
 SCF Done:  E(UmPW1PBE) =  -3033.88649193     A.U. after   14 cycles
 SCF Done:  E(UmPW3PBE) =  -3033.65875641     A.U. after   14 cycles
 SCF Done:  E(UM11) =  -3033.80686408     A.U. after   16 cycles
 SCF Done:  E(UN12SX) =  -3033.25217857     A.U. after   16 cycles
 SCF Done:  E(UMN12SX) =  -3033.64770067     A.U. after   16 cycles
 SCF Done:  E(UB1B95) =  -3034.37783368     A.U. after   15 cycles
 Normal termination of Gaussian 16 at Tue Feb 11 23:05:24 2020.
 SCF Done:  E(UB3PW91) =  -3033.97417534     A.U. after   14 cycles
 Normal termination of Gaussian 16 at Tue Feb 11 23:20:25 2020.
 SCF Done:  E(UM06L) =  -3034.18894498     A.U. after   18 cycles
 Normal termination of Gaussian 16 at Tue Feb 11 23:40:52 2020.
 Gaussian 16:  ES64L-G16RevA.03 25-Dec-2016

                         Standard orientation:
 ---------------------------------------------------------------------
 Center     Atomic      Atomic             Coordinates (Angstroms)
 Number     Number       Type             X           Y           Z
 ---------------------------------------------------------------------
      1          8           0       -0.388575   -0.207029   -0.546234
      2          6           0       -1.416333   -1.202841   -0.374395
      3          6           0       -2.789318   -0.132792   -0.194380
      4          6           0       -1.981518    1.133006   -0.269028
      5          6           0       -1.883821    1.861005   -1.555728
      6         26           0        1.376876    0.040065    0.032465
      7         17           0        1.814387    2.033358   -0.831895
      8          6           0       -1.571372    1.848824    0.960885
      9         17           0        2.527558   -1.669027   -0.718490
     10         17           0        1.331965    0.146335    2.246804
     11          1           0       -3.390866   -0.238884   -1.100767
     12          1           0       -2.441372    2.445769    1.281309
     13          1           0       -1.312271    1.173998    1.777307
     14          1           0       -0.739466    2.529649    0.769049
     15          1           0       -2.663780    2.640688   -1.543169
     16          1           0       -0.913273    2.356572   -1.648542
     17          1           0       -2.063512    1.210515   -2.412775
     18          6           0       -3.642548   -0.344524    1.047071
     19          1           0       -4.439730    0.405520    1.112445
     20          1           0       -4.120823   -1.327268    0.999706
     21          1           0       -3.060703   -0.302095    1.970556
     22          6           0       -1.177469   -2.056148    0.852699
     23          1           0       -1.996735   -2.765583    1.005814
     24          1           0       -0.254608   -2.629216    0.702431
     25          1           0       -1.045135   -1.453463    1.753022
     26          6           0       -1.542101   -2.014938   -1.647172
     27          1           0       -0.603635   -2.556072   -1.813902
     28          1           0       -2.359701   -2.740512   -1.574849
     29          1           0       -1.714148   -1.365957   -2.510697
 ---------------------------------------------------------------------

 SCF Done:  E(UB97D3) =  -3034.61172804     A.U. after   15 cycles
 Normal termination of Gaussian 16 at Tue Feb 11 23:53:14 2020.
