 Gaussian 16, Revision A.03,

 --------------------------------
 #t pop=none jul-cc-pvdz upbe1pbe
 --------------------------------
 ------------------------
 theory_abbreviation pbe0
 ------------------------
 Symbolic Z-matrix:
 Charge =  0 Multiplicity = 6

 SCF Done:  E(UPBE1PBE) =  -3033.11246308     A.U. after   21 cycles
 Normal termination of Gaussian 16 at Tue Feb 11 13:58:05 2020.

 ---------------------------------------------------------------------
 #t pop=none jul-cc-pvdz guess=read upbe1pbe empiricaldispersion=gd3bj
 ---------------------------------------------------------------------
 -----------------------------
 theory_abbreviation pbe0_d3bj
 -----------------------------
 Symbolic Z-matrix:
 Charge =  0 Multiplicity = 6

 SCF Done:  E(UPBE1PBE) =  -3033.14826990     A.U. after    1 cycles
 Normal termination of Gaussian 16 at Tue Feb 11 13:59:13 2020.

 -----------------------------------------
 #t pop=none jul-cc-pvdz guess=read ub3lyp
 -----------------------------------------
 -------------------------
 theory_abbreviation b3lyp
 -------------------------
 Symbolic Z-matrix:
 Charge =  0 Multiplicity = 6

 SCF Done:  E(UB3LYP) =  -3034.32562883     A.U. after   15 cycles
 Normal termination of Gaussian 16 at Tue Feb 11 14:14:44 2020.

 -------------------------------------------------------------------
 #t pop=none jul-cc-pvdz guess=read ub3lyp empiricaldispersion=gd3bj
 -------------------------------------------------------------------
 ------------------------------
 theory_abbreviation b3lyp_d3bj
 ------------------------------
 Symbolic Z-matrix:
 Charge =  0 Multiplicity = 6

 SCF Done:  E(UB3LYP) =  -3034.39244302     A.U. after    1 cycles
 Normal termination of Gaussian 16 at Tue Feb 11 14:15:57 2020.

 ----------------------------------------
 #t pop=none jul-cc-pvdz guess=read ub97d
 ----------------------------------------
 ------------------------
 theory_abbreviation b97d
 ------------------------
 Symbolic Z-matrix:
 Charge =  0 Multiplicity = 6

 SCF Done:  E(UB97D) =  -3034.57808541     A.U. after   16 cycles

 ----------------------------------------------------------------
 #t pop=none jul-cc-pvdz guess=read ub97d empiricaldispersion=gd3
 ----------------------------------------------------------------
 -------------------------
 theory_abbreviation b97d3
 -------------------------
 Symbolic Z-matrix:
 Charge =  0 Multiplicity = 6

 SCF Done:  E(UB97D) =  -3034.57812733     A.U. after    1 cycles
 SCF Done:  E(UBHandHLYP) =  -3033.96563118     A.U. after   17 cycles
 SCF Done:  E(UBHandH) =  -3026.31259697     A.U. after   16 cycles
 SCF Done:  E(ULC-wPBE) =  -3033.45049608     A.U. after   18 cycles
 SCF Done:  E(UB-P86) =  -3034.63110914     A.U. after   17 cycles
 SCF Done:  E(UmPW1LYP) =  -3034.04320810     A.U. after   15 cycles
 SCF Done:  E(UmPW1PBE) =  -3033.88700725     A.U. after   15 cycles
 SCF Done:  E(UmPW3PBE) =  -3033.65969622     A.U. after   15 cycles
 SCF Done:  E(UM11) =  -3033.80650222     A.U. after   19 cycles
 SCF Done:  E(UN12SX) =  -3033.25211922     A.U. after   17 cycles
 SCF Done:  E(UMN12SX) =  -3033.64720870     A.U. after   16 cycles
 SCF Done:  E(UB1B95) =  -3034.37904002     A.U. after   16 cycles
 Normal termination of Gaussian 16 at Tue Feb 11 22:59:52 2020.
 SCF Done:  E(UB3PW91) =  -3033.97520778     A.U. after   15 cycles
 Normal termination of Gaussian 16 at Tue Feb 11 23:15:10 2020.
 SCF Done:  E(UM06L) =  -3034.19140600     A.U. after   16 cycles
 Normal termination of Gaussian 16 at Tue Feb 11 23:33:02 2020.
 Gaussian 16:  ES64L-G16RevA.03 25-Dec-2016

                         Standard orientation:
 ---------------------------------------------------------------------
 Center     Atomic      Atomic             Coordinates (Angstroms)
 Number     Number       Type             X           Y           Z
 ---------------------------------------------------------------------
      1          8           0       -0.303929   -0.110267   -0.415173
      2          6           0       -1.221875   -1.051003   -0.196655
      3          6           0       -2.539870   -0.328663    0.793857
      4          6           0       -3.074600    0.668380   -0.058741
      5          6           0       -4.238978    0.402613   -0.941542
      6         26           0        1.526952    0.170856   -0.097651
      7         17           0        1.858783    2.168189   -0.957857
      8          6           0       -2.361074    1.943702   -0.196413
      9         17           0        2.531876   -1.505077   -1.111352
     10         17           0        1.852860    0.141100    2.090537
     11          1           0       -3.212158   -1.180857    0.910058
     12          1           0       -2.830512    2.645482   -0.887274
     13          1           0       -2.159253    2.422662    0.767274
     14          1           0       -1.350946    1.650444   -0.570233
     15          1           0       -5.066986    1.044022   -0.602032
     16          1           0       -4.030109    0.705305   -1.975115
     17          1           0       -4.572941   -0.635696   -0.913571
     18          6           0       -1.904389    0.135085    2.106847
     19          1           0       -2.566819    0.838334    2.622156
     20          1           0       -1.744222   -0.714775    2.771364
     21          1           0       -0.938808    0.616794    1.943769
     22          6           0       -0.739131   -2.195303    0.704833
     23          1           0       -1.549831   -2.877385    0.975538
     24          1           0        0.007738   -2.748570    0.124172
     25          1           0       -0.245990   -1.823479    1.602829
     26          6           0       -1.812591   -1.578448   -1.504343
     27          1           0       -1.030812   -2.161942   -2.001134
     28          1           0       -2.677742   -2.228701   -1.340732
     29          1           0       -2.084701   -0.761543   -2.176382
 ---------------------------------------------------------------------

 SCF Done:  E(UB97D3) =  -3034.61250145     A.U. after   16 cycles
 Normal termination of Gaussian 16 at Tue Feb 11 23:46:48 2020.
