 Gaussian 16, Revision A.03,

 --------------------------------
 #t pop=none jul-cc-pvdz upbe1pbe
 --------------------------------
 ------------------------
 theory_abbreviation pbe0
 ------------------------
 Symbolic Z-matrix:
 Charge =  0 Multiplicity = 6

 SCF Done:  E(UPBE1PBE) =  -3033.13846196     A.U. after   20 cycles
 Normal termination of Gaussian 16 at Wed Feb 12 14:11:28 2020.

 ---------------------------------------------------------------------
 #t pop=none jul-cc-pvdz guess=read upbe1pbe empiricaldispersion=gd3bj
 ---------------------------------------------------------------------
 -----------------------------
 theory_abbreviation pbe0_d3bj
 -----------------------------
 Symbolic Z-matrix:
 Charge =  0 Multiplicity = 6

 SCF Done:  E(UPBE1PBE) =  -3033.17449857     A.U. after    1 cycles
 Normal termination of Gaussian 16 at Wed Feb 12 14:12:37 2020.

 -----------------------------------------
 #t pop=none jul-cc-pvdz guess=read ub3lyp
 -----------------------------------------
 -------------------------
 theory_abbreviation b3lyp
 -------------------------
 Symbolic Z-matrix:
 Charge =  0 Multiplicity = 6

 SCF Done:  E(UB3LYP) =  -3034.35724863     A.U. after   13 cycles
 Normal termination of Gaussian 16 at Wed Feb 12 14:25:57 2020.

 -------------------------------------------------------------------
 #t pop=none jul-cc-pvdz guess=read ub3lyp empiricaldispersion=gd3bj
 -------------------------------------------------------------------
 ------------------------------
 theory_abbreviation b3lyp_d3bj
 ------------------------------
 Symbolic Z-matrix:
 Charge =  0 Multiplicity = 6

 SCF Done:  E(UB3LYP) =  -3034.42388191     A.U. after    1 cycles
 Normal termination of Gaussian 16 at Wed Feb 12 14:27:08 2020.

 ----------------------------------------
 #t pop=none jul-cc-pvdz guess=read ub97d
 ----------------------------------------
 ------------------------
 theory_abbreviation b97d
 ------------------------
 Symbolic Z-matrix:
 Charge =  0 Multiplicity = 6

 SCF Done:  E(UB97D) =  -3034.60692937     A.U. after   15 cycles

 ----------------------------------------------------------------
 #t pop=none jul-cc-pvdz guess=read ub97d empiricaldispersion=gd3
 ----------------------------------------------------------------
 -------------------------
 theory_abbreviation b97d3
 -------------------------
 Symbolic Z-matrix:
 Charge =  0 Multiplicity = 6

 SCF Done:  E(UB97D) =  -3034.60840276     A.U. after    1 cycles
 SCF Done:  E(UBHandHLYP) =  -3033.99902791     A.U. after   17 cycles
 SCF Done:  E(UBHandH) =  -3026.33397253     A.U. after   14 cycles
 SCF Done:  E(ULC-wPBE) =  -3033.47936691     A.U. after   17 cycles
 SCF Done:  E(UB-P86) =  -3034.65566992     A.U. after   17 cycles
 SCF Done:  E(UmPW1LYP) =  -3034.07559500     A.U. after   13 cycles
 SCF Done:  E(UmPW1PBE) =  -3033.91296206     A.U. after   14 cycles
 SCF Done:  E(UmPW3PBE) =  -3033.68596807     A.U. after   13 cycles
 SCF Done:  E(UM11) =  -3033.83678320     A.U. after   17 cycles
 SCF Done:  E(UN12SX) =  -3033.27740792     A.U. after   16 cycles
 SCF Done:  E(UMN12SX) =  -3033.67953803     A.U. after   16 cycles
 SCF Done:  E(UB1B95) =  -3034.40899961     A.U. after   14 cycles
 Normal termination of Gaussian 16 at Wed Feb 12 22:02:41 2020.
 SCF Done:  E(UB3PW91) =  -3034.00228314     A.U. after   13 cycles
 Normal termination of Gaussian 16 at Wed Feb 12 22:15:59 2020.
 SCF Done:  E(UM06L) =  -3034.22395106     A.U. after   18 cycles
 Normal termination of Gaussian 16 at Wed Feb 12 22:35:29 2020.
 Gaussian 16:  ES64L-G16RevA.03 25-Dec-2016

                         Standard orientation:
 ---------------------------------------------------------------------
 Center     Atomic      Atomic             Coordinates (Angstroms)
 Number     Number       Type             X           Y           Z
 ---------------------------------------------------------------------
      1          8           0        0.146823    0.429837   -0.900763
      2          6           0        0.929820    1.383643   -0.690199
      3          6           0        3.093333    0.137479    0.577196
      4          6           0        2.725451   -0.919880   -0.173454
      5          6           0        3.241268   -1.103547   -1.575705
      6         26           0       -1.500370   -0.178223    0.009808
      7         17           0       -2.050039   -2.001137   -1.037179
      8          6           0        1.802886   -2.008876    0.293560
      9         17           0       -2.793044    1.554348   -0.322371
     10         17           0       -1.038953   -0.469750    2.134106
     11          1           0        3.806478    0.835663    0.136884
     12          1           0        2.324111   -2.975327    0.278270
     13          1           0        1.409827   -1.850247    1.297507
     14          1           0        0.952934   -2.110196   -0.394364
     15          1           0        3.796922   -2.047321   -1.652881
     16          1           0        2.411819   -1.177023   -2.292100
     17          1           0        3.909154   -0.294510   -1.885616
     18          6           0        2.814074    0.343824    2.042303
     19          1           0        3.616210   -0.102190    2.646257
     20          1           0        2.787722    1.407654    2.298954
     21          1           0        1.871370   -0.103674    2.366122
     22          6           0        0.768534    2.261534    0.509825
     23          1           0        1.654003    2.869902    0.696545
     24          1           0       -0.077424    2.929513    0.288413
     25          1           0        0.500957    1.685628    1.396422
     26          6           0        1.784893    1.856713   -1.824992
     27          1           0        1.228723    2.673112   -2.309326
     28          1           0        2.736593    2.263035   -1.480092
     29          1           0        1.938692    1.066891   -2.558547
 ---------------------------------------------------------------------

 SCF Done:  E(UB97D3) =  -3034.64314474     A.U. after   16 cycles
 Normal termination of Gaussian 16 at Wed Feb 12 22:48:05 2020.
