 Gaussian 16, Revision A.03,

 --------------------------------
 #t pop=none jul-cc-pvdz upbe1pbe
 --------------------------------
 ------------------------
 theory_abbreviation pbe0
 ------------------------
 Symbolic Z-matrix:
 Charge =  0 Multiplicity = 6

 SCF Done:  E(UPBE1PBE) =  -3033.10571644     A.U. after   21 cycles
 Normal termination of Gaussian 16 at Tue Feb 11 13:57:42 2020.

 ---------------------------------------------------------------------
 #t pop=none jul-cc-pvdz guess=read upbe1pbe empiricaldispersion=gd3bj
 ---------------------------------------------------------------------
 -----------------------------
 theory_abbreviation pbe0_d3bj
 -----------------------------
 Symbolic Z-matrix:
 Charge =  0 Multiplicity = 6

 SCF Done:  E(UPBE1PBE) =  -3033.14238400     A.U. after    1 cycles
 Normal termination of Gaussian 16 at Tue Feb 11 13:58:55 2020.

 -----------------------------------------
 #t pop=none jul-cc-pvdz guess=read ub3lyp
 -----------------------------------------
 -------------------------
 theory_abbreviation b3lyp
 -------------------------
 Symbolic Z-matrix:
 Charge =  0 Multiplicity = 6

 SCF Done:  E(UB3LYP) =  -3034.31618929     A.U. after   15 cycles
 Normal termination of Gaussian 16 at Tue Feb 11 14:15:11 2020.

 -------------------------------------------------------------------
 #t pop=none jul-cc-pvdz guess=read ub3lyp empiricaldispersion=gd3bj
 -------------------------------------------------------------------
 ------------------------------
 theory_abbreviation b3lyp_d3bj
 ------------------------------
 Symbolic Z-matrix:
 Charge =  0 Multiplicity = 6

 SCF Done:  E(UB3LYP) =  -3034.38463989     A.U. after    1 cycles
 Normal termination of Gaussian 16 at Tue Feb 11 14:16:24 2020.

 ----------------------------------------
 #t pop=none jul-cc-pvdz guess=read ub97d
 ----------------------------------------
 ------------------------
 theory_abbreviation b97d
 ------------------------
 Symbolic Z-matrix:
 Charge =  0 Multiplicity = 6

 SCF Done:  E(UB97D) =  -3034.56681146     A.U. after   16 cycles

 ----------------------------------------------------------------
 #t pop=none jul-cc-pvdz guess=read ub97d empiricaldispersion=gd3
 ----------------------------------------------------------------
 -------------------------
 theory_abbreviation b97d3
 -------------------------
 Symbolic Z-matrix:
 Charge =  0 Multiplicity = 6

 SCF Done:  E(UB97D) =  -3034.56744885     A.U. after    2 cycles
 SCF Done:  E(UBHandHLYP) =  -3033.96100252     A.U. after   16 cycles
 SCF Done:  E(UBHandH) =  -3026.31243305     A.U. after   13 cycles
 SCF Done:  E(ULC-wPBE) =  -3033.44911695     A.U. after   17 cycles
 SCF Done:  E(UB-P86) =  -3034.62209762     A.U. after   18 cycles
 SCF Done:  E(UmPW1LYP) =  -3034.03446882     A.U. after   15 cycles
 SCF Done:  E(UmPW1PBE) =  -3033.88005823     A.U. after   15 cycles
 SCF Done:  E(UmPW3PBE) =  -3033.65191791     A.U. after   14 cycles
 SCF Done:  E(UM11) =  -3033.80075989     A.U. after   17 cycles
 SCF Done:  E(UN12SX) =  -3033.24535716     A.U. after   15 cycles
 SCF Done:  E(UMN12SX) =  -3033.64140185     A.U. after   16 cycles
 SCF Done:  E(UB1B95) =  -3034.37191608     A.U. after   16 cycles
 Normal termination of Gaussian 16 at Tue Feb 11 22:57:04 2020.
 SCF Done:  E(UB3PW91) =  -3033.96708583     A.U. after   15 cycles
 Normal termination of Gaussian 16 at Tue Feb 11 23:11:51 2020.
 SCF Done:  E(UM06L) =  -3034.18303481     A.U. after   17 cycles
 Normal termination of Gaussian 16 at Tue Feb 11 23:30:01 2020.
 Gaussian 16:  ES64L-G16RevA.03 25-Dec-2016

                         Standard orientation:
 ---------------------------------------------------------------------
 Center     Atomic      Atomic             Coordinates (Angstroms)
 Number     Number       Type             X           Y           Z
 ---------------------------------------------------------------------
      1          8           0       -0.350724   -0.127815   -0.440998
      2          6           0       -1.279774   -1.121205   -0.287250
      3          6           0       -2.471214   -0.504772    0.584807
      4          6           0       -2.760399    0.766924   -0.049946
      5          6           0       -3.778335    0.860591   -1.123029
      6         26           0        1.440123    0.169249   -0.075993
      7         17           0        1.595425    2.295967   -0.705891
      8          6           0       -2.000084    1.955051    0.266488
      9         17           0        2.630807   -1.292701   -1.209479
     10         17           0        1.692889   -0.024008    2.124104
     11          1           0       -3.315735   -1.187128    0.439975
     12          1           0       -2.380332    2.876254   -0.175924
     13          1           0       -1.744726    2.066736    1.322137
     14          1           0       -1.015695    1.689498   -0.210069
     15          1           0       -4.612169    1.457722   -0.719649
     16          1           0       -3.393281    1.429374   -1.978649
     17          1           0       -4.166416   -0.105130   -1.445543
     18          6           0       -2.096313   -0.393182    2.073242
     19          1           0       -2.813133    0.241501    2.603908
     20          1           0       -2.124617   -1.381213    2.535487
     21          1           0       -1.091428    0.013450    2.207018
     22          6           0       -0.722273   -2.342445    0.468716
     23          1           0       -1.501953   -3.086387    0.663522
     24          1           0        0.043585   -2.795316   -0.168372
     25          1           0       -0.246427   -2.055565    1.406620
     26          6           0       -1.773437   -1.573521   -1.673638
     27          1           0       -0.939356   -2.070690   -2.175777
     28          1           0       -2.609582   -2.278972   -1.608015
     29          1           0       -2.060199   -0.724147   -2.297676
 ---------------------------------------------------------------------

 SCF Done:  E(UB97D3) =  -3034.60223808     A.U. after   16 cycles
 Normal termination of Gaussian 16 at Tue Feb 11 23:42:28 2020.
