 Gaussian 16, Revision A.03,

 --------------------------------
 #t pop=none jul-cc-pvdz upbe1pbe
 --------------------------------
 ------------------------
 theory_abbreviation pbe0
 ------------------------
 Symbolic Z-matrix:
 Charge =  0 Multiplicity = 6

 SCF Done:  E(UPBE1PBE) =  -3033.10408486     A.U. after   21 cycles
 Normal termination of Gaussian 16 at Tue Feb 11 13:58:15 2020.

 ---------------------------------------------------------------------
 #t pop=none jul-cc-pvdz guess=read upbe1pbe empiricaldispersion=gd3bj
 ---------------------------------------------------------------------
 -----------------------------
 theory_abbreviation pbe0_d3bj
 -----------------------------
 Symbolic Z-matrix:
 Charge =  0 Multiplicity = 6

 SCF Done:  E(UPBE1PBE) =  -3033.14116310     A.U. after    1 cycles
 Normal termination of Gaussian 16 at Tue Feb 11 13:59:25 2020.

 -----------------------------------------
 #t pop=none jul-cc-pvdz guess=read ub3lyp
 -----------------------------------------
 -------------------------
 theory_abbreviation b3lyp
 -------------------------
 Symbolic Z-matrix:
 Charge =  0 Multiplicity = 6

 SCF Done:  E(UB3LYP) =  -3034.31669185     A.U. after   14 cycles
 Normal termination of Gaussian 16 at Tue Feb 11 14:14:03 2020.

 -------------------------------------------------------------------
 #t pop=none jul-cc-pvdz guess=read ub3lyp empiricaldispersion=gd3bj
 -------------------------------------------------------------------
 ------------------------------
 theory_abbreviation b3lyp_d3bj
 ------------------------------
 Symbolic Z-matrix:
 Charge =  0 Multiplicity = 6

 SCF Done:  E(UB3LYP) =  -3034.38572261     A.U. after    1 cycles
 Normal termination of Gaussian 16 at Tue Feb 11 14:15:24 2020.

 ----------------------------------------
 #t pop=none jul-cc-pvdz guess=read ub97d
 ----------------------------------------
 ------------------------
 theory_abbreviation b97d
 ------------------------
 Symbolic Z-matrix:
 Charge =  0 Multiplicity = 6

 SCF Done:  E(UB97D) =  -3034.56677443     A.U. after   15 cycles

 ----------------------------------------------------------------
 #t pop=none jul-cc-pvdz guess=read ub97d empiricaldispersion=gd3
 ----------------------------------------------------------------
 -------------------------
 theory_abbreviation b97d3
 -------------------------
 Symbolic Z-matrix:
 Charge =  0 Multiplicity = 6

 SCF Done:  E(UB97D) =  -3034.56776767     A.U. after    3 cycles
 SCF Done:  E(UBHandHLYP) =  -3033.96144750     A.U. after   17 cycles
 SCF Done:  E(UBHandH) =  -3026.30881714     A.U. after   13 cycles
 SCF Done:  E(ULC-wPBE) =  -3033.44721178     A.U. after   16 cycles
 SCF Done:  E(UB-P86) =  -3034.62123263     A.U. after   16 cycles
 SCF Done:  E(UmPW1LYP) =  -3034.03537179     A.U. after   13 cycles
 SCF Done:  E(UmPW1PBE) =  -3033.87846767     A.U. after   13 cycles
 SCF Done:  E(UmPW3PBE) =  -3033.65044517     A.U. after   13 cycles
 SCF Done:  E(UM11) =  -3033.80142935     A.U. after   17 cycles
 SCF Done:  E(UN12SX) =  -3033.24436122     A.U. after   16 cycles
 SCF Done:  E(UMN12SX) =  -3033.64190798     A.U. after   16 cycles
 SCF Done:  E(UB1B95) =  -3034.37071723     A.U. after   15 cycles
 Normal termination of Gaussian 16 at Tue Feb 11 22:33:49 2020.
 SCF Done:  E(UB3PW91) =  -3033.96575479     A.U. after   13 cycles
 Normal termination of Gaussian 16 at Tue Feb 11 22:49:17 2020.
 SCF Done:  E(UM06L) =  -3034.18209036     A.U. after   18 cycles
 Normal termination of Gaussian 16 at Tue Feb 11 23:14:36 2020.
 Gaussian 16:  ES64L-G16RevA.03 25-Dec-2016

                         Standard orientation:
 ---------------------------------------------------------------------
 Center     Atomic      Atomic             Coordinates (Angstroms)
 Number     Number       Type             X           Y           Z
 ---------------------------------------------------------------------
      1          8           0       -0.303564   -0.292834   -0.641270
      2          6           0       -1.366680   -1.154394   -0.488577
      3          6           0       -2.800220   -0.145256   -0.080413
      4          6           0       -2.131611    1.123072   -0.221793
      5          6           0       -1.995358    1.781309   -1.534517
      6         26           0        1.383090    0.037321    0.023252
      7         17           0        1.723865    2.102657   -0.742202
      8          6           0       -1.586592    1.833505    0.950135
      9         17           0        2.751845   -1.526107   -0.687082
     10         17           0        1.209032    0.051920    2.252595
     11          1           0       -3.479867   -0.330339   -0.913540
     12          1           0       -2.444297    2.261263    1.495343
     13          1           0       -1.089338    1.149667    1.646438
     14          1           0       -0.896577    2.630805    0.671297
     15          1           0       -2.529224    2.743369   -1.478772
     16          1           0       -0.937103    2.025222   -1.699287
     17          1           0       -2.394364    1.194449   -2.361805
     18          6           0       -3.441179   -0.473906    1.261313
     19          1           0       -4.276890    0.206617    1.463052
     20          1           0       -3.842604   -1.489856    1.246986
     21          1           0       -2.738480   -0.403069    2.093962
     22          6           0       -1.150525   -2.162891    0.625721
     23          1           0       -1.998938   -2.840998    0.747964
     24          1           0       -0.273495   -2.756458    0.338013
     25          1           0       -0.915012   -1.680302    1.575282
     26          6           0       -1.705108   -1.813931   -1.818439
     27          1           0       -0.841627   -2.420924   -2.113386
     28          1           0       -2.585919   -2.459544   -1.742831
     29          1           0       -1.865088   -1.066622   -2.599972
 ---------------------------------------------------------------------

 SCF Done:  E(UB97D3) =  -3034.60247599     A.U. after   14 cycles
 Normal termination of Gaussian 16 at Tue Feb 11 23:28:32 2020.
