 Gaussian 16, Revision A.03,

 --------------------------------
 #t pop=none jul-cc-pvdz upbe1pbe
 --------------------------------
 ------------------------
 theory_abbreviation pbe0
 ------------------------
 Symbolic Z-matrix:
 Charge =  0 Multiplicity = 6

 SCF Done:  E(UPBE1PBE) =  -3033.10895890     A.U. after   22 cycles
 Normal termination of Gaussian 16 at Tue Feb 11 20:06:10 2020.

 ---------------------------------------------------------------------
 #t pop=none jul-cc-pvdz guess=read upbe1pbe empiricaldispersion=gd3bj
 ---------------------------------------------------------------------
 -----------------------------
 theory_abbreviation pbe0_d3bj
 -----------------------------
 Symbolic Z-matrix:
 Charge =  0 Multiplicity = 6

 SCF Done:  E(UPBE1PBE) =  -3033.14544263     A.U. after    1 cycles
 Normal termination of Gaussian 16 at Tue Feb 11 20:07:17 2020.

 -----------------------------------------
 #t pop=none jul-cc-pvdz guess=read ub3lyp
 -----------------------------------------
 -------------------------
 theory_abbreviation b3lyp
 -------------------------
 Symbolic Z-matrix:
 Charge =  0 Multiplicity = 6

 SCF Done:  E(UB3LYP) =  -3034.32093634     A.U. after   15 cycles
 Normal termination of Gaussian 16 at Tue Feb 11 20:22:18 2020.

 -------------------------------------------------------------------
 #t pop=none jul-cc-pvdz guess=read ub3lyp empiricaldispersion=gd3bj
 -------------------------------------------------------------------
 ------------------------------
 theory_abbreviation b3lyp_d3bj
 ------------------------------
 Symbolic Z-matrix:
 Charge =  0 Multiplicity = 6

 SCF Done:  E(UB3LYP) =  -3034.38915518     A.U. after    1 cycles
 Normal termination of Gaussian 16 at Tue Feb 11 20:23:25 2020.

 ----------------------------------------
 #t pop=none jul-cc-pvdz guess=read ub97d
 ----------------------------------------
 ------------------------
 theory_abbreviation b97d
 ------------------------
 Symbolic Z-matrix:
 Charge =  0 Multiplicity = 6

 SCF Done:  E(UB97D) =  -3034.57463018     A.U. after   16 cycles

 ----------------------------------------------------------------
 #t pop=none jul-cc-pvdz guess=read ub97d empiricaldispersion=gd3
 ----------------------------------------------------------------
 -------------------------
 theory_abbreviation b97d3
 -------------------------
 Symbolic Z-matrix:
 Charge =  0 Multiplicity = 6

 SCF Done:  E(UB97D) =  -3034.57501396     A.U. after    3 cycles
 SCF Done:  E(UBHandHLYP) =  -3033.96211006     A.U. after   17 cycles
 SCF Done:  E(UBHandH) =  -3026.31108728     A.U. after   14 cycles
 SCF Done:  E(ULC-wPBE) =  -3033.44900150     A.U. after   18 cycles
 SCF Done:  E(UB-P86) =  -3034.62828471     A.U. after   17 cycles
 SCF Done:  E(UmPW1LYP) =  -3034.03867836     A.U. after   15 cycles
 SCF Done:  E(UmPW1PBE) =  -3033.88333705     A.U. after   15 cycles
 SCF Done:  E(UmPW3PBE) =  -3033.65582279     A.U. after   15 cycles
 SCF Done:  E(UM11) =  -3033.80415975     A.U. after   19 cycles
 SCF Done:  E(UN12SX) =  -3033.24895728     A.U. after   17 cycles
 SCF Done:  E(UMN12SX) =  -3033.64536361     A.U. after   17 cycles
 SCF Done:  E(UB1B95) =  -3034.37630000     A.U. after   17 cycles
 Normal termination of Gaussian 16 at Wed Feb 12 05:01:15 2020.
 SCF Done:  E(UB3PW91) =  -3033.97116282     A.U. after   15 cycles
 Normal termination of Gaussian 16 at Wed Feb 12 05:16:13 2020.
 SCF Done:  E(UM06L) =  -3034.18895262     A.U. after   17 cycles
 Normal termination of Gaussian 16 at Wed Feb 12 05:34:33 2020.
 Gaussian 16:  ES64L-G16RevA.03 25-Dec-2016

                         Standard orientation:
 ---------------------------------------------------------------------
 Center     Atomic      Atomic             Coordinates (Angstroms)
 Number     Number       Type             X           Y           Z
 ---------------------------------------------------------------------
      1          8           0       -0.239068   -0.386879   -0.614839
      2          6           0       -1.300732   -1.147643   -0.277411
      3          6           0       -2.311926   -0.300534    0.794921
      4          6           0       -2.971529    0.692145   -0.007119
      5          6           0       -4.340876    0.482005   -0.531647
      6         26           0        1.486885    0.125355   -0.100595
      7         17           0        2.809943   -0.393625   -1.770720
      8          6           0       -2.213280    1.866537   -0.438683
      9         17           0        2.063624   -0.878037    1.781905
     10         17           0        1.289767    2.320666    0.223525
     11          1           0       -3.023459   -1.060092    1.129005
     12          1           0       -2.751734    2.523257   -1.123099
     13          1           0       -1.795292    2.434336    0.400591
     14          1           0       -1.294557    1.452621   -0.914671
     15          1           0       -4.994567    1.216370   -0.033227
     16          1           0       -4.397300    0.712042   -1.602454
     17          1           0       -4.731755   -0.517101   -0.333276
     18          6           0       -1.472673    0.240165    1.961633
     19          1           0       -2.116595    0.795366    2.651406
     20          1           0       -1.011466   -0.576629    2.516178
     21          1           0       -0.678138    0.903391    1.620915
     22          6           0       -0.911603   -2.413241    0.511689
     23          1           0       -1.793673   -2.989765    0.805404
     24          1           0       -0.299881   -3.026443   -0.157858
     25          1           0       -0.306065   -2.183394    1.387087
     26          6           0       -2.075617   -1.541921   -1.544438
     27          1           0       -1.441056   -2.210930   -2.132409
     28          1           0       -3.009463   -2.065954   -1.314664
     29          1           0       -2.288714   -0.669438   -2.168493
 ---------------------------------------------------------------------

 SCF Done:  E(UB97D3) =  -3034.60893470     A.U. after   16 cycles
 Normal termination of Gaussian 16 at Wed Feb 12 05:47:08 2020.
