 Gaussian 16, Revision A.03,

 --------------------------------
 #t pop=none jul-cc-pvdz upbe1pbe
 --------------------------------
 ------------------------
 theory_abbreviation pbe0
 ------------------------
 Symbolic Z-matrix:
 Charge =  0 Multiplicity = 6

 SCF Done:  E(UPBE1PBE) =  -3033.10497001     A.U. after   20 cycles
 Normal termination of Gaussian 16 at Tue Feb 11 13:57:04 2020.

 ---------------------------------------------------------------------
 #t pop=none jul-cc-pvdz guess=read upbe1pbe empiricaldispersion=gd3bj
 ---------------------------------------------------------------------
 -----------------------------
 theory_abbreviation pbe0_d3bj
 -----------------------------
 Symbolic Z-matrix:
 Charge =  0 Multiplicity = 6

 SCF Done:  E(UPBE1PBE) =  -3033.14194221     A.U. after    1 cycles
 Normal termination of Gaussian 16 at Tue Feb 11 13:58:15 2020.

 -----------------------------------------
 #t pop=none jul-cc-pvdz guess=read ub3lyp
 -----------------------------------------
 -------------------------
 theory_abbreviation b3lyp
 -------------------------
 Symbolic Z-matrix:
 Charge =  0 Multiplicity = 6

 SCF Done:  E(UB3LYP) =  -3034.31819823     A.U. after   13 cycles
 Normal termination of Gaussian 16 at Tue Feb 11 14:11:53 2020.

 -------------------------------------------------------------------
 #t pop=none jul-cc-pvdz guess=read ub3lyp empiricaldispersion=gd3bj
 -------------------------------------------------------------------
 ------------------------------
 theory_abbreviation b3lyp_d3bj
 ------------------------------
 Symbolic Z-matrix:
 Charge =  0 Multiplicity = 6

 SCF Done:  E(UB3LYP) =  -3034.38699550     A.U. after    1 cycles
 Normal termination of Gaussian 16 at Tue Feb 11 14:13:12 2020.

 ----------------------------------------
 #t pop=none jul-cc-pvdz guess=read ub97d
 ----------------------------------------
 ------------------------
 theory_abbreviation b97d
 ------------------------
 Symbolic Z-matrix:
 Charge =  0 Multiplicity = 6

 SCF Done:  E(UB97D) =  -3034.56857802     A.U. after   15 cycles

 ----------------------------------------------------------------
 #t pop=none jul-cc-pvdz guess=read ub97d empiricaldispersion=gd3
 ----------------------------------------------------------------
 -------------------------
 theory_abbreviation b97d3
 -------------------------
 Symbolic Z-matrix:
 Charge =  0 Multiplicity = 6

 SCF Done:  E(UB97D) =  -3034.56953234     A.U. after    3 cycles
 SCF Done:  E(UBHandHLYP) =  -3033.96183933     A.U. after   15 cycles
 SCF Done:  E(UBHandH) =  -3026.30770583     A.U. after   13 cycles
 SCF Done:  E(ULC-wPBE) =  -3033.44848646     A.U. after   17 cycles
 SCF Done:  E(UB-P86) =  -3034.62365672     A.U. after   16 cycles
 SCF Done:  E(UmPW1LYP) =  -3034.03669352     A.U. after   14 cycles
 SCF Done:  E(UmPW1PBE) =  -3033.87944581     A.U. after   14 cycles
 SCF Done:  E(UmPW3PBE) =  -3033.65161307     A.U. after   13 cycles
 SCF Done:  E(UM11) =  -3033.80086409     A.U. after   16 cycles
 SCF Done:  E(UN12SX) =  -3033.24515469     A.U. after   15 cycles
 SCF Done:  E(UMN12SX) =  -3033.64192786     A.U. after   16 cycles
 SCF Done:  E(UB1B95) =  -3034.37112537     A.U. after   14 cycles
 Normal termination of Gaussian 16 at Tue Feb 11 22:24:50 2020.
 SCF Done:  E(UB3PW91) =  -3033.96700531     A.U. after   13 cycles
 Normal termination of Gaussian 16 at Tue Feb 11 22:39:40 2020.
 SCF Done:  E(UM06L) =  -3034.18246257     A.U. after   18 cycles
 Normal termination of Gaussian 16 at Tue Feb 11 23:00:47 2020.
 Gaussian 16:  ES64L-G16RevA.03 25-Dec-2016

                         Standard orientation:
 ---------------------------------------------------------------------
 Center     Atomic      Atomic             Coordinates (Angstroms)
 Number     Number       Type             X           Y           Z
 ---------------------------------------------------------------------
      1          8           0       -0.351818   -0.234499   -0.579827
      2          6           0       -1.385127   -1.185282   -0.426048
      3          6           0       -2.815512   -0.131877   -0.135644
      4          6           0       -2.053378    1.121640   -0.254942
      5          6           0       -1.939582    1.805894   -1.560907
      6         26           0        1.380175    0.040797    0.030858
      7         17           0        1.778514    2.066464   -0.794853
      8          6           0       -1.570769    1.842714    0.940904
      9         17           0        2.623985   -1.612912   -0.703091
     10         17           0        1.277997    0.112313    2.253379
     11          1           0       -3.458870   -0.275666   -1.006172
     12          1           0       -2.434198    2.410583    1.327757
     13          1           0       -1.242875    1.169842    1.735241
     14          1           0       -0.770297    2.543970    0.698315
     15          1           0       -2.644030    2.654522   -1.536153
     16          1           0       -0.933362    2.217340   -1.689530
     17          1           0       -2.205539    1.161374   -2.399388
     18          6           0       -3.559676   -0.399324    1.163233
     19          1           0       -4.379469    0.315901    1.300858
     20          1           0       -3.999320   -1.400167    1.136782
     21          1           0       -2.911629   -0.344003    2.040510
     22          6           0       -1.154871   -2.109364    0.749539
     23          1           0       -1.983700   -2.810428    0.883868
     24          1           0       -0.246573   -2.688474    0.539462
     25          1           0       -0.980682   -1.559308    1.675711
     26          6           0       -1.607742   -1.922647   -1.731764
     27          1           0       -0.696411   -2.487023   -1.962379
     28          1           0       -2.449391   -2.619781   -1.662831
     29          1           0       -1.782141   -1.223639   -2.554374
 ---------------------------------------------------------------------

 SCF Done:  E(UB97D3) =  -3034.60449903     A.U. after   15 cycles
 Normal termination of Gaussian 16 at Tue Feb 11 23:12:56 2020.
