 Gaussian 16, Revision A.03,

 --------------------------------
 #t pop=none jul-cc-pvdz upbe1pbe
 --------------------------------
 ------------------------
 theory_abbreviation pbe0
 ------------------------
 Symbolic Z-matrix:
 Charge =  0 Multiplicity = 6

 SCF Done:  E(UPBE1PBE) =  -3033.13103737     A.U. after   20 cycles
 Normal termination of Gaussian 16 at Tue Feb 11 20:17:36 2020.

 ---------------------------------------------------------------------
 #t pop=none jul-cc-pvdz guess=read upbe1pbe empiricaldispersion=gd3bj
 ---------------------------------------------------------------------
 -----------------------------
 theory_abbreviation pbe0_d3bj
 -----------------------------
 Symbolic Z-matrix:
 Charge =  0 Multiplicity = 6

 SCF Done:  E(UPBE1PBE) =  -3033.16807003     A.U. after    1 cycles
 Normal termination of Gaussian 16 at Tue Feb 11 20:18:48 2020.

 -----------------------------------------
 #t pop=none jul-cc-pvdz guess=read ub3lyp
 -----------------------------------------
 -------------------------
 theory_abbreviation b3lyp
 -------------------------
 Symbolic Z-matrix:
 Charge =  0 Multiplicity = 6

 SCF Done:  E(UB3LYP) =  -3034.34833284     A.U. after   13 cycles
 Normal termination of Gaussian 16 at Tue Feb 11 20:32:20 2020.

 -------------------------------------------------------------------
 #t pop=none jul-cc-pvdz guess=read ub3lyp empiricaldispersion=gd3bj
 -------------------------------------------------------------------
 ------------------------------
 theory_abbreviation b3lyp_d3bj
 ------------------------------
 Symbolic Z-matrix:
 Charge =  0 Multiplicity = 6

 SCF Done:  E(UB3LYP) =  -3034.41709262     A.U. after    1 cycles
 Normal termination of Gaussian 16 at Tue Feb 11 20:33:44 2020.

 ----------------------------------------
 #t pop=none jul-cc-pvdz guess=read ub97d
 ----------------------------------------
 ------------------------
 theory_abbreviation b97d
 ------------------------
 Symbolic Z-matrix:
 Charge =  0 Multiplicity = 6

 SCF Done:  E(UB97D) =  -3034.60053765     A.U. after   15 cycles

 ----------------------------------------------------------------
 #t pop=none jul-cc-pvdz guess=read ub97d empiricaldispersion=gd3
 ----------------------------------------------------------------
 -------------------------
 theory_abbreviation b97d3
 -------------------------
 Symbolic Z-matrix:
 Charge =  0 Multiplicity = 6

 SCF Done:  E(UB97D) =  -3034.60196240     A.U. after    1 cycles
 SCF Done:  E(UBHandHLYP) =  -3033.98987860     A.U. after   15 cycles
 SCF Done:  E(UBHandH) =  -3026.32914283     A.U. after   14 cycles
 SCF Done:  E(ULC-wPBE) =  -3033.47204177     A.U. after   19 cycles
 SCF Done:  E(UB-P86) =  -3034.65037414     A.U. after   16 cycles
 SCF Done:  E(UmPW1LYP) =  -3034.06662522     A.U. after   13 cycles
 SCF Done:  E(UmPW1PBE) =  -3033.90544287     A.U. after   13 cycles
 SCF Done:  E(UmPW3PBE) =  -3033.67838706     A.U. after   13 cycles
 SCF Done:  E(UM11) =  -3033.82961122     A.U. after   17 cycles
 SCF Done:  E(UN12SX) =  -3033.26990171     A.U. after   16 cycles
 SCF Done:  E(UMN12SX) =  -3033.67193051     A.U. after   16 cycles
 SCF Done:  E(UB1B95) =  -3034.40147006     A.U. after   14 cycles
 Normal termination of Gaussian 16 at Wed Feb 12 04:50:00 2020.
 SCF Done:  E(UB3PW91) =  -3033.99437994     A.U. after   13 cycles
 Normal termination of Gaussian 16 at Wed Feb 12 05:05:11 2020.
 SCF Done:  E(UM06L) =  -3034.21696484     A.U. after   17 cycles
 Normal termination of Gaussian 16 at Wed Feb 12 05:25:52 2020.
 Gaussian 16:  ES64L-G16RevA.03 25-Dec-2016

                         Standard orientation:
 ---------------------------------------------------------------------
 Center     Atomic      Atomic             Coordinates (Angstroms)
 Number     Number       Type             X           Y           Z
 ---------------------------------------------------------------------
      1          8           0        0.241346    0.310275   -0.840730
      2          6           0        1.050626    1.259012   -0.662387
      3          6           0        3.020251    0.129420    0.498260
      4          6           0        2.582657   -0.964010   -0.164776
      5          6           0        3.024104   -1.266280   -1.568960
      6         26           0       -1.463674   -0.144330    0.013813
      7         17           0       -2.073416   -2.002161   -0.943376
      8          6           0        1.664183   -1.990283    0.425676
      9         17           0       -2.663032    1.620771   -0.476768
     10         17           0       -1.117822   -0.325637    2.177368
     11          1           0        3.746867    0.762273   -0.010622
     12          1           0        2.197292   -2.945864    0.522118
     13          1           0        1.271630   -1.720006    1.405127
     14          1           0        0.818329   -2.179361   -0.246831
     15          1           0        3.503679   -2.253044   -1.601482
     16          1           0        2.159339   -1.322193   -2.243472
     17          1           0        3.737337   -0.532956   -1.954752
     18          6           0        2.852905    0.394659    1.972275
     19          1           0        3.653266   -0.105947    2.533741
     20          1           0        2.930123    1.461696    2.200274
     21          1           0        1.900648    0.032651    2.367669
     22          6           0        0.866802    2.213009    0.478267
     23          1           0        1.751959    2.825939    0.651178
     24          1           0        0.038267    2.873139    0.180425
     25          1           0        0.562085    1.705040    1.392965
     26          6           0        1.836794    1.733510   -1.850203
     27          1           0        1.202721    2.485814   -2.342077
     28          1           0        2.771598    2.218784   -1.566835
     29          1           0        2.012293    0.929663   -2.562458
 ---------------------------------------------------------------------

 SCF Done:  E(UB97D3) =  -3034.63684524     A.U. after   16 cycles
 Normal termination of Gaussian 16 at Wed Feb 12 05:39:29 2020.
