 Gaussian 16, Revision A.03,

 --------------------------------
 #t pop=none jul-cc-pvdz upbe1pbe
 --------------------------------
 ------------------------
 theory_abbreviation pbe0
 ------------------------
 Symbolic Z-matrix:
 Charge =  0 Multiplicity = 6

 SCF Done:  E(UPBE1PBE) =  -3033.10133961     A.U. after   21 cycles
 Normal termination of Gaussian 16 at Tue Feb 11 14:00:00 2020.

 ---------------------------------------------------------------------
 #t pop=none jul-cc-pvdz guess=read upbe1pbe empiricaldispersion=gd3bj
 ---------------------------------------------------------------------
 -----------------------------
 theory_abbreviation pbe0_d3bj
 -----------------------------
 Symbolic Z-matrix:
 Charge =  0 Multiplicity = 6

 SCF Done:  E(UPBE1PBE) =  -3033.13892070     A.U. after    1 cycles
 Normal termination of Gaussian 16 at Tue Feb 11 14:01:12 2020.

 -----------------------------------------
 #t pop=none jul-cc-pvdz guess=read ub3lyp
 -----------------------------------------
 -------------------------
 theory_abbreviation b3lyp
 -------------------------
 Symbolic Z-matrix:
 Charge =  0 Multiplicity = 6

 SCF Done:  E(UB3LYP) =  -3034.31440947     A.U. after   14 cycles
 Normal termination of Gaussian 16 at Tue Feb 11 14:16:21 2020.

 -------------------------------------------------------------------
 #t pop=none jul-cc-pvdz guess=read ub3lyp empiricaldispersion=gd3bj
 -------------------------------------------------------------------
 ------------------------------
 theory_abbreviation b3lyp_d3bj
 ------------------------------
 Symbolic Z-matrix:
 Charge =  0 Multiplicity = 6

 SCF Done:  E(UB3LYP) =  -3034.38443636     A.U. after    1 cycles
 Normal termination of Gaussian 16 at Tue Feb 11 14:17:33 2020.

 ----------------------------------------
 #t pop=none jul-cc-pvdz guess=read ub97d
 ----------------------------------------
 ------------------------
 theory_abbreviation b97d
 ------------------------
 Symbolic Z-matrix:
 Charge =  0 Multiplicity = 6

 SCF Done:  E(UB97D) =  -3034.56688955     A.U. after   15 cycles

 ----------------------------------------------------------------
 #t pop=none jul-cc-pvdz guess=read ub97d empiricaldispersion=gd3
 ----------------------------------------------------------------
 -------------------------
 theory_abbreviation b97d3
 -------------------------
 Symbolic Z-matrix:
 Charge =  0 Multiplicity = 6

 SCF Done:  E(UB97D) =  -3034.56791974     A.U. after    1 cycles
 SCF Done:  E(UBHandHLYP) =  -3033.95713131     A.U. after   18 cycles
 SCF Done:  E(UBHandH) =  -3026.30437415     A.U. after   14 cycles
 SCF Done:  E(ULC-wPBE) =  -3033.44188626     A.U. after   18 cycles
 SCF Done:  E(UB-P86) =  -3034.62060637     A.U. after   17 cycles
 SCF Done:  E(UmPW1LYP) =  -3034.03269219     A.U. after   15 cycles
 SCF Done:  E(UmPW1PBE) =  -3033.87578697     A.U. after   15 cycles
 SCF Done:  E(UmPW3PBE) =  -3033.64810230     A.U. after   13 cycles
 SCF Done:  E(UM11) =  -3033.79914419     A.U. after   19 cycles
 SCF Done:  E(UN12SX) =  -3033.24127300     A.U. after   17 cycles
 SCF Done:  E(UMN12SX) =  -3033.64022283     A.U. after   15 cycles
 SCF Done:  E(UB1B95) =  -3034.37045183     A.U. after   16 cycles
 Normal termination of Gaussian 16 at Tue Feb 11 22:58:41 2020.
 SCF Done:  E(UB3PW91) =  -3033.96346570     A.U. after   14 cycles
 Normal termination of Gaussian 16 at Tue Feb 11 23:13:47 2020.
 SCF Done:  E(UM06L) =  -3034.18157245     A.U. after   17 cycles
 Normal termination of Gaussian 16 at Tue Feb 11 23:33:04 2020.
 Gaussian 16:  ES64L-G16RevA.03 25-Dec-2016

                         Standard orientation:
 ---------------------------------------------------------------------
 Center     Atomic      Atomic             Coordinates (Angstroms)
 Number     Number       Type             X           Y           Z
 ---------------------------------------------------------------------
      1          8           0       -0.340127   -0.114912   -0.550358
      2          6           0       -1.281890   -1.037947   -0.480437
      3          6           0       -3.027433   -0.041287   -0.077646
      4          6           0       -2.218557    1.076666   -0.212469
      5          6           0       -2.045721    1.760289   -1.525187
      6         26           0        1.433244    0.051475    0.046283
      7         17           0        1.988651    2.020479   -0.773253
      8          6           0       -1.592228    1.751521    0.960801
      9         17           0        2.463312   -1.715194   -0.767222
     10         17           0        1.378666    0.037936    2.259885
     11          1           0       -3.598047   -0.317225   -0.961644
     12          1           0       -2.344293    2.437838    1.379441
     13          1           0       -1.303465    1.059676    1.753005
     14          1           0       -0.719457    2.338110    0.667961
     15          1           0       -2.560580    2.729893   -1.452843
     16          1           0       -0.989148    1.965583   -1.718565
     17          1           0       -2.485898    1.207250   -2.357025
     18          6           0       -3.653301   -0.468568    1.229204
     19          1           0       -4.558909    0.124140    1.411754
     20          1           0       -3.957212   -1.518388    1.198086
     21          1           0       -2.992155   -0.331336    2.087105
     22          6           0       -1.179991   -1.998971    0.677852
     23          1           0       -2.033850   -2.674485    0.746634
     24          1           0       -0.280368   -2.598726    0.478295
     25          1           0       -1.015001   -1.484336    1.625011
     26          6           0       -1.632119   -1.660952   -1.813198
     27          1           0       -0.751869   -2.248360   -2.107825
     28          1           0       -2.497573   -2.325076   -1.751065
     29          1           0       -1.788768   -0.902869   -2.582299
 ---------------------------------------------------------------------

 SCF Done:  E(UB97D3) =  -3034.60330945     A.U. after   15 cycles
 Normal termination of Gaussian 16 at Tue Feb 11 23:45:26 2020.
