 Gaussian 16, Revision A.03,

 --------------------------------
 #t pop=none jul-cc-pvdz upbe1pbe
 --------------------------------
 ------------------------
 theory_abbreviation pbe0
 ------------------------
 Symbolic Z-matrix:
 Charge =  0 Multiplicity = 6

 SCF Done:  E(UPBE1PBE) =  -3033.11893808     A.U. after   21 cycles
 Normal termination of Gaussian 16 at Tue Feb 11 13:59:25 2020.

 ---------------------------------------------------------------------
 #t pop=none jul-cc-pvdz guess=read upbe1pbe empiricaldispersion=gd3bj
 ---------------------------------------------------------------------
 -----------------------------
 theory_abbreviation pbe0_d3bj
 -----------------------------
 Symbolic Z-matrix:
 Charge =  0 Multiplicity = 6

 SCF Done:  E(UPBE1PBE) =  -3033.15519221     A.U. after    1 cycles
 Normal termination of Gaussian 16 at Tue Feb 11 14:00:35 2020.

 -----------------------------------------
 #t pop=none jul-cc-pvdz guess=read ub3lyp
 -----------------------------------------
 -------------------------
 theory_abbreviation b3lyp
 -------------------------
 Symbolic Z-matrix:
 Charge =  0 Multiplicity = 6

 SCF Done:  E(UB3LYP) =  -3034.33467767     A.U. after   15 cycles
 Normal termination of Gaussian 16 at Tue Feb 11 14:16:17 2020.

 -------------------------------------------------------------------
 #t pop=none jul-cc-pvdz guess=read ub3lyp empiricaldispersion=gd3bj
 -------------------------------------------------------------------
 ------------------------------
 theory_abbreviation b3lyp_d3bj
 ------------------------------
 Symbolic Z-matrix:
 Charge =  0 Multiplicity = 6

 SCF Done:  E(UB3LYP) =  -3034.40227783     A.U. after    1 cycles
 Normal termination of Gaussian 16 at Tue Feb 11 14:17:26 2020.

 ----------------------------------------
 #t pop=none jul-cc-pvdz guess=read ub97d
 ----------------------------------------
 ------------------------
 theory_abbreviation b97d
 ------------------------
 Symbolic Z-matrix:
 Charge =  0 Multiplicity = 6

 SCF Done:  E(UB97D) =  -3034.58737935     A.U. after   17 cycles

 ----------------------------------------------------------------
 #t pop=none jul-cc-pvdz guess=read ub97d empiricaldispersion=gd3
 ----------------------------------------------------------------
 -------------------------
 theory_abbreviation b97d3
 -------------------------
 Symbolic Z-matrix:
 Charge =  0 Multiplicity = 6

 SCF Done:  E(UB97D) =  -3034.58838641     A.U. after    1 cycles
 SCF Done:  E(UBHandHLYP) =  -3033.97360380     A.U. after   17 cycles
 SCF Done:  E(UBHandH) =  -3026.31636511     A.U. after   16 cycles
 SCF Done:  E(ULC-wPBE) =  -3033.45615732     A.U. after   18 cycles
 SCF Done:  E(UB-P86) =  -3034.63880028     A.U. after   17 cycles
 SCF Done:  E(UmPW1LYP) =  -3034.05229953     A.U. after   15 cycles
 SCF Done:  E(UmPW1PBE) =  -3033.89360363     A.U. after   16 cycles
 SCF Done:  E(UmPW3PBE) =  -3033.66664404     A.U. after   13 cycles
 SCF Done:  E(UM11) =  -3033.81447846     A.U. after   19 cycles
 SCF Done:  E(UN12SX) =  -3033.25806246     A.U. after   17 cycles
 SCF Done:  E(UMN12SX) =  -3033.65531137     A.U. after   17 cycles
 SCF Done:  E(UB1B95) =  -3034.38724124     A.U. after   16 cycles
 Normal termination of Gaussian 16 at Tue Feb 11 23:07:47 2020.
 SCF Done:  E(UB3PW91) =  -3033.98245789     A.U. after   15 cycles
 Normal termination of Gaussian 16 at Tue Feb 11 23:23:25 2020.
 SCF Done:  E(UM06L) =  -3034.19931578     A.U. after   16 cycles
 Normal termination of Gaussian 16 at Tue Feb 11 23:41:10 2020.
 Gaussian 16:  ES64L-G16RevA.03 25-Dec-2016

                         Standard orientation:
 ---------------------------------------------------------------------
 Center     Atomic      Atomic             Coordinates (Angstroms)
 Number     Number       Type             X           Y           Z
 ---------------------------------------------------------------------
      1          8           0       -0.296900   -0.189912   -0.468434
      2          6           0       -1.140101   -1.130330   -0.210999
      3          6           0       -2.660433   -0.200452    0.899820
      4          6           0       -3.094565    0.662554   -0.082539
      5          6           0       -4.206219    0.309430   -1.016826
      6         26           0        1.547831    0.174559   -0.103662
      7         17           0        1.878884    2.095493   -1.096916
      8          6           0       -2.403678    1.962856   -0.300847
      9         17           0        2.546677   -1.572263   -0.983943
     10         17           0        1.836004    0.279940    2.076519
     11          1           0       -3.267241   -1.092713    1.049725
     12          1           0       -2.900721    2.583178   -1.049888
     13          1           0       -2.289945    2.531786    0.627855
     14          1           0       -1.379141    1.740699   -0.648612
     15          1           0       -5.038934    1.005505   -0.842468
     16          1           0       -3.909537    0.447592   -2.064078
     17          1           0       -4.577080   -0.707853   -0.874091
     18          6           0       -1.909749    0.312022    2.112772
     19          1           0       -2.490964    1.099063    2.607591
     20          1           0       -1.747716   -0.482468    2.842774
     21          1           0       -0.935127    0.731924    1.854000
     22          6           0       -0.748528   -2.144749    0.848494
     23          1           0       -1.585778   -2.772138    1.161120
     24          1           0        0.006287   -2.785084    0.371624
     25          1           0       -0.276468   -1.675817    1.710871
     26          6           0       -1.836582   -1.715577   -1.421475
     27          1           0       -1.115564   -2.398857   -1.888288
     28          1           0       -2.729114   -2.288262   -1.159426
     29          1           0       -2.078825   -0.944223   -2.152680
 ---------------------------------------------------------------------

 SCF Done:  E(UB97D3) =  -3034.62338253     A.U. after   15 cycles
 Normal termination of Gaussian 16 at Tue Feb 11 23:52:59 2020.
