 Gaussian 16, Revision A.03,

 --------------------------------
 #t pop=none jul-cc-pvdz upbe1pbe
 --------------------------------
 ------------------------
 theory_abbreviation pbe0
 ------------------------
 Symbolic Z-matrix:
 Charge =  0 Multiplicity = 6

 SCF Done:  E(UPBE1PBE) =  -3033.10702827     A.U. after   21 cycles
 Normal termination of Gaussian 16 at Tue Feb 11 23:40:00 2020.

 ---------------------------------------------------------------------
 #t pop=none jul-cc-pvdz guess=read upbe1pbe empiricaldispersion=gd3bj
 ---------------------------------------------------------------------
 -----------------------------
 theory_abbreviation pbe0_d3bj
 -----------------------------
 Symbolic Z-matrix:
 Charge =  0 Multiplicity = 6

 SCF Done:  E(UPBE1PBE) =  -3033.14383333     A.U. after    1 cycles
 Normal termination of Gaussian 16 at Tue Feb 11 23:41:25 2020.

 -----------------------------------------
 #t pop=none jul-cc-pvdz guess=read ub3lyp
 -----------------------------------------
 -------------------------
 theory_abbreviation b3lyp
 -------------------------
 Symbolic Z-matrix:
 Charge =  0 Multiplicity = 6

 SCF Done:  E(UB3LYP) =  -3034.31897476     A.U. after   15 cycles
 Normal termination of Gaussian 16 at Tue Feb 11 23:58:12 2020.

 -------------------------------------------------------------------
 #t pop=none jul-cc-pvdz guess=read ub3lyp empiricaldispersion=gd3bj
 -------------------------------------------------------------------
 ------------------------------
 theory_abbreviation b3lyp_d3bj
 ------------------------------
 Symbolic Z-matrix:
 Charge =  0 Multiplicity = 6

 SCF Done:  E(UB3LYP) =  -3034.38759915     A.U. after    1 cycles
 Normal termination of Gaussian 16 at Tue Feb 11 23:59:28 2020.

 ----------------------------------------
 #t pop=none jul-cc-pvdz guess=read ub97d
 ----------------------------------------
 ------------------------
 theory_abbreviation b97d
 ------------------------
 Symbolic Z-matrix:
 Charge =  0 Multiplicity = 6

 SCF Done:  E(UB97D) =  -3034.57102423     A.U. after   16 cycles

 ----------------------------------------------------------------
 #t pop=none jul-cc-pvdz guess=read ub97d empiricaldispersion=gd3
 ----------------------------------------------------------------
 -------------------------
 theory_abbreviation b97d3
 -------------------------
 Symbolic Z-matrix:
 Charge =  0 Multiplicity = 6

 SCF Done:  E(UB97D) =  -3034.57152644     A.U. after    3 cycles
 SCF Done:  E(UBHandHLYP) =  -3033.96161012     A.U. after   17 cycles
 SCF Done:  E(UBHandH) =  -3026.31086019     A.U. after   16 cycles
 SCF Done:  E(ULC-wPBE) =  -3033.44797579     A.U. after   18 cycles
 SCF Done:  E(UB-P86) =  -3034.62489016     A.U. after   17 cycles
 SCF Done:  E(UmPW1LYP) =  -3034.03711661     A.U. after   15 cycles
 SCF Done:  E(UmPW1PBE) =  -3033.88136807     A.U. after   16 cycles
 SCF Done:  E(UmPW3PBE) =  -3033.65361955     A.U. after   15 cycles
 SCF Done:  E(UM11) =  -3033.80358654     A.U. after   19 cycles
 SCF Done:  E(UN12SX) =  -3033.24697891     A.U. after   17 cycles
 SCF Done:  E(UMN12SX) =  -3033.64373600     A.U. after   16 cycles
 SCF Done:  E(UB1B95) =  -3034.37428250     A.U. after   16 cycles
 Normal termination of Gaussian 16 at Wed Feb 12 08:46:38 2020.
 SCF Done:  E(UB3PW91) =  -3033.96888544     A.U. after   15 cycles
 Normal termination of Gaussian 16 at Wed Feb 12 09:03:02 2020.
 SCF Done:  E(UM06L) =  -3034.18657133     A.U. after   17 cycles
 Normal termination of Gaussian 16 at Wed Feb 12 09:22:38 2020.
 Gaussian 16:  ES64L-G16RevA.03 25-Dec-2016

                         Standard orientation:
 ---------------------------------------------------------------------
 Center     Atomic      Atomic             Coordinates (Angstroms)
 Number     Number       Type             X           Y           Z
 ---------------------------------------------------------------------
      1          8           0       -0.341086   -0.167653   -0.605511
      2          6           0       -1.251678   -1.133484   -0.444741
      3          6           0       -2.604049   -0.426127    0.509585
      4          6           0       -2.608169    0.866276   -0.063449
      5          6           0       -3.372422    1.156605   -1.305224
      6         26           0        1.414674    0.144576   -0.050086
      7         17           0        1.762091    2.183948   -0.833470
      8          6           0       -1.797420    1.965879    0.473004
      9         17           0        2.681298   -1.452443   -0.868952
     10         17           0        1.363023    0.155070    2.173141
     11          1           0       -3.439339   -1.040164    0.168892
     12          1           0       -2.206692    2.947126    0.218923
     13          1           0       -1.582063    1.887393    1.538350
     14          1           0       -0.824735    1.884232   -0.050863
     15          1           0       -4.081395    1.968027   -1.090194
     16          1           0       -2.694324    1.544361   -2.077768
     17          1           0       -3.925436    0.299152   -1.687992
     18          6           0       -2.337764   -0.543688    2.008226
     19          1           0       -3.063880    0.059821    2.563887
     20          1           0       -2.453914   -1.579138    2.332602
     21          1           0       -1.332733   -0.213895    2.279184
     22          6           0       -0.780940   -2.327655    0.386085
     23          1           0       -1.583640   -3.049287    0.562250
     24          1           0        0.006002   -2.815578   -0.200652
     25          1           0       -0.341313   -2.020574    1.334730
     26          6           0       -1.822072   -1.592440   -1.788302
     27          1           0       -1.026518   -2.151226   -2.292179
     28          1           0       -2.688077   -2.251514   -1.674008
     29          1           0       -2.076688   -0.750450   -2.432173
 ---------------------------------------------------------------------

 SCF Done:  E(UB97D3) =  -3034.60579585     A.U. after   16 cycles
 Normal termination of Gaussian 16 at Wed Feb 12 09:36:17 2020.
