 Gaussian 16, Revision A.03,

 --------------------------------
 #t pop=none jul-cc-pvdz upbe1pbe
 --------------------------------
 ------------------------
 theory_abbreviation pbe0
 ------------------------
 Symbolic Z-matrix:
 Charge =  0 Multiplicity = 6

 SCF Done:  E(UPBE1PBE) =  -3033.13821346     A.U. after   20 cycles
 Normal termination of Gaussian 16 at Wed Feb 12 14:11:32 2020.

 ---------------------------------------------------------------------
 #t pop=none jul-cc-pvdz guess=read upbe1pbe empiricaldispersion=gd3bj
 ---------------------------------------------------------------------
 -----------------------------
 theory_abbreviation pbe0_d3bj
 -----------------------------
 Symbolic Z-matrix:
 Charge =  0 Multiplicity = 6

 SCF Done:  E(UPBE1PBE) =  -3033.17436833     A.U. after    1 cycles
 Normal termination of Gaussian 16 at Wed Feb 12 14:12:41 2020.

 -----------------------------------------
 #t pop=none jul-cc-pvdz guess=read ub3lyp
 -----------------------------------------
 -------------------------
 theory_abbreviation b3lyp
 -------------------------
 Symbolic Z-matrix:
 Charge =  0 Multiplicity = 6

 SCF Done:  E(UB3LYP) =  -3034.35686473     A.U. after   13 cycles
 Normal termination of Gaussian 16 at Wed Feb 12 14:26:02 2020.

 -------------------------------------------------------------------
 #t pop=none jul-cc-pvdz guess=read ub3lyp empiricaldispersion=gd3bj
 -------------------------------------------------------------------
 ------------------------------
 theory_abbreviation b3lyp_d3bj
 ------------------------------
 Symbolic Z-matrix:
 Charge =  0 Multiplicity = 6

 SCF Done:  E(UB3LYP) =  -3034.42374138     A.U. after    1 cycles
 Normal termination of Gaussian 16 at Wed Feb 12 14:27:12 2020.

 ----------------------------------------
 #t pop=none jul-cc-pvdz guess=read ub97d
 ----------------------------------------
 ------------------------
 theory_abbreviation b97d
 ------------------------
 Symbolic Z-matrix:
 Charge =  0 Multiplicity = 6

 SCF Done:  E(UB97D) =  -3034.60675134     A.U. after   15 cycles

 ----------------------------------------------------------------
 #t pop=none jul-cc-pvdz guess=read ub97d empiricaldispersion=gd3
 ----------------------------------------------------------------
 -------------------------
 theory_abbreviation b97d3
 -------------------------
 Symbolic Z-matrix:
 Charge =  0 Multiplicity = 6

 SCF Done:  E(UB97D) =  -3034.60830537     A.U. after    1 cycles
 SCF Done:  E(UBHandHLYP) =  -3033.99871536     A.U. after   18 cycles
 SCF Done:  E(UBHandH) =  -3026.33402672     A.U. after   14 cycles
 SCF Done:  E(ULC-wPBE) =  -3033.47931456     A.U. after   17 cycles
 SCF Done:  E(UB-P86) =  -3034.65559289     A.U. after   17 cycles
 SCF Done:  E(UmPW1LYP) =  -3034.07522568     A.U. after   13 cycles
 SCF Done:  E(UmPW1PBE) =  -3033.91269220     A.U. after   14 cycles
 SCF Done:  E(UmPW3PBE) =  -3033.68568315     A.U. after   13 cycles
 SCF Done:  E(UM11) =  -3033.83679433     A.U. after   17 cycles
 SCF Done:  E(UN12SX) =  -3033.27716905     A.U. after   16 cycles
 SCF Done:  E(UMN12SX) =  -3033.67945198     A.U. after   16 cycles
 SCF Done:  E(UB1B95) =  -3034.40885916     A.U. after   14 cycles
 Normal termination of Gaussian 16 at Wed Feb 12 22:03:35 2020.
 SCF Done:  E(UB3PW91) =  -3034.00197018     A.U. after   13 cycles
 Normal termination of Gaussian 16 at Wed Feb 12 22:16:57 2020.
 SCF Done:  E(UM06L) =  -3034.22389086     A.U. after   17 cycles
 Normal termination of Gaussian 16 at Wed Feb 12 22:35:40 2020.
 Gaussian 16:  ES64L-G16RevA.03 25-Dec-2016

                         Standard orientation:
 ---------------------------------------------------------------------
 Center     Atomic      Atomic             Coordinates (Angstroms)
 Number     Number       Type             X           Y           Z
 ---------------------------------------------------------------------
      1          8           0        0.165675    0.418783   -0.890066
      2          6           0        0.940219    1.379652   -0.681061
      3          6           0        3.103451    0.110929    0.564238
      4          6           0        2.693494   -0.929869   -0.187388
      5          6           0        3.181138   -1.117793   -1.599130
      6         26           0       -1.492194   -0.173389    0.013225
      7         17           0       -2.057981   -1.991263   -1.033932
      8          6           0        1.762342   -2.005962    0.291659
      9         17           0       -2.766418    1.570972   -0.331606
     10         17           0       -1.049630   -0.461438    2.142130
     11          1           0        3.824103    0.795662    0.115086
     12          1           0        2.277950   -2.975676    0.286394
     13          1           0        1.372107   -1.834746    1.294577
     14          1           0        0.911697   -2.110241   -0.394336
     15          1           0        3.712365   -2.074276   -1.690419
     16          1           0        2.337937   -1.167324   -2.301204
     17          1           0        3.863216   -0.323418   -1.916040
     18          6           0        2.850075    0.318816    2.033435
     19          1           0        3.659878   -0.130626    2.624510
     20          1           0        2.832674    1.383025    2.290146
     21          1           0        1.910734   -0.124439    2.372765
     22          6           0        0.783245    2.249295    0.525464
     23          1           0        1.668005    2.859619    0.709606
     24          1           0       -0.066406    2.915951    0.314500
     25          1           0        0.524256    1.666714    1.410216
     26          6           0        1.786053    1.865797   -1.817086
     27          1           0        1.228014    2.690526   -2.284845
     28          1           0        2.741588    2.265341   -1.474429
     29          1           0        1.931934    1.085957   -2.562694
 ---------------------------------------------------------------------

 SCF Done:  E(UB97D3) =  -3034.64296644     A.U. after   16 cycles
 Normal termination of Gaussian 16 at Wed Feb 12 22:48:18 2020.
