 Gaussian 16, Revision A.03,

 --------------------------------
 #t pop=none jul-cc-pvdz upbe1pbe
 --------------------------------
 ------------------------
 theory_abbreviation pbe0
 ------------------------
 Symbolic Z-matrix:
 Charge =  0 Multiplicity = 6

 SCF Done:  E(UPBE1PBE) =  -3033.12335159     A.U. after   21 cycles
 Normal termination of Gaussian 16 at Tue Feb 11 13:59:40 2020.

 ---------------------------------------------------------------------
 #t pop=none jul-cc-pvdz guess=read upbe1pbe empiricaldispersion=gd3bj
 ---------------------------------------------------------------------
 -----------------------------
 theory_abbreviation pbe0_d3bj
 -----------------------------
 Symbolic Z-matrix:
 Charge =  0 Multiplicity = 6

 SCF Done:  E(UPBE1PBE) =  -3033.15974427     A.U. after    1 cycles
 Normal termination of Gaussian 16 at Tue Feb 11 14:00:50 2020.

 -----------------------------------------
 #t pop=none jul-cc-pvdz guess=read ub3lyp
 -----------------------------------------
 -------------------------
 theory_abbreviation b3lyp
 -------------------------
 Symbolic Z-matrix:
 Charge =  0 Multiplicity = 6

 SCF Done:  E(UB3LYP) =  -3034.34010940     A.U. after   15 cycles
 Normal termination of Gaussian 16 at Tue Feb 11 14:16:23 2020.

 -------------------------------------------------------------------
 #t pop=none jul-cc-pvdz guess=read ub3lyp empiricaldispersion=gd3bj
 -------------------------------------------------------------------
 ------------------------------
 theory_abbreviation b3lyp_d3bj
 ------------------------------
 Symbolic Z-matrix:
 Charge =  0 Multiplicity = 6

 SCF Done:  E(UB3LYP) =  -3034.40788735     A.U. after    1 cycles
 Normal termination of Gaussian 16 at Tue Feb 11 14:17:32 2020.

 ----------------------------------------
 #t pop=none jul-cc-pvdz guess=read ub97d
 ----------------------------------------
 ------------------------
 theory_abbreviation b97d
 ------------------------
 Symbolic Z-matrix:
 Charge =  0 Multiplicity = 6

 SCF Done:  E(UB97D) =  -3034.59236982     A.U. after   16 cycles

 ----------------------------------------------------------------
 #t pop=none jul-cc-pvdz guess=read ub97d empiricaldispersion=gd3
 ----------------------------------------------------------------
 -------------------------
 theory_abbreviation b97d3
 -------------------------
 Symbolic Z-matrix:
 Charge =  0 Multiplicity = 6

 SCF Done:  E(UB97D) =  -3034.59371297     A.U. after    1 cycles
 SCF Done:  E(UBHandHLYP) =  -3033.97956717     A.U. after   18 cycles
 SCF Done:  E(UBHandH) =  -3026.32034313     A.U. after   16 cycles
 SCF Done:  E(ULC-wPBE) =  -3033.46139755     A.U. after   19 cycles
 SCF Done:  E(UB-P86) =  -3034.64308605     A.U. after   17 cycles
 SCF Done:  E(UmPW1LYP) =  -3034.05789268     A.U. after   16 cycles
 SCF Done:  E(UmPW1PBE) =  -3033.89802430     A.U. after   16 cycles
 SCF Done:  E(UmPW3PBE) =  -3033.67110780     A.U. after   13 cycles
 SCF Done:  E(UM11) =  -3033.81914106     A.U. after   17 cycles
 SCF Done:  E(UN12SX) =  -3033.26214393     A.U. after   16 cycles
 SCF Done:  E(UMN12SX) =  -3033.66075845     A.U. after   17 cycles
 SCF Done:  E(UB1B95) =  -3034.39231852     A.U. after   14 cycles
 Normal termination of Gaussian 16 at Tue Feb 11 22:58:35 2020.
 SCF Done:  E(UB3PW91) =  -3033.98706263     A.U. after   15 cycles
 Normal termination of Gaussian 16 at Tue Feb 11 23:14:05 2020.
 SCF Done:  E(UM06L) =  -3034.20533401     A.U. after   17 cycles
 Normal termination of Gaussian 16 at Tue Feb 11 23:32:42 2020.
 Gaussian 16:  ES64L-G16RevA.03 25-Dec-2016

                         Standard orientation:
 ---------------------------------------------------------------------
 Center     Atomic      Atomic             Coordinates (Angstroms)
 Number     Number       Type             X           Y           Z
 ---------------------------------------------------------------------
      1          8           0       -0.291007   -0.241758   -0.527161
      2          6           0       -1.099702   -1.194743   -0.276316
      3          6           0       -2.734005   -0.193672    0.902418
      4          6           0       -3.054035    0.692919   -0.086151
      5          6           0       -4.111959    0.401493   -1.105776
      6         26           0        1.543407    0.182424   -0.095125
      7         17           0        1.861754    2.091611   -1.105514
      8          6           0       -2.321886    1.987280   -0.227734
      9         17           0        2.592402   -1.557512   -0.922351
     10         17           0        1.765089    0.316663    2.087219
     11          1           0       -3.349904   -1.088803    0.977966
     12          1           0       -2.828502    2.675135   -0.909465
     13          1           0       -2.162974    2.485183    0.733379
     14          1           0       -1.321631    1.775974   -0.640193
     15          1           0       -4.935552    1.116670   -0.973670
     16          1           0       -3.739854    0.551619   -2.127255
     17          1           0       -4.522462   -0.607090   -1.016067
     18          6           0       -1.984711    0.222649    2.147470
     19          1           0       -2.539446    1.009858    2.672863
     20          1           0       -1.869596   -0.611605    2.841911
     21          1           0       -0.988931    0.616743    1.929540
     22          6           0       -0.745654   -2.173876    0.817981
     23          1           0       -1.596966   -2.780225    1.132648
     24          1           0        0.008465   -2.840102    0.374605
     25          1           0       -0.281561   -1.684630    1.673231
     26          6           0       -1.848547   -1.762329   -1.455981
     27          1           0       -1.161995   -2.474441   -1.934039
     28          1           0       -2.749311   -2.304892   -1.162797
     29          1           0       -2.084483   -0.989623   -2.186586
 ---------------------------------------------------------------------

 SCF Done:  E(UB97D3) =  -3034.62894216     A.U. after   15 cycles
 Normal termination of Gaussian 16 at Tue Feb 11 23:44:28 2020.
