 Gaussian 16, Revision A.03,

 --------------------------------
 #t pop=none jul-cc-pvdz upbe1pbe
 --------------------------------
 ------------------------
 theory_abbreviation pbe0
 ------------------------
 Symbolic Z-matrix:
 Charge =  0 Multiplicity = 6

 SCF Done:  E(UPBE1PBE) =  -3033.13224877     A.U. after   19 cycles
 Normal termination of Gaussian 16 at Tue Feb 11 14:45:54 2020.

 ---------------------------------------------------------------------
 #t pop=none jul-cc-pvdz guess=read upbe1pbe empiricaldispersion=gd3bj
 ---------------------------------------------------------------------
 -----------------------------
 theory_abbreviation pbe0_d3bj
 -----------------------------
 Symbolic Z-matrix:
 Charge =  0 Multiplicity = 6

 SCF Done:  E(UPBE1PBE) =  -3033.16914722     A.U. after    1 cycles
 Normal termination of Gaussian 16 at Tue Feb 11 14:47:06 2020.

 -----------------------------------------
 #t pop=none jul-cc-pvdz guess=read ub3lyp
 -----------------------------------------
 -------------------------
 theory_abbreviation b3lyp
 -------------------------
 Symbolic Z-matrix:
 Charge =  0 Multiplicity = 6

 SCF Done:  E(UB3LYP) =  -3034.34979746     A.U. after   13 cycles
 Normal termination of Gaussian 16 at Tue Feb 11 15:00:55 2020.

 -------------------------------------------------------------------
 #t pop=none jul-cc-pvdz guess=read ub3lyp empiricaldispersion=gd3bj
 -------------------------------------------------------------------
 ------------------------------
 theory_abbreviation b3lyp_d3bj
 ------------------------------
 Symbolic Z-matrix:
 Charge =  0 Multiplicity = 6

 SCF Done:  E(UB3LYP) =  -3034.41825461     A.U. after    1 cycles
 Normal termination of Gaussian 16 at Tue Feb 11 15:02:06 2020.

 ----------------------------------------
 #t pop=none jul-cc-pvdz guess=read ub97d
 ----------------------------------------
 ------------------------
 theory_abbreviation b97d
 ------------------------
 Symbolic Z-matrix:
 Charge =  0 Multiplicity = 6

 SCF Done:  E(UB97D) =  -3034.60128267     A.U. after   15 cycles

 ----------------------------------------------------------------
 #t pop=none jul-cc-pvdz guess=read ub97d empiricaldispersion=gd3
 ----------------------------------------------------------------
 -------------------------
 theory_abbreviation b97d3
 -------------------------
 Symbolic Z-matrix:
 Charge =  0 Multiplicity = 6

 SCF Done:  E(UB97D) =  -3034.60300375     A.U. after    2 cycles
 SCF Done:  E(UBHandHLYP) =  -3033.99167851     A.U. after   15 cycles
 SCF Done:  E(UBHandH) =  -3026.33013615     A.U. after   14 cycles
 SCF Done:  E(ULC-wPBE) =  -3033.47372382     A.U. after   18 cycles
 SCF Done:  E(UB-P86) =  -3034.65109590     A.U. after   17 cycles
 SCF Done:  E(UmPW1LYP) =  -3034.06813806     A.U. after   13 cycles
 SCF Done:  E(UmPW1PBE) =  -3033.90667184     A.U. after   14 cycles
 SCF Done:  E(UmPW3PBE) =  -3033.67959024     A.U. after   13 cycles
 SCF Done:  E(UM11) =  -3033.83125505     A.U. after   17 cycles
 SCF Done:  E(UN12SX) =  -3033.27111306     A.U. after   16 cycles
 SCF Done:  E(UMN12SX) =  -3033.67351223     A.U. after   16 cycles
 SCF Done:  E(UB1B95) =  -3034.40295775     A.U. after   14 cycles
 Normal termination of Gaussian 16 at Tue Feb 11 23:16:52 2020.
 SCF Done:  E(UB3PW91) =  -3033.99565158     A.U. after   13 cycles
 Normal termination of Gaussian 16 at Tue Feb 11 23:29:58 2020.
 SCF Done:  E(UM06L) =  -3034.21844352     A.U. after   17 cycles
 Normal termination of Gaussian 16 at Tue Feb 11 23:48:29 2020.
 Gaussian 16:  ES64L-G16RevA.03 25-Dec-2016

                         Standard orientation:
 ---------------------------------------------------------------------
 Center     Atomic      Atomic             Coordinates (Angstroms)
 Number     Number       Type             X           Y           Z
 ---------------------------------------------------------------------
      1          8           0        0.251243    0.312220   -0.824217
      2          6           0        1.032237    1.280571   -0.652459
      3          6           0        3.116091    0.051578    0.429034
      4          6           0        2.537987   -0.985860   -0.211203
      5          6           0        2.852526   -1.299768   -1.647614
      6         26           0       -1.463875   -0.138483    0.031568
      7         17           0       -2.096622   -1.975923   -0.946353
      8          6           0        1.617683   -1.972497    0.444343
      9         17           0       -2.630786    1.649234   -0.458577
     10         17           0       -1.137343   -0.328445    2.194602
     11          1           0        3.835587    0.647005   -0.133175
     12          1           0        2.141275   -2.931184    0.563052
     13          1           0        1.261843   -1.660894    1.425828
     14          1           0        0.748963   -2.176994   -0.191931
     15          1           0        3.260845   -2.315762   -1.724695
     16          1           0        1.938642   -1.287683   -2.255659
     17          1           0        3.583845   -0.610571   -2.079186
     18          6           0        3.055158    0.339688    1.905109
     19          1           0        3.900751   -0.138995    2.417722
     20          1           0        3.133093    1.412357    2.109953
     21          1           0        2.139183   -0.028141    2.374543
     22          6           0        0.895312    2.178611    0.536561
     23          1           0        1.783895    2.790910    0.693366
     24          1           0        0.047331    2.844486    0.315860
     25          1           0        0.642879    1.621899    1.439182
     26          6           0        1.802464    1.784593   -1.835535
     27          1           0        1.171998    2.562255   -2.291979
     28          1           0        2.747182    2.248278   -1.548343
     29          1           0        1.957485    1.001611   -2.575435
 ---------------------------------------------------------------------

 SCF Done:  E(UB97D3) =  -3034.63771380     A.U. after   16 cycles
 Normal termination of Gaussian 16 at Wed Feb 12 00:01:59 2020.
