 Gaussian 16, Revision A.03,

 --------------------------------
 #t pop=none jul-cc-pvdz upbe1pbe
 --------------------------------
 ------------------------
 theory_abbreviation pbe0
 ------------------------
 Symbolic Z-matrix:
 Charge =  0 Multiplicity = 6

 SCF Done:  E(UPBE1PBE) =  -3033.12053952     A.U. after   19 cycles
 Normal termination of Gaussian 16 at Tue Feb 11 20:04:31 2020.

 ---------------------------------------------------------------------
 #t pop=none jul-cc-pvdz guess=read upbe1pbe empiricaldispersion=gd3bj
 ---------------------------------------------------------------------
 -----------------------------
 theory_abbreviation pbe0_d3bj
 -----------------------------
 Symbolic Z-matrix:
 Charge =  0 Multiplicity = 6

 SCF Done:  E(UPBE1PBE) =  -3033.15738582     A.U. after    1 cycles
 Normal termination of Gaussian 16 at Tue Feb 11 20:05:44 2020.

 -----------------------------------------
 #t pop=none jul-cc-pvdz guess=read ub3lyp
 -----------------------------------------
 -------------------------
 theory_abbreviation b3lyp
 -------------------------
 Symbolic Z-matrix:
 Charge =  0 Multiplicity = 6

 SCF Done:  E(UB3LYP) =  -3034.33323075     A.U. after   13 cycles
 Normal termination of Gaussian 16 at Tue Feb 11 20:19:56 2020.

 -------------------------------------------------------------------
 #t pop=none jul-cc-pvdz guess=read ub3lyp empiricaldispersion=gd3bj
 -------------------------------------------------------------------
 ------------------------------
 theory_abbreviation b3lyp_d3bj
 ------------------------------
 Symbolic Z-matrix:
 Charge =  0 Multiplicity = 6

 SCF Done:  E(UB3LYP) =  -3034.40177871     A.U. after    1 cycles
 Normal termination of Gaussian 16 at Tue Feb 11 20:21:09 2020.

 ----------------------------------------
 #t pop=none jul-cc-pvdz guess=read ub97d
 ----------------------------------------
 ------------------------
 theory_abbreviation b97d
 ------------------------
 Symbolic Z-matrix:
 Charge =  0 Multiplicity = 6

 SCF Done:  E(UB97D) =  -3034.58334196     A.U. after   16 cycles

 ----------------------------------------------------------------
 #t pop=none jul-cc-pvdz guess=read ub97d empiricaldispersion=gd3
 ----------------------------------------------------------------
 -------------------------
 theory_abbreviation b97d3
 -------------------------
 Symbolic Z-matrix:
 Charge =  0 Multiplicity = 6

 SCF Done:  E(UB97D) =  -3034.58413878     A.U. after    1 cycles
 SCF Done:  E(UBHandHLYP) =  -3033.97512052     A.U. after   16 cycles
 SCF Done:  E(UBHandH) =  -3026.32095244     A.U. after   14 cycles
 SCF Done:  E(ULC-wPBE) =  -3033.46622549     A.U. after   17 cycles
 SCF Done:  E(UB-P86) =  -3034.63985874     A.U. after   16 cycles
 SCF Done:  E(UmPW1LYP) =  -3034.05138060     A.U. after   14 cycles
 SCF Done:  E(UmPW1PBE) =  -3033.89501537     A.U. after   14 cycles
 SCF Done:  E(UmPW3PBE) =  -3033.66725833     A.U. after   13 cycles
 SCF Done:  E(UM11) =  -3033.81550914     A.U. after   16 cycles
 SCF Done:  E(UN12SX) =  -3033.26100547     A.U. after   16 cycles
 SCF Done:  E(UMN12SX) =  -3033.65511253     A.U. after   15 cycles
 SCF Done:  E(UB1B95) =  -3034.38633134     A.U. after   14 cycles
 Normal termination of Gaussian 16 at Wed Feb 12 04:28:43 2020.
 SCF Done:  E(UB3PW91) =  -3033.98263992     A.U. after   14 cycles
 Normal termination of Gaussian 16 at Wed Feb 12 04:42:44 2020.
 SCF Done:  E(UM06L) =  -3034.19607570     A.U. after   18 cycles
 Normal termination of Gaussian 16 at Wed Feb 12 05:02:10 2020.
 Gaussian 16:  ES64L-G16RevA.03 25-Dec-2016

                         Standard orientation:
 ---------------------------------------------------------------------
 Center     Atomic      Atomic             Coordinates (Angstroms)
 Number     Number       Type             X           Y           Z
 ---------------------------------------------------------------------
      1          8           0       -0.442191   -0.151630   -0.491805
      2          6           0       -1.439825   -1.205906   -0.340640
      3          6           0       -2.793726   -0.104120   -0.216072
      4          6           0       -1.899932    1.126421   -0.281786
      5          6           0       -1.821038    1.878336   -1.564383
      6         26           0        1.371141    0.040036    0.040684
      7         17           0        1.876510    1.990627   -0.855904
      8          6           0       -1.544894    1.866942    0.960316
      9         17           0        2.391497   -1.730137   -0.749103
     10         17           0        1.389943    0.142285    2.245619
     11          1           0       -3.371506   -0.192480   -1.139643
     12          1           0       -2.408967    2.497198    1.220869
     13          1           0       -1.341127    1.205474    1.802439
     14          1           0       -0.684355    2.519561    0.796958
     15          1           0       -2.640687    2.614064   -1.563413
     16          1           0       -0.874301    2.418211   -1.645359
     17          1           0       -1.951792    1.223151   -2.427400
     18          6           0       -3.690685   -0.263920    0.998958
     19          1           0       -4.453926    0.522786    1.033999
     20          1           0       -4.212886   -1.224299    0.947927
     21          1           0       -3.134675   -0.236539    1.939060
     22          6           0       -1.205708   -2.026123    0.907529
     23          1           0       -2.021209   -2.741288    1.056254
     24          1           0       -0.273849   -2.592914    0.796243
     25          1           0       -1.108696   -1.401114    1.797243
     26          6           0       -1.492728   -2.031637   -1.606776
     27          1           0       -0.533546   -2.543706   -1.743944
     28          1           0       -2.286580   -2.784205   -1.546349
     29          1           0       -1.667986   -1.398933   -2.481516
 ---------------------------------------------------------------------

 SCF Done:  E(UB97D3) =  -3034.61925853     A.U. after   15 cycles
 Normal termination of Gaussian 16 at Wed Feb 12 05:14:12 2020.
