 Gaussian 16, Revision A.03,

 --------------------------------
 #t pop=none jul-cc-pvdz upbe1pbe
 --------------------------------
 ------------------------
 theory_abbreviation pbe0
 ------------------------
 Symbolic Z-matrix:
 Charge =  0 Multiplicity = 6

 SCF Done:  E(UPBE1PBE) =  -3033.12679539     A.U. after   21 cycles
 Normal termination of Gaussian 16 at Tue Feb 11 14:48:01 2020.

 ---------------------------------------------------------------------
 #t pop=none jul-cc-pvdz guess=read upbe1pbe empiricaldispersion=gd3bj
 ---------------------------------------------------------------------
 -----------------------------
 theory_abbreviation pbe0_d3bj
 -----------------------------
 Symbolic Z-matrix:
 Charge =  0 Multiplicity = 6

 SCF Done:  E(UPBE1PBE) =  -3033.16406666     A.U. after    1 cycles
 Normal termination of Gaussian 16 at Tue Feb 11 14:49:12 2020.

 -----------------------------------------
 #t pop=none jul-cc-pvdz guess=read ub3lyp
 -----------------------------------------
 -------------------------
 theory_abbreviation b3lyp
 -------------------------
 Symbolic Z-matrix:
 Charge =  0 Multiplicity = 6

 SCF Done:  E(UB3LYP) =  -3034.34344477     A.U. after   13 cycles
 Normal termination of Gaussian 16 at Tue Feb 11 15:03:04 2020.

 -------------------------------------------------------------------
 #t pop=none jul-cc-pvdz guess=read ub3lyp empiricaldispersion=gd3bj
 -------------------------------------------------------------------
 ------------------------------
 theory_abbreviation b3lyp_d3bj
 ------------------------------
 Symbolic Z-matrix:
 Charge =  0 Multiplicity = 6

 SCF Done:  E(UB3LYP) =  -3034.41274583     A.U. after    1 cycles
 Normal termination of Gaussian 16 at Tue Feb 11 15:04:14 2020.

 ----------------------------------------
 #t pop=none jul-cc-pvdz guess=read ub97d
 ----------------------------------------
 ------------------------
 theory_abbreviation b97d
 ------------------------
 Symbolic Z-matrix:
 Charge =  0 Multiplicity = 6

 SCF Done:  E(UB97D) =  -3034.59662737     A.U. after   15 cycles

 ----------------------------------------------------------------
 #t pop=none jul-cc-pvdz guess=read ub97d empiricaldispersion=gd3
 ----------------------------------------------------------------
 -------------------------
 theory_abbreviation b97d3
 -------------------------
 Symbolic Z-matrix:
 Charge =  0 Multiplicity = 6

 SCF Done:  E(UB97D) =  -3034.59779200     A.U. after    1 cycles
 SCF Done:  E(UBHandHLYP) =  -3033.98446203     A.U. after   18 cycles
 SCF Done:  E(UBHandH) =  -3026.32542866     A.U. after   14 cycles
 SCF Done:  E(ULC-wPBE) =  -3033.46708737     A.U. after   19 cycles
 SCF Done:  E(UB-P86) =  -3034.64693846     A.U. after   16 cycles
 SCF Done:  E(UmPW1LYP) =  -3034.06162935     A.U. after   14 cycles
 SCF Done:  E(UmPW1PBE) =  -3033.90120237     A.U. after   14 cycles
 SCF Done:  E(UmPW3PBE) =  -3033.67415168     A.U. after   13 cycles
 SCF Done:  E(UM11) =  -3033.82467203     A.U. after   17 cycles
 SCF Done:  E(UN12SX) =  -3033.26570280     A.U. after   17 cycles
 SCF Done:  E(UMN12SX) =  -3033.66686118     A.U. after   16 cycles
 SCF Done:  E(UB1B95) =  -3034.39675431     A.U. after   14 cycles
 Normal termination of Gaussian 16 at Tue Feb 11 23:25:30 2020.
 SCF Done:  E(UB3PW91) =  -3033.99001520     A.U. after   13 cycles
 Normal termination of Gaussian 16 at Tue Feb 11 23:38:35 2020.
 SCF Done:  E(UM06L) =  -3034.21189581     A.U. after   17 cycles
 Normal termination of Gaussian 16 at Tue Feb 11 23:57:01 2020.
 Gaussian 16:  ES64L-G16RevA.03 25-Dec-2016

                         Standard orientation:
 ---------------------------------------------------------------------
 Center     Atomic      Atomic             Coordinates (Angstroms)
 Number     Number       Type             X           Y           Z
 ---------------------------------------------------------------------
      1          8           0       -0.248913   -0.282754   -0.827372
      2          6           0       -1.092908   -1.211690   -0.651585
      3          6           0       -2.925142   -0.203378    0.525797
      4          6           0       -2.604726    0.946377   -0.118981
      5          6           0       -3.140365    1.265422   -1.484114
      6         26           0        1.460208    0.144143   -0.001417
      7         17           0        2.047278    2.030232   -0.924829
      8          6           0       -1.693409    1.988269    0.448506
      9         17           0        2.671261   -1.601404   -0.533256
     10         17           0        1.136745    0.295375    2.171618
     11          1           0       -3.657780   -0.850805    0.046032
     12          1           0       -2.233977    2.939361    0.543212
     13          1           0       -1.278075    1.729258    1.421356
     14          1           0       -0.861918    2.175982   -0.243323
     15          1           0       -3.670683    2.225857   -1.454067
     16          1           0       -2.318875    1.390218   -2.202253
     17          1           0       -3.834805    0.507687   -1.855165
     18          6           0       -2.701424   -0.460483    1.996310
     19          1           0       -3.470890    0.061213    2.580449
     20          1           0       -2.789555   -1.523273    2.235289
     21          1           0       -1.728483   -0.113228    2.351258
     22          6           0       -0.860213   -2.236772    0.421752
     23          1           0       -1.738783   -2.857057    0.602669
     24          1           0       -0.053699   -2.878599    0.037377
     25          1           0       -0.503528   -1.791283    1.349760
     26          6           0       -1.866986   -1.659075   -1.863069
     27          1           0       -1.209209   -2.369488   -2.383923
     28          1           0       -2.789444   -2.181785   -1.606647
     29          1           0       -2.063183   -0.833223   -2.543985
 ---------------------------------------------------------------------

 SCF Done:  E(UB97D3) =  -3034.63292522     A.U. after   17 cycles
 Normal termination of Gaussian 16 at Wed Feb 12 00:11:08 2020.
