 Gaussian 16, Revision A.03,

 --------------------------------
 #t pop=none jul-cc-pvdz upbe1pbe
 --------------------------------
 ------------------------
 theory_abbreviation pbe0
 ------------------------
 Symbolic Z-matrix:
 Charge =  0 Multiplicity = 6

 SCF Done:  E(UPBE1PBE) =  -3033.12007049     A.U. after   20 cycles
 Normal termination of Gaussian 16 at Tue Feb 11 13:59:06 2020.

 ---------------------------------------------------------------------
 #t pop=none jul-cc-pvdz guess=read upbe1pbe empiricaldispersion=gd3bj
 ---------------------------------------------------------------------
 -----------------------------
 theory_abbreviation pbe0_d3bj
 -----------------------------
 Symbolic Z-matrix:
 Charge =  0 Multiplicity = 6

 SCF Done:  E(UPBE1PBE) =  -3033.15762873     A.U. after    1 cycles
 Normal termination of Gaussian 16 at Tue Feb 11 14:00:16 2020.

 -----------------------------------------
 #t pop=none jul-cc-pvdz guess=read ub3lyp
 -----------------------------------------
 -------------------------
 theory_abbreviation b3lyp
 -------------------------
 Symbolic Z-matrix:
 Charge =  0 Multiplicity = 6

 SCF Done:  E(UB3LYP) =  -3034.33605028     A.U. after   13 cycles
 Normal termination of Gaussian 16 at Tue Feb 11 14:14:16 2020.

 -------------------------------------------------------------------
 #t pop=none jul-cc-pvdz guess=read ub3lyp empiricaldispersion=gd3bj
 -------------------------------------------------------------------
 ------------------------------
 theory_abbreviation b3lyp_d3bj
 ------------------------------
 Symbolic Z-matrix:
 Charge =  0 Multiplicity = 6

 SCF Done:  E(UB3LYP) =  -3034.40592728     A.U. after    1 cycles
 Normal termination of Gaussian 16 at Tue Feb 11 14:15:27 2020.

 ----------------------------------------
 #t pop=none jul-cc-pvdz guess=read ub97d
 ----------------------------------------
 ------------------------
 theory_abbreviation b97d
 ------------------------
 Symbolic Z-matrix:
 Charge =  0 Multiplicity = 6

 SCF Done:  E(UB97D) =  -3034.58860138     A.U. after   15 cycles

 ----------------------------------------------------------------
 #t pop=none jul-cc-pvdz guess=read ub97d empiricaldispersion=gd3
 ----------------------------------------------------------------
 -------------------------
 theory_abbreviation b97d3
 -------------------------
 Symbolic Z-matrix:
 Charge =  0 Multiplicity = 6

 SCF Done:  E(UB97D) =  -3034.59051720     A.U. after    1 cycles
 SCF Done:  E(UBHandHLYP) =  -3033.97783492     A.U. after   18 cycles
 SCF Done:  E(UBHandH) =  -3026.32006024     A.U. after   14 cycles
 SCF Done:  E(ULC-wPBE) =  -3033.46115553     A.U. after   19 cycles
 SCF Done:  E(UB-P86) =  -3034.64027084     A.U. after   16 cycles
 SCF Done:  E(UmPW1LYP) =  -3034.05426346     A.U. after   14 cycles
 SCF Done:  E(UmPW1PBE) =  -3033.89455397     A.U. after   14 cycles
 SCF Done:  E(UmPW3PBE) =  -3033.66733648     A.U. after   13 cycles
 SCF Done:  E(UM11) =  -3033.81820761     A.U. after   16 cycles
 SCF Done:  E(UN12SX) =  -3033.25889952     A.U. after   17 cycles
 SCF Done:  E(UMN12SX) =  -3033.66042543     A.U. after   16 cycles
 SCF Done:  E(UB1B95) =  -3034.39055963     A.U. after   14 cycles
 Normal termination of Gaussian 16 at Tue Feb 11 22:35:46 2020.
 SCF Done:  E(UB3PW91) =  -3033.98313578     A.U. after   15 cycles
 Normal termination of Gaussian 16 at Tue Feb 11 22:53:28 2020.
 SCF Done:  E(UM06L) =  -3034.20530422     A.U. after   17 cycles
 Normal termination of Gaussian 16 at Tue Feb 11 23:12:24 2020.
 Gaussian 16:  ES64L-G16RevA.03 25-Dec-2016

                         Standard orientation:
 ---------------------------------------------------------------------
 Center     Atomic      Atomic             Coordinates (Angstroms)
 Number     Number       Type             X           Y           Z
 ---------------------------------------------------------------------
      1          8           0       -0.305865   -0.174985   -0.684777
      2          6           0       -1.141946   -1.122060   -0.588517
      3          6           0       -3.188161    0.012814    0.137818
      4          6           0       -2.378099    1.042012   -0.207997
      5          6           0       -2.368447    1.600529   -1.600311
      6         26           0        1.467988    0.087876    0.054019
      7         17           0        2.101128    1.989226   -0.809742
      8          6           0       -1.557617    1.813076    0.783336
      9         17           0        2.492676   -1.710390   -0.675920
     10         17           0        1.329066    0.105151    2.247765
     11          1           0       -3.825980   -0.401752   -0.641191
     12          1           0       -2.153463    2.664245    1.141857
     13          1           0       -1.258230    1.230052    1.654995
     14          1           0       -0.659860    2.228190    0.316945
     15          1           0       -2.658688    2.658528   -1.560965
     16          1           0       -1.357908    1.568096   -2.022724
     17          1           0       -3.065514    1.086588   -2.267562
     18          6           0       -3.521003   -0.424263    1.538318
     19          1           0       -4.437061    0.081171    1.873371
     20          1           0       -3.718674   -1.499594    1.594380
     21          1           0       -2.736964   -0.183037    2.260084
     22          6           0       -1.081849   -2.047284    0.588469
     23          1           0       -1.973139   -2.667976    0.679209
     24          1           0       -0.219950   -2.705547    0.400124
     25          1           0       -0.880336   -1.512185    1.516707
     26          6           0       -1.746410   -1.640046   -1.861960
     27          1           0       -0.989362   -2.314870   -2.288501
     28          1           0       -2.658830   -2.213197   -1.691722
     29          1           0       -1.914425   -0.840031   -2.581963
 ---------------------------------------------------------------------

 SCF Done:  E(UB97D3) =  -3034.62591778     A.U. after   17 cycles
 Normal termination of Gaussian 16 at Tue Feb 11 23:26:02 2020.
