 Gaussian 16, Revision A.03,

 --------------------------------
 #t pop=none jul-cc-pvdz upbe1pbe
 --------------------------------
 ------------------------
 theory_abbreviation pbe0
 ------------------------
 Symbolic Z-matrix:
 Charge =  0 Multiplicity = 6

 SCF Done:  E(UPBE1PBE) =  -3033.12338145     A.U. after   21 cycles
 Normal termination of Gaussian 16 at Tue Feb 11 13:59:20 2020.

 ---------------------------------------------------------------------
 #t pop=none jul-cc-pvdz guess=read upbe1pbe empiricaldispersion=gd3bj
 ---------------------------------------------------------------------
 -----------------------------
 theory_abbreviation pbe0_d3bj
 -----------------------------
 Symbolic Z-matrix:
 Charge =  0 Multiplicity = 6

 SCF Done:  E(UPBE1PBE) =  -3033.15966990     A.U. after    1 cycles
 Normal termination of Gaussian 16 at Tue Feb 11 14:00:29 2020.

 -----------------------------------------
 #t pop=none jul-cc-pvdz guess=read ub3lyp
 -----------------------------------------
 -------------------------
 theory_abbreviation b3lyp
 -------------------------
 Symbolic Z-matrix:
 Charge =  0 Multiplicity = 6

 SCF Done:  E(UB3LYP) =  -3034.34024632     A.U. after   15 cycles
 Normal termination of Gaussian 16 at Tue Feb 11 14:15:53 2020.

 -------------------------------------------------------------------
 #t pop=none jul-cc-pvdz guess=read ub3lyp empiricaldispersion=gd3bj
 -------------------------------------------------------------------
 ------------------------------
 theory_abbreviation b3lyp_d3bj
 ------------------------------
 Symbolic Z-matrix:
 Charge =  0 Multiplicity = 6

 SCF Done:  E(UB3LYP) =  -3034.40784732     A.U. after    1 cycles
 Normal termination of Gaussian 16 at Tue Feb 11 14:17:02 2020.

 ----------------------------------------
 #t pop=none jul-cc-pvdz guess=read ub97d
 ----------------------------------------
 ------------------------
 theory_abbreviation b97d
 ------------------------
 Symbolic Z-matrix:
 Charge =  0 Multiplicity = 6

 SCF Done:  E(UB97D) =  -3034.59251632     A.U. after   16 cycles

 ----------------------------------------------------------------
 #t pop=none jul-cc-pvdz guess=read ub97d empiricaldispersion=gd3
 ----------------------------------------------------------------
 -------------------------
 theory_abbreviation b97d3
 -------------------------
 Symbolic Z-matrix:
 Charge =  0 Multiplicity = 6

 SCF Done:  E(UB97D) =  -3034.59380521     A.U. after    1 cycles
 SCF Done:  E(UBHandHLYP) =  -3033.97957876     A.U. after   18 cycles
 SCF Done:  E(UBHandH) =  -3026.32003625     A.U. after   16 cycles
 SCF Done:  E(ULC-wPBE) =  -3033.46129030     A.U. after   19 cycles
 SCF Done:  E(UB-P86) =  -3034.64306473     A.U. after   17 cycles
 SCF Done:  E(UmPW1LYP) =  -3034.05799427     A.U. after   16 cycles
 SCF Done:  E(UmPW1PBE) =  -3033.89808679     A.U. after   16 cycles
 SCF Done:  E(UmPW3PBE) =  -3033.67118674     A.U. after   13 cycles
 SCF Done:  E(UM11) =  -3033.81911941     A.U. after   16 cycles
 SCF Done:  E(UN12SX) =  -3033.26214817     A.U. after   15 cycles
 SCF Done:  E(UMN12SX) =  -3033.66079997     A.U. after   17 cycles
 SCF Done:  E(UB1B95) =  -3034.39243224     A.U. after   14 cycles
 Normal termination of Gaussian 16 at Tue Feb 11 22:49:32 2020.
 SCF Done:  E(UB3PW91) =  -3033.98717421     A.U. after   15 cycles
 Normal termination of Gaussian 16 at Tue Feb 11 23:06:38 2020.
 SCF Done:  E(UM06L) =  -3034.20537123     A.U. after   16 cycles
 Normal termination of Gaussian 16 at Tue Feb 11 23:24:10 2020.
 Gaussian 16:  ES64L-G16RevA.03 25-Dec-2016

                         Standard orientation:
 ---------------------------------------------------------------------
 Center     Atomic      Atomic             Coordinates (Angstroms)
 Number     Number       Type             X           Y           Z
 ---------------------------------------------------------------------
      1          8           0        0.284115    0.240777   -0.502215
      2          6           0        1.095178    1.183729   -0.222329
      3          6           0        2.716826    0.141651    0.938203
      4          6           0        3.116037   -0.660797   -0.093078
      5          6           0        4.216479   -0.267869   -1.029644
      6         26           0       -1.560308   -0.178774   -0.104951
      7         17           0       -1.879865   -2.065590   -1.154998
      8          6           0        2.425796   -1.959352   -0.361865
      9         17           0       -2.577728    1.587306   -0.917144
     10         17           0       -1.818233   -0.347541    2.070329
     11          1           0        3.301087    1.044142    1.112191
     12          1           0        2.940598   -2.552734   -1.121460
     13          1           0        2.311257   -2.561439    0.545466
     14          1           0        1.406562   -1.746083   -0.723463
     15          1           0        5.048996   -0.975411   -0.912770
     16          1           0        3.900196   -0.341026   -2.077909
     17          1           0        4.597978    0.738041   -0.837990
     18          6           0        1.919549   -0.389571    2.107141
     19          1           0        2.464646   -1.208717    2.592162
     20          1           0        1.752814    0.381265    2.861584
     21          1           0        0.943988   -0.780764    1.808255
     22          6           0        0.741319    2.129680    0.901053
     23          1           0        1.591416    2.729335    1.231110
     24          1           0       -0.016147    2.806281    0.479434
     25          1           0        0.280447    1.613857    1.742414
     26          6           0        1.846764    1.782729   -1.384153
     27          1           0        1.161778    2.507992   -1.844506
     28          1           0        2.747548    2.315940   -1.074665
     29          1           0        2.083275    1.029055   -2.134557
 ---------------------------------------------------------------------

 SCF Done:  E(UB97D3) =  -3034.62900861     A.U. after   15 cycles
 Normal termination of Gaussian 16 at Tue Feb 11 23:36:03 2020.
