 Gaussian 16, Revision A.03,

 --------------------------------
 #t pop=none jul-cc-pvdz upbe1pbe
 --------------------------------
 ------------------------
 theory_abbreviation pbe0
 ------------------------
 Symbolic Z-matrix:
 Charge =  0 Multiplicity = 6

 SCF Done:  E(UPBE1PBE) =  -3033.11521827     A.U. after   21 cycles
 Normal termination of Gaussian 16 at Tue Feb 11 13:59:13 2020.

 ---------------------------------------------------------------------
 #t pop=none jul-cc-pvdz guess=read upbe1pbe empiricaldispersion=gd3bj
 ---------------------------------------------------------------------
 -----------------------------
 theory_abbreviation pbe0_d3bj
 -----------------------------
 Symbolic Z-matrix:
 Charge =  0 Multiplicity = 6

 SCF Done:  E(UPBE1PBE) =  -3033.15152072     A.U. after    1 cycles
 Normal termination of Gaussian 16 at Tue Feb 11 14:00:24 2020.

 -----------------------------------------
 #t pop=none jul-cc-pvdz guess=read ub3lyp
 -----------------------------------------
 -------------------------
 theory_abbreviation b3lyp
 -------------------------
 Symbolic Z-matrix:
 Charge =  0 Multiplicity = 6

 SCF Done:  E(UB3LYP) =  -3034.32951580     A.U. after   14 cycles
 Normal termination of Gaussian 16 at Tue Feb 11 14:15:13 2020.

 -------------------------------------------------------------------
 #t pop=none jul-cc-pvdz guess=read ub3lyp empiricaldispersion=gd3bj
 -------------------------------------------------------------------
 ------------------------------
 theory_abbreviation b3lyp_d3bj
 ------------------------------
 Symbolic Z-matrix:
 Charge =  0 Multiplicity = 6

 SCF Done:  E(UB3LYP) =  -3034.39718569     A.U. after    1 cycles
 Normal termination of Gaussian 16 at Tue Feb 11 14:16:24 2020.

 ----------------------------------------
 #t pop=none jul-cc-pvdz guess=read ub97d
 ----------------------------------------
 ------------------------
 theory_abbreviation b97d
 ------------------------
 Symbolic Z-matrix:
 Charge =  0 Multiplicity = 6

 SCF Done:  E(UB97D) =  -3034.58210761     A.U. after   17 cycles

 ----------------------------------------------------------------
 #t pop=none jul-cc-pvdz guess=read ub97d empiricaldispersion=gd3
 ----------------------------------------------------------------
 -------------------------
 theory_abbreviation b97d3
 -------------------------
 Symbolic Z-matrix:
 Charge =  0 Multiplicity = 6

 SCF Done:  E(UB97D) =  -3034.58277698     A.U. after    1 cycles
 SCF Done:  E(UBHandHLYP) =  -3033.96925473     A.U. after   17 cycles
 SCF Done:  E(UBHandH) =  -3026.31491741     A.U. after   16 cycles
 SCF Done:  E(ULC-wPBE) =  -3033.45297502     A.U. after   18 cycles
 SCF Done:  E(UB-P86) =  -3034.63429005     A.U. after   17 cycles
 SCF Done:  E(UmPW1LYP) =  -3034.04724614     A.U. after   16 cycles
 SCF Done:  E(UmPW1PBE) =  -3033.88975055     A.U. after   16 cycles
 SCF Done:  E(UmPW3PBE) =  -3033.66257149     A.U. after   15 cycles
 SCF Done:  E(UM11) =  -3033.81110823     A.U. after   19 cycles
 SCF Done:  E(UN12SX) =  -3033.25465978     A.U. after   17 cycles
 SCF Done:  E(UMN12SX) =  -3033.65113514     A.U. after   17 cycles
 SCF Done:  E(UB1B95) =  -3034.38297137     A.U. after   16 cycles
 Normal termination of Gaussian 16 at Tue Feb 11 23:10:06 2020.
 SCF Done:  E(UB3PW91) =  -3033.97814991     A.U. after   15 cycles
 Normal termination of Gaussian 16 at Tue Feb 11 23:25:16 2020.
 SCF Done:  E(UM06L) =  -3034.19498582     A.U. after   16 cycles
 Normal termination of Gaussian 16 at Tue Feb 11 23:42:44 2020.
 Gaussian 16:  ES64L-G16RevA.03 25-Dec-2016

                         Standard orientation:
 ---------------------------------------------------------------------
 Center     Atomic      Atomic             Coordinates (Angstroms)
 Number     Number       Type             X           Y           Z
 ---------------------------------------------------------------------
      1          8           0       -0.331869   -0.157480   -0.506058
      2          6           0       -1.182659   -1.125802   -0.332271
      3          6           0       -2.662495   -0.340781    0.760352
      4          6           0       -2.890558    0.748299   -0.064296
      5          6           0       -3.873107    0.693275   -1.187461
      6         26           0        1.489629    0.174061   -0.076506
      7         17           0        1.824178    2.166148   -0.933096
      8          6           0       -2.115647    2.000134    0.081515
      9         17           0        2.568992   -1.490751   -1.019268
     10         17           0        1.684192    0.164708    2.122717
     11          1           0       -3.368895   -1.163552    0.652507
     12          1           0       -2.551679    2.831717   -0.476495
     13          1           0       -1.955061    2.286205    1.124041
     14          1           0       -1.114200    1.792722   -0.338866
     15          1           0       -4.681701    1.404417   -0.965991
     16          1           0       -3.420377    1.032399   -2.127784
     17          1           0       -4.315509   -0.294712   -1.325653
     18          6           0       -2.088781   -0.142724    2.152097
     19          1           0       -2.723027    0.548172    2.719676
     20          1           0       -2.059181   -1.085324    2.700913
     21          1           0       -1.076517    0.268058    2.132345
     22          6           0       -0.762435   -2.245036    0.610826
     23          1           0       -1.589723   -2.913669    0.860633
     24          1           0       -0.002877   -2.819178    0.064468
     25          1           0       -0.293541   -1.865084    1.517473
     26          6           0       -1.823701   -1.630246   -1.614476
     27          1           0       -1.070283   -2.256430   -2.107365
     28          1           0       -2.710037   -2.243385   -1.431617
     29          1           0       -2.061656   -0.812603   -2.294359
 ---------------------------------------------------------------------

 SCF Done:  E(UB97D3) =  -3034.61721986     A.U. after   17 cycles
 Normal termination of Gaussian 16 at Tue Feb 11 23:56:01 2020.
