 Gaussian 16, Revision A.03,

 --------------------------------
 #t pop=none jul-cc-pvdz upbe1pbe
 --------------------------------
 ------------------------
 theory_abbreviation pbe0
 ------------------------
 Symbolic Z-matrix:
 Charge =  0 Multiplicity = 6

 SCF Done:  E(UPBE1PBE) =  -3033.10799171     A.U. after   21 cycles
 Normal termination of Gaussian 16 at Tue Feb 11 23:39:43 2020.

 ---------------------------------------------------------------------
 #t pop=none jul-cc-pvdz guess=read upbe1pbe empiricaldispersion=gd3bj
 ---------------------------------------------------------------------
 -----------------------------
 theory_abbreviation pbe0_d3bj
 -----------------------------
 Symbolic Z-matrix:
 Charge =  0 Multiplicity = 6

 SCF Done:  E(UPBE1PBE) =  -3033.14533847     A.U. after    1 cycles
 Normal termination of Gaussian 16 at Tue Feb 11 23:40:53 2020.

 -----------------------------------------
 #t pop=none jul-cc-pvdz guess=read ub3lyp
 -----------------------------------------
 -------------------------
 theory_abbreviation b3lyp
 -------------------------
 Symbolic Z-matrix:
 Charge =  0 Multiplicity = 6

 SCF Done:  E(UB3LYP) =  -3034.32117176     A.U. after   13 cycles
 Normal termination of Gaussian 16 at Tue Feb 11 23:54:32 2020.

 -------------------------------------------------------------------
 #t pop=none jul-cc-pvdz guess=read ub3lyp empiricaldispersion=gd3bj
 -------------------------------------------------------------------
 ------------------------------
 theory_abbreviation b3lyp_d3bj
 ------------------------------
 Symbolic Z-matrix:
 Charge =  0 Multiplicity = 6

 SCF Done:  E(UB3LYP) =  -3034.39080411     A.U. after    1 cycles
 Normal termination of Gaussian 16 at Tue Feb 11 23:55:42 2020.

 ----------------------------------------
 #t pop=none jul-cc-pvdz guess=read ub97d
 ----------------------------------------
 ------------------------
 theory_abbreviation b97d
 ------------------------
 Symbolic Z-matrix:
 Charge =  0 Multiplicity = 6

 SCF Done:  E(UB97D) =  -3034.57457715     A.U. after   17 cycles

 ----------------------------------------------------------------
 #t pop=none jul-cc-pvdz guess=read ub97d empiricaldispersion=gd3
 ----------------------------------------------------------------
 -------------------------
 theory_abbreviation b97d3
 -------------------------
 Symbolic Z-matrix:
 Charge =  0 Multiplicity = 6

 SCF Done:  E(UB97D) =  -3034.57477409     A.U. after    1 cycles
 SCF Done:  E(UBHandHLYP) =  -3033.96337306     A.U. after   18 cycles
 SCF Done:  E(UBHandH) =  -3026.31078756     A.U. after   16 cycles
 SCF Done:  E(ULC-wPBE) =  -3033.44823021     A.U. after   18 cycles
 SCF Done:  E(UB-P86) =  -3034.62706308     A.U. after   17 cycles
 SCF Done:  E(UmPW1LYP) =  -3034.03940954     A.U. after   15 cycles
 SCF Done:  E(UmPW1PBE) =  -3033.88234068     A.U. after   15 cycles
 SCF Done:  E(UmPW3PBE) =  -3033.65475317     A.U. after   15 cycles
 SCF Done:  E(UM11) =  -3033.80636047     A.U. after   19 cycles
 SCF Done:  E(UN12SX) =  -3033.24786342     A.U. after   17 cycles
 SCF Done:  E(UMN12SX) =  -3033.64646154     A.U. after   16 cycles
 SCF Done:  E(UB1B95) =  -3034.37654093     A.U. after   16 cycles
 Normal termination of Gaussian 16 at Wed Feb 12 08:37:01 2020.
 SCF Done:  E(UB3PW91) =  -3033.97011516     A.U. after   16 cycles
 Normal termination of Gaussian 16 at Wed Feb 12 08:53:27 2020.
 SCF Done:  E(UM06L) =  -3034.18897823     A.U. after   18 cycles
 Normal termination of Gaussian 16 at Wed Feb 12 09:13:24 2020.
 Gaussian 16:  ES64L-G16RevA.03 25-Dec-2016

                         Standard orientation:
 ---------------------------------------------------------------------
 Center     Atomic      Atomic             Coordinates (Angstroms)
 Number     Number       Type             X           Y           Z
 ---------------------------------------------------------------------
      1          8           0       -0.328511   -0.148697   -0.703420
      2          6           0       -1.252339   -1.073990   -0.577765
      3          6           0       -2.827231   -0.241152    0.331131
      4          6           0       -2.414863    0.999161   -0.127131
      5          6           0       -2.774086    1.508411   -1.480121
      6         26           0        1.405269    0.102035    0.000187
      7         17           0        1.975745    2.090896   -0.741770
      8          6           0       -1.573196    1.913661    0.687429
      9         17           0        2.599874   -1.585723   -0.742553
     10         17           0        1.197410    0.056785    2.214601
     11          1           0       -3.610618   -0.721051   -0.252459
     12          1           0       -2.248469    2.662267    1.131707
     13          1           0       -1.045058    1.418428    1.500618
     14          1           0       -0.853926    2.452826    0.063798
     15          1           0       -3.138792    2.539064   -1.388463
     16          1           0       -1.862561    1.558585   -2.090578
     17          1           0       -3.531498    0.907747   -1.985938
     18          6           0       -2.848693   -0.573640    1.810577
     19          1           0       -3.648162   -0.004782    2.300790
     20          1           0       -3.058192   -1.633279    1.970336
     21          1           0       -1.910513   -0.333892    2.315502
     22          6           0       -0.943413   -2.218271    0.367582
     23          1           0       -1.785419   -2.903850    0.482739
     24          1           0       -0.112529   -2.763149   -0.100885
     25          1           0       -0.596594   -1.872070    1.340452
     26          6           0       -1.836224   -1.535124   -1.903337
     27          1           0       -1.038241   -2.103295   -2.397237
     28          1           0       -2.699879   -2.191899   -1.774512
     29          1           0       -2.089669   -0.702610   -2.558288
 ---------------------------------------------------------------------

 SCF Done:  E(UB97D3) =  -3034.60953273     A.U. after   15 cycles
 Normal termination of Gaussian 16 at Wed Feb 12 09:25:32 2020.
