 Gaussian 16, Revision A.03,

 --------------------------------
 #t pop=none jul-cc-pvdz upbe1pbe
 --------------------------------
 ------------------------
 theory_abbreviation pbe0
 ------------------------
 Symbolic Z-matrix:
 Charge =  0 Multiplicity = 6

 SCF Done:  E(UPBE1PBE) =  -3033.12015210     A.U. after   20 cycles
 Normal termination of Gaussian 16 at Tue Feb 11 13:57:38 2020.

 ---------------------------------------------------------------------
 #t pop=none jul-cc-pvdz guess=read upbe1pbe empiricaldispersion=gd3bj
 ---------------------------------------------------------------------
 -----------------------------
 theory_abbreviation pbe0_d3bj
 -----------------------------
 Symbolic Z-matrix:
 Charge =  0 Multiplicity = 6

 SCF Done:  E(UPBE1PBE) =  -3033.15749482     A.U. after    1 cycles
 Normal termination of Gaussian 16 at Tue Feb 11 13:59:28 2020.

 -----------------------------------------
 #t pop=none jul-cc-pvdz guess=read ub3lyp
 -----------------------------------------
 -------------------------
 theory_abbreviation b3lyp
 -------------------------
 Symbolic Z-matrix:
 Charge =  0 Multiplicity = 6

 SCF Done:  E(UB3LYP) =  -3034.33578839     A.U. after   13 cycles
 Normal termination of Gaussian 16 at Tue Feb 11 14:13:03 2020.

 -------------------------------------------------------------------
 #t pop=none jul-cc-pvdz guess=read ub3lyp empiricaldispersion=gd3bj
 -------------------------------------------------------------------
 ------------------------------
 theory_abbreviation b3lyp_d3bj
 ------------------------------
 Symbolic Z-matrix:
 Charge =  0 Multiplicity = 6

 SCF Done:  E(UB3LYP) =  -3034.40532338     A.U. after    1 cycles
 Normal termination of Gaussian 16 at Tue Feb 11 14:14:33 2020.

 ----------------------------------------
 #t pop=none jul-cc-pvdz guess=read ub97d
 ----------------------------------------
 ------------------------
 theory_abbreviation b97d
 ------------------------
 Symbolic Z-matrix:
 Charge =  0 Multiplicity = 6

 SCF Done:  E(UB97D) =  -3034.58956557     A.U. after   15 cycles

 ----------------------------------------------------------------
 #t pop=none jul-cc-pvdz guess=read ub97d empiricaldispersion=gd3
 ----------------------------------------------------------------
 -------------------------
 theory_abbreviation b97d3
 -------------------------
 Symbolic Z-matrix:
 Charge =  0 Multiplicity = 6

 SCF Done:  E(UB97D) =  -3034.59063176     A.U. after    1 cycles
 SCF Done:  E(UBHandHLYP) =  -3033.97601891     A.U. after   18 cycles
 SCF Done:  E(UBHandH) =  -3026.31924348     A.U. after   16 cycles
 SCF Done:  E(ULC-wPBE) =  -3033.45932850     A.U. after   19 cycles
 SCF Done:  E(UB-P86) =  -3034.64089951     A.U. after   17 cycles
 SCF Done:  E(UmPW1LYP) =  -3034.05378099     A.U. after   15 cycles
 SCF Done:  E(UmPW1PBE) =  -3033.89458550     A.U. after   15 cycles
 SCF Done:  E(UmPW3PBE) =  -3033.66751707     A.U. after   12 cycles
 SCF Done:  E(UM11) =  -3033.81737184     A.U. after   19 cycles
 SCF Done:  E(UN12SX) =  -3033.25933795     A.U. after   17 cycles
 SCF Done:  E(UMN12SX) =  -3033.65874490     A.U. after   17 cycles
 SCF Done:  E(UB1B95) =  -3034.38928499     A.U. after   15 cycles
 Normal termination of Gaussian 16 at Tue Feb 11 22:59:40 2020.
 SCF Done:  E(UB3PW91) =  -3033.98321847     A.U. after   15 cycles
 Normal termination of Gaussian 16 at Tue Feb 11 23:15:16 2020.
 SCF Done:  E(UM06L) =  -3034.20303262     A.U. after   18 cycles
 Normal termination of Gaussian 16 at Tue Feb 11 23:35:11 2020.
 Gaussian 16:  ES64L-G16RevA.03 25-Dec-2016

                         Standard orientation:
 ---------------------------------------------------------------------
 Center     Atomic      Atomic             Coordinates (Angstroms)
 Number     Number       Type             X           Y           Z
 ---------------------------------------------------------------------
      1          8           0       -0.268539   -0.247650   -0.769000
      2          6           0       -1.148691   -1.163585   -0.600781
      3          6           0       -2.797958   -0.301615    0.572645
      4          6           0       -2.663669    0.903115   -0.060762
      5          6           0       -3.365067    1.201179   -1.350261
      6         26           0        1.459225    0.149278   -0.025362
      7         17           0        1.993816    2.062056   -0.940997
      8          6           0       -1.757872    1.980036    0.431018
      9         17           0        2.680308   -1.572395   -0.614427
     10         17           0        1.214194    0.293934    2.163039
     11          1           0       -3.546248   -0.979597    0.165116
     12          1           0       -2.272757    2.948095    0.419757
     13          1           0       -1.354101    1.799406    1.426295
     14          1           0       -0.911920    2.072529   -0.266003
     15          1           0       -3.998252    2.088001   -1.217153
     16          1           0       -2.641807    1.455530   -2.136480
     17          1           0       -3.998890    0.379431   -1.689953
     18          6           0       -2.475163   -0.508391    2.037453
     19          1           0       -3.196571    0.048300    2.648432
     20          1           0       -2.563250   -1.560292    2.316665
     21          1           0       -1.475135   -0.167501    2.311993
     22          6           0       -0.840320   -2.278584    0.370639
     23          1           0       -1.703563   -2.916999    0.565766
     24          1           0       -0.065182   -2.881104   -0.123311
     25          1           0       -0.417303   -1.909576    1.304262
     26          6           0       -1.890923   -1.579918   -1.851754
     27          1           0       -1.205006   -2.243565   -2.394956
     28          1           0       -2.804697   -2.138085   -1.639757
     29          1           0       -2.100276   -0.729157   -2.497913
 ---------------------------------------------------------------------

 SCF Done:  E(UB97D3) =  -3034.62590567     A.U. after   15 cycles
 Normal termination of Gaussian 16 at Tue Feb 11 23:47:15 2020.
