 Gaussian 16, Revision A.03,

 --------------------------------
 #t pop=none jul-cc-pvdz upbe1pbe
 --------------------------------
 ------------------------
 theory_abbreviation pbe0
 ------------------------
 Symbolic Z-matrix:
 Charge =  0 Multiplicity = 6

 SCF Done:  E(UPBE1PBE) =  -3033.13724408     A.U. after   20 cycles
 Normal termination of Gaussian 16 at Wed Feb 12 14:11:35 2020.

 ---------------------------------------------------------------------
 #t pop=none jul-cc-pvdz guess=read upbe1pbe empiricaldispersion=gd3bj
 ---------------------------------------------------------------------
 -----------------------------
 theory_abbreviation pbe0_d3bj
 -----------------------------
 Symbolic Z-matrix:
 Charge =  0 Multiplicity = 6

 SCF Done:  E(UPBE1PBE) =  -3033.17360157     A.U. after    1 cycles
 Normal termination of Gaussian 16 at Wed Feb 12 14:12:45 2020.

 -----------------------------------------
 #t pop=none jul-cc-pvdz guess=read ub3lyp
 -----------------------------------------
 -------------------------
 theory_abbreviation b3lyp
 -------------------------
 Symbolic Z-matrix:
 Charge =  0 Multiplicity = 6

 SCF Done:  E(UB3LYP) =  -3034.35563625     A.U. after   13 cycles
 Normal termination of Gaussian 16 at Wed Feb 12 14:26:13 2020.

 -------------------------------------------------------------------
 #t pop=none jul-cc-pvdz guess=read ub3lyp empiricaldispersion=gd3bj
 -------------------------------------------------------------------
 ------------------------------
 theory_abbreviation b3lyp_d3bj
 ------------------------------
 Symbolic Z-matrix:
 Charge =  0 Multiplicity = 6

 SCF Done:  E(UB3LYP) =  -3034.42293368     A.U. after    1 cycles
 Normal termination of Gaussian 16 at Wed Feb 12 14:27:23 2020.

 ----------------------------------------
 #t pop=none jul-cc-pvdz guess=read ub97d
 ----------------------------------------
 ------------------------
 theory_abbreviation b97d
 ------------------------
 Symbolic Z-matrix:
 Charge =  0 Multiplicity = 6

 SCF Done:  E(UB97D) =  -3034.60583113     A.U. after   15 cycles

 ----------------------------------------------------------------
 #t pop=none jul-cc-pvdz guess=read ub97d empiricaldispersion=gd3
 ----------------------------------------------------------------
 -------------------------
 theory_abbreviation b97d3
 -------------------------
 Symbolic Z-matrix:
 Charge =  0 Multiplicity = 6

 SCF Done:  E(UB97D) =  -3034.60756688     A.U. after    3 cycles
 SCF Done:  E(UBHandHLYP) =  -3033.99761686     A.U. after   18 cycles
 SCF Done:  E(UBHandH) =  -3026.33360879     A.U. after   14 cycles
 SCF Done:  E(ULC-wPBE) =  -3033.47870149     A.U. after   17 cycles
 SCF Done:  E(UB-P86) =  -3034.65491854     A.U. after   17 cycles
 SCF Done:  E(UmPW1LYP) =  -3034.07401695     A.U. after   13 cycles
 SCF Done:  E(UmPW1PBE) =  -3033.91169563     A.U. after   14 cycles
 SCF Done:  E(UmPW3PBE) =  -3033.68465528     A.U. after   13 cycles
 SCF Done:  E(UM11) =  -3033.83626922     A.U. after   17 cycles
 SCF Done:  E(UN12SX) =  -3033.27619542     A.U. after   16 cycles
 SCF Done:  E(UMN12SX) =  -3033.67872655     A.U. after   16 cycles
 SCF Done:  E(UB1B95) =  -3034.40807670     A.U. after   14 cycles
 Normal termination of Gaussian 16 at Wed Feb 12 22:06:15 2020.
 SCF Done:  E(UB3PW91) =  -3034.00089317     A.U. after   13 cycles
 Normal termination of Gaussian 16 at Wed Feb 12 22:19:38 2020.
 SCF Done:  E(UM06L) =  -3034.22321050     A.U. after   17 cycles
 Normal termination of Gaussian 16 at Wed Feb 12 22:38:16 2020.
 Gaussian 16:  ES64L-G16RevA.03 25-Dec-2016

                         Standard orientation:
 ---------------------------------------------------------------------
 Center     Atomic      Atomic             Coordinates (Angstroms)
 Number     Number       Type             X           Y           Z
 ---------------------------------------------------------------------
      1          8           0        0.201900    0.395919   -0.864729
      2          6           0        0.959400    1.370984   -0.660627
      3          6           0        3.130582    0.057598    0.523005
      4          6           0        2.629656   -0.949733   -0.218410
      5          6           0        3.044231   -1.150413   -1.651520
      6         26           0       -1.477877   -0.163637    0.021947
      7         17           0       -2.075746   -1.970184   -1.027049
      8          6           0        1.690312   -1.999232    0.301287
      9         17           0       -2.712953    1.604852   -0.348306
     10         17           0       -1.074317   -0.444851    2.159504
     11          1           0        3.859221    0.713924    0.045268
     12          1           0        2.199231   -2.972609    0.319879
     13          1           0        1.314346   -1.796399    1.303682
     14          1           0        0.832507   -2.118780   -0.371798
     15          1           0        3.522235   -2.131536   -1.771031
     16          1           0        2.168718   -1.152608   -2.314226
     17          1           0        3.751023   -0.388942   -1.994132
     18          6           0        2.945064    0.272426    2.000675
     19          1           0        3.774862   -0.183134    2.558431
     20          1           0        2.948985    1.337989    2.254120
     21          1           0        2.016869   -0.160644    2.381870
     22          6           0        0.816311    2.221622    0.560876
     23          1           0        1.700272    2.835512    0.737696
     24          1           0       -0.041097    2.885970    0.375655
     25          1           0        0.577833    1.623777    1.441166
     26          6           0        1.781702    1.884475   -1.801525
     27          1           0        1.217099    2.723846   -2.234004
     28          1           0        2.745325    2.272482   -1.467562
     29          1           0        1.909896    1.125111   -2.570900
 ---------------------------------------------------------------------

 SCF Done:  E(UB97D3) =  -3034.64210104     A.U. after   16 cycles
 Normal termination of Gaussian 16 at Wed Feb 12 22:51:00 2020.
