 Gaussian 16, Revision A.03,

 --------------------------------
 #t pop=none jul-cc-pvdz upbe1pbe
 --------------------------------
 ------------------------
 theory_abbreviation pbe0
 ------------------------
 Symbolic Z-matrix:
 Charge =  0 Multiplicity = 6

 SCF Done:  E(UPBE1PBE) =  -3033.10516491     A.U. after   21 cycles
 Normal termination of Gaussian 16 at Tue Feb 11 14:49:47 2020.

 ---------------------------------------------------------------------
 #t pop=none jul-cc-pvdz guess=read upbe1pbe empiricaldispersion=gd3bj
 ---------------------------------------------------------------------
 -----------------------------
 theory_abbreviation pbe0_d3bj
 -----------------------------
 Symbolic Z-matrix:
 Charge =  0 Multiplicity = 6

 SCF Done:  E(UPBE1PBE) =  -3033.14205437     A.U. after    1 cycles
 Normal termination of Gaussian 16 at Tue Feb 11 14:51:08 2020.

 -----------------------------------------
 #t pop=none jul-cc-pvdz guess=read ub3lyp
 -----------------------------------------
 -------------------------
 theory_abbreviation b3lyp
 -------------------------
 Symbolic Z-matrix:
 Charge =  0 Multiplicity = 6

 SCF Done:  E(UB3LYP) =  -3034.31885559     A.U. after   13 cycles
 Normal termination of Gaussian 16 at Tue Feb 11 15:06:53 2020.

 -------------------------------------------------------------------
 #t pop=none jul-cc-pvdz guess=read ub3lyp empiricaldispersion=gd3bj
 -------------------------------------------------------------------
 ------------------------------
 theory_abbreviation b3lyp_d3bj
 ------------------------------
 Symbolic Z-matrix:
 Charge =  0 Multiplicity = 6

 SCF Done:  E(UB3LYP) =  -3034.38745598     A.U. after    1 cycles
 Normal termination of Gaussian 16 at Tue Feb 11 15:08:14 2020.

 ----------------------------------------
 #t pop=none jul-cc-pvdz guess=read ub97d
 ----------------------------------------
 ------------------------
 theory_abbreviation b97d
 ------------------------
 Symbolic Z-matrix:
 Charge =  0 Multiplicity = 6

 SCF Done:  E(UB97D) =  -3034.56992641     A.U. after   16 cycles

 ----------------------------------------------------------------
 #t pop=none jul-cc-pvdz guess=read ub97d empiricaldispersion=gd3
 ----------------------------------------------------------------
 -------------------------
 theory_abbreviation b97d3
 -------------------------
 Symbolic Z-matrix:
 Charge =  0 Multiplicity = 6

 SCF Done:  E(UB97D) =  -3034.57089441     A.U. after    1 cycles
 SCF Done:  E(UBHandHLYP) =  -3033.96022302     A.U. after   17 cycles
 SCF Done:  E(UBHandH) =  -3026.30522621     A.U. after   14 cycles
 SCF Done:  E(ULC-wPBE) =  -3033.44840687     A.U. after   17 cycles
 SCF Done:  E(UB-P86) =  -3034.62571833     A.U. after   16 cycles
 SCF Done:  E(UmPW1LYP) =  -3034.03697148     A.U. after   14 cycles
 SCF Done:  E(UmPW1PBE) =  -3033.87969753     A.U. after   14 cycles
 SCF Done:  E(UmPW3PBE) =  -3033.65218262     A.U. after   13 cycles
 SCF Done:  E(UM11) =  -3033.79969559     A.U. after   16 cycles
 SCF Done:  E(UN12SX) =  -3033.24544937     A.U. after   16 cycles
 SCF Done:  E(UMN12SX) =  -3033.64069728     A.U. after   15 cycles
 SCF Done:  E(UB1B95) =  -3034.37115625     A.U. after   15 cycles
 Normal termination of Gaussian 16 at Tue Feb 11 23:27:53 2020.
 SCF Done:  E(UB3PW91) =  -3033.96761991     A.U. after   14 cycles
 Normal termination of Gaussian 16 at Tue Feb 11 23:43:18 2020.
 SCF Done:  E(UM06L) =  -3034.18218362     A.U. after   18 cycles
 Normal termination of Gaussian 16 at Wed Feb 12 00:04:21 2020.
 Gaussian 16:  ES64L-G16RevA.03 25-Dec-2016

                         Standard orientation:
 ---------------------------------------------------------------------
 Center     Atomic      Atomic             Coordinates (Angstroms)
 Number     Number       Type             X           Y           Z
 ---------------------------------------------------------------------
      1          8           0       -0.405311   -0.175078   -0.508370
      2          6           0       -1.382007   -1.216222   -0.376424
      3          6           0       -2.847579   -0.104722   -0.178533
      4          6           0       -1.985981    1.110817   -0.283721
      5          6           0       -1.878070    1.811290   -1.588493
      6         26           0        1.378364    0.049398    0.042914
      7         17           0        1.840057    2.024444   -0.840604
      8          6           0       -1.571367    1.859309    0.929101
      9         17           0        2.475594   -1.688782   -0.724527
     10         17           0        1.349391    0.149811    2.255078
     11          1           0       -3.448982   -0.234863   -1.080311
     12          1           0       -2.429982    2.485180    1.221879
     13          1           0       -1.333472    1.205361    1.768444
     14          1           0       -0.722003    2.513881    0.723729
     15          1           0       -2.661944    2.586412   -1.599164
     16          1           0       -0.908198    2.304698   -1.690681
     17          1           0       -2.053759    1.140304   -2.430792
     18          6           0       -3.657078   -0.317894    1.085649
     19          1           0       -4.448799    0.435292    1.184284
     20          1           0       -4.141555   -1.298299    1.051561
     21          1           0       -3.044408   -0.281460    1.989456
     22          6           0       -1.165788   -2.070763    0.846916
     23          1           0       -1.982431   -2.787558    0.976489
     24          1           0       -0.234113   -2.635719    0.713728
     25          1           0       -1.057050   -1.470395    1.751820
     26          6           0       -1.497100   -1.992801   -1.665959
     27          1           0       -0.543849   -2.504626   -1.847943
     28          1           0       -2.294148   -2.741378   -1.608714
     29          1           0       -1.686156   -1.327675   -2.512892
 ---------------------------------------------------------------------

 SCF Done:  E(UB97D3) =  -3034.60597090     A.U. after   16 cycles
 Normal termination of Gaussian 16 at Wed Feb 12 00:17:13 2020.
