 Gaussian 16, Revision A.03,

 --------------------------------
 #t pop=none jul-cc-pvdz upbe1pbe
 --------------------------------
 ------------------------
 theory_abbreviation pbe0
 ------------------------
 Symbolic Z-matrix:
 Charge =  0 Multiplicity = 6

 SCF Done:  E(UPBE1PBE) =  -3033.11336482     A.U. after   21 cycles
 Normal termination of Gaussian 16 at Tue Feb 11 20:11:51 2020.

 ---------------------------------------------------------------------
 #t pop=none jul-cc-pvdz guess=read upbe1pbe empiricaldispersion=gd3bj
 ---------------------------------------------------------------------
 -----------------------------
 theory_abbreviation pbe0_d3bj
 -----------------------------
 Symbolic Z-matrix:
 Charge =  0 Multiplicity = 6

 SCF Done:  E(UPBE1PBE) =  -3033.14935613     A.U. after    1 cycles
 Normal termination of Gaussian 16 at Tue Feb 11 20:13:22 2020.

 -----------------------------------------
 #t pop=none jul-cc-pvdz guess=read ub3lyp
 -----------------------------------------
 -------------------------
 theory_abbreviation b3lyp
 -------------------------
 Symbolic Z-matrix:
 Charge =  0 Multiplicity = 6

 SCF Done:  E(UB3LYP) =  -3034.32651345     A.U. after   15 cycles
 Normal termination of Gaussian 16 at Tue Feb 11 20:32:25 2020.

 -------------------------------------------------------------------
 #t pop=none jul-cc-pvdz guess=read ub3lyp empiricaldispersion=gd3bj
 -------------------------------------------------------------------
 ------------------------------
 theory_abbreviation b3lyp_d3bj
 ------------------------------
 Symbolic Z-matrix:
 Charge =  0 Multiplicity = 6

 SCF Done:  E(UB3LYP) =  -3034.39365045     A.U. after    1 cycles
 Normal termination of Gaussian 16 at Tue Feb 11 20:33:50 2020.

 ----------------------------------------
 #t pop=none jul-cc-pvdz guess=read ub97d
 ----------------------------------------
 ------------------------
 theory_abbreviation b97d
 ------------------------
 Symbolic Z-matrix:
 Charge =  0 Multiplicity = 6

 SCF Done:  E(UB97D) =  -3034.57883747     A.U. after   16 cycles

 ----------------------------------------------------------------
 #t pop=none jul-cc-pvdz guess=read ub97d empiricaldispersion=gd3
 ----------------------------------------------------------------
 -------------------------
 theory_abbreviation b97d3
 -------------------------
 Symbolic Z-matrix:
 Charge =  0 Multiplicity = 6

 SCF Done:  E(UB97D) =  -3034.57904616     A.U. after    1 cycles
 SCF Done:  E(UBHandHLYP) =  -3033.96671199     A.U. after   17 cycles
 SCF Done:  E(UBHandH) =  -3026.31402320     A.U. after   16 cycles
 SCF Done:  E(ULC-wPBE) =  -3033.45152380     A.U. after   18 cycles
 SCF Done:  E(UB-P86) =  -3034.63174489     A.U. after   17 cycles
 SCF Done:  E(UmPW1LYP) =  -3034.04418804     A.U. after   15 cycles
 SCF Done:  E(UmPW1PBE) =  -3033.88787467     A.U. after   15 cycles
 SCF Done:  E(UmPW3PBE) =  -3033.66053047     A.U. after   15 cycles
 SCF Done:  E(UM11) =  -3033.80821160     A.U. after   19 cycles
 SCF Done:  E(UN12SX) =  -3033.25301141     A.U. after   17 cycles
 SCF Done:  E(UMN12SX) =  -3033.64832858     A.U. after   16 cycles
 SCF Done:  E(UB1B95) =  -3034.38028717     A.U. after   16 cycles
 Normal termination of Gaussian 16 at Wed Feb 12 06:57:55 2020.
 SCF Done:  E(UB3PW91) =  -3033.97600377     A.U. after   15 cycles
 Normal termination of Gaussian 16 at Wed Feb 12 07:12:49 2020.
 SCF Done:  E(UM06L) =  -3034.19235077     A.U. after   16 cycles
 Normal termination of Gaussian 16 at Wed Feb 12 07:30:10 2020.
 Gaussian 16:  ES64L-G16RevA.03 25-Dec-2016

                         Standard orientation:
 ---------------------------------------------------------------------
 Center     Atomic      Atomic             Coordinates (Angstroms)
 Number     Number       Type             X           Y           Z
 ---------------------------------------------------------------------
      1          8           0       -0.326283   -0.117324   -0.430652
      2          6           0       -1.214727   -1.080115   -0.248158
      3          6           0       -2.577836   -0.358196    0.773246
      4          6           0       -2.976336    0.705070   -0.055292
      5          6           0       -4.064103    0.547580   -1.058582
      6         26           0        1.502949    0.174019   -0.089348
      7         17           0        1.809803    2.193126   -0.906304
      8          6           0       -2.232725    1.971632   -0.040302
      9         17           0        2.534475   -1.469563   -1.125677
     10         17           0        1.802148    0.107167    2.101116
     11          1           0       -3.281834   -1.191676    0.777919
     12          1           0       -2.670526    2.745590   -0.672815
     13          1           0       -2.050183    2.350218    0.969673
     14          1           0       -1.225311    1.700983   -0.429154
     15          1           0       -4.894770    1.201948   -0.753759
     16          1           0       -3.747599    0.903887   -2.046697
     17          1           0       -4.440046   -0.473974   -1.131660
     18          6           0       -1.979097   -0.029013    2.137666
     19          1           0       -2.628403    0.670978    2.674487
     20          1           0       -1.892823   -0.930480    2.745780
     21          1           0       -0.985143    0.415374    2.053603
     22          6           0       -0.745233   -2.229666    0.648003
     23          1           0       -1.558394   -2.915310    0.901093
     24          1           0        0.007733   -2.776872    0.068554
     25          1           0       -0.261355   -1.868365    1.554819
     26          6           0       -1.804522   -1.588294   -1.560940
     27          1           0       -1.021007   -2.171913   -2.055999
     28          1           0       -2.672284   -2.237126   -1.408469
     29          1           0       -2.066257   -0.765559   -2.228240
 ---------------------------------------------------------------------

 SCF Done:  E(UB97D3) =  -3034.61331774     A.U. after   16 cycles
 Normal termination of Gaussian 16 at Wed Feb 12 07:42:54 2020.
