 Gaussian 16, Revision A.03,

 --------------------------------
 #t pop=none jul-cc-pvdz upbe1pbe
 --------------------------------
 ------------------------
 theory_abbreviation pbe0
 ------------------------
 Symbolic Z-matrix:
 Charge =  0 Multiplicity = 6

 SCF Done:  E(UPBE1PBE) =  -3033.13649644     A.U. after   20 cycles
 Normal termination of Gaussian 16 at Wed Feb 12 14:11:22 2020.

 ---------------------------------------------------------------------
 #t pop=none jul-cc-pvdz guess=read upbe1pbe empiricaldispersion=gd3bj
 ---------------------------------------------------------------------
 -----------------------------
 theory_abbreviation pbe0_d3bj
 -----------------------------
 Symbolic Z-matrix:
 Charge =  0 Multiplicity = 6

 SCF Done:  E(UPBE1PBE) =  -3033.17295598     A.U. after    1 cycles
 Normal termination of Gaussian 16 at Wed Feb 12 14:13:00 2020.

 -----------------------------------------
 #t pop=none jul-cc-pvdz guess=read ub3lyp
 -----------------------------------------
 -------------------------
 theory_abbreviation b3lyp
 -------------------------
 Symbolic Z-matrix:
 Charge =  0 Multiplicity = 6

 SCF Done:  E(UB3LYP) =  -3034.35475059     A.U. after   13 cycles
 Normal termination of Gaussian 16 at Wed Feb 12 14:26:48 2020.

 -------------------------------------------------------------------
 #t pop=none jul-cc-pvdz guess=read ub3lyp empiricaldispersion=gd3bj
 -------------------------------------------------------------------
 ------------------------------
 theory_abbreviation b3lyp_d3bj
 ------------------------------
 Symbolic Z-matrix:
 Charge =  0 Multiplicity = 6

 SCF Done:  E(UB3LYP) =  -3034.42226976     A.U. after    1 cycles
 Normal termination of Gaussian 16 at Wed Feb 12 14:28:20 2020.

 ----------------------------------------
 #t pop=none jul-cc-pvdz guess=read ub97d
 ----------------------------------------
 ------------------------
 theory_abbreviation b97d
 ------------------------
 Symbolic Z-matrix:
 Charge =  0 Multiplicity = 6

 SCF Done:  E(UB97D) =  -3034.60530046     A.U. after   16 cycles

 ----------------------------------------------------------------
 #t pop=none jul-cc-pvdz guess=read ub97d empiricaldispersion=gd3
 ----------------------------------------------------------------
 -------------------------
 theory_abbreviation b97d3
 -------------------------
 Symbolic Z-matrix:
 Charge =  0 Multiplicity = 6

 SCF Done:  E(UB97D) =  -3034.60693615     A.U. after    1 cycles
 SCF Done:  E(UBHandHLYP) =  -3033.99664887     A.U. after   18 cycles
 SCF Done:  E(UBHandH) =  -3026.33312008     A.U. after   14 cycles
 SCF Done:  E(ULC-wPBE) =  -3033.47784307     A.U. after   17 cycles
 SCF Done:  E(UB-P86) =  -3034.65444500     A.U. after   17 cycles
 SCF Done:  E(UmPW1LYP) =  -3034.07311899     A.U. after   13 cycles
 SCF Done:  E(UmPW1PBE) =  -3033.91093893     A.U. after   14 cycles
 SCF Done:  E(UmPW3PBE) =  -3033.68390311     A.U. after   13 cycles
 SCF Done:  E(UM11) =  -3033.83542579     A.U. after   17 cycles
 SCF Done:  E(UN12SX) =  -3033.27543103     A.U. after   16 cycles
 SCF Done:  E(UMN12SX) =  -3033.67788709     A.U. after   16 cycles
 SCF Done:  E(UB1B95) =  -3034.40723123     A.U. after   14 cycles
 Normal termination of Gaussian 16 at Wed Feb 12 21:55:17 2020.
 SCF Done:  E(UB3PW91) =  -3034.00010434     A.U. after   13 cycles
 Normal termination of Gaussian 16 at Wed Feb 12 22:08:11 2020.
 SCF Done:  E(UM06L) =  -3034.22249625     A.U. after   17 cycles
 Normal termination of Gaussian 16 at Wed Feb 12 22:26:30 2020.
 Gaussian 16:  ES64L-G16RevA.03 25-Dec-2016

                         Standard orientation:
 ---------------------------------------------------------------------
 Center     Atomic      Atomic             Coordinates (Angstroms)
 Number     Number       Type             X           Y           Z
 ---------------------------------------------------------------------
      1          8           0        0.203297    0.382587   -0.866488
      2          6           0        0.974355    1.349710   -0.667428
      3          6           0        3.102249    0.082953    0.528354
      4          6           0        2.632880   -0.949779   -0.199851
      5          6           0        3.069562   -1.170035   -1.623023
      6         26           0       -1.478120   -0.161490    0.018509
      7         17           0       -2.072768   -1.980840   -1.011394
      8          6           0        1.698164   -1.999845    0.325690
      9         17           0       -2.712324    1.603195   -0.371783
     10         17           0       -1.078902   -0.423667    2.160220
     11          1           0        3.828948    0.740599    0.049911
     12          1           0        2.212847   -2.969750    0.357836
     13          1           0        1.314005   -1.787916    1.323040
     14          1           0        0.845405   -2.131058   -0.351976
     15          1           0        3.560067   -2.147608   -1.718019
     16          1           0        2.203352   -1.194290   -2.297569
     17          1           0        3.772543   -0.406843   -1.969245
     18          6           0        2.904210    0.308646    2.003329
     19          1           0        3.722701   -0.155617    2.570440
     20          1           0        2.919917    1.374911    2.251603
     21          1           0        1.967055   -0.110582    2.377933
     22          6           0        0.821183    2.225623    0.535344
     23          1           0        1.707515    2.835368    0.714054
     24          1           0       -0.026452    2.893722    0.320640
     25          1           0        0.561655    1.649782    1.424103
     26          6           0        1.796277    1.847871   -1.816284
     27          1           0        1.218279    2.665413   -2.272305
     28          1           0        2.751778    2.260568   -1.489320
     29          1           0        1.939769    1.072784   -2.566990
 ---------------------------------------------------------------------

 SCF Done:  E(UB97D3) =  -3034.64154637     A.U. after   16 cycles
 Normal termination of Gaussian 16 at Wed Feb 12 22:38:58 2020.
