 Gaussian 16, Revision A.03,

 --------------------------------
 #t pop=none jul-cc-pvdz upbe1pbe
 --------------------------------
 ------------------------
 theory_abbreviation pbe0
 ------------------------
 Symbolic Z-matrix:
 Charge =  0 Multiplicity = 6

 SCF Done:  E(UPBE1PBE) =  -3033.11872736     A.U. after   21 cycles
 Normal termination of Gaussian 16 at Tue Feb 11 13:59:12 2020.

 ---------------------------------------------------------------------
 #t pop=none jul-cc-pvdz guess=read upbe1pbe empiricaldispersion=gd3bj
 ---------------------------------------------------------------------
 -----------------------------
 theory_abbreviation pbe0_d3bj
 -----------------------------
 Symbolic Z-matrix:
 Charge =  0 Multiplicity = 6

 SCF Done:  E(UPBE1PBE) =  -3033.15488388     A.U. after    1 cycles
 Normal termination of Gaussian 16 at Tue Feb 11 14:00:22 2020.

 -----------------------------------------
 #t pop=none jul-cc-pvdz guess=read ub3lyp
 -----------------------------------------
 -------------------------
 theory_abbreviation b3lyp
 -------------------------
 Symbolic Z-matrix:
 Charge =  0 Multiplicity = 6

 SCF Done:  E(UB3LYP) =  -3034.33460815     A.U. after   16 cycles
 Normal termination of Gaussian 16 at Tue Feb 11 14:16:51 2020.

 -------------------------------------------------------------------
 #t pop=none jul-cc-pvdz guess=read ub3lyp empiricaldispersion=gd3bj
 -------------------------------------------------------------------
 ------------------------------
 theory_abbreviation b3lyp_d3bj
 ------------------------------
 Symbolic Z-matrix:
 Charge =  0 Multiplicity = 6

 SCF Done:  E(UB3LYP) =  -3034.40203807     A.U. after    1 cycles
 Normal termination of Gaussian 16 at Tue Feb 11 14:18:00 2020.

 ----------------------------------------
 #t pop=none jul-cc-pvdz guess=read ub97d
 ----------------------------------------
 ------------------------
 theory_abbreviation b97d
 ------------------------
 Symbolic Z-matrix:
 Charge =  0 Multiplicity = 6

 SCF Done:  E(UB97D) =  -3034.58737425     A.U. after   17 cycles

 ----------------------------------------------------------------
 #t pop=none jul-cc-pvdz guess=read ub97d empiricaldispersion=gd3
 ----------------------------------------------------------------
 -------------------------
 theory_abbreviation b97d3
 -------------------------
 Symbolic Z-matrix:
 Charge =  0 Multiplicity = 6

 SCF Done:  E(UB97D) =  -3034.58830548     A.U. after    1 cycles
 SCF Done:  E(UBHandHLYP) =  -3033.97336285     A.U. after   17 cycles
 SCF Done:  E(UBHandH) =  -3026.31574281     A.U. after   16 cycles
 SCF Done:  E(ULC-wPBE) =  -3033.45575352     A.U. after   19 cycles
 SCF Done:  E(UB-P86) =  -3034.63860977     A.U. after   17 cycles
 SCF Done:  E(UmPW1LYP) =  -3034.05219166     A.U. after   15 cycles
 SCF Done:  E(UmPW1PBE) =  -3033.89342104     A.U. after   16 cycles
 SCF Done:  E(UmPW3PBE) =  -3033.66648925     A.U. after   13 cycles
 SCF Done:  E(UM11) =  -3033.81412905     A.U. after   19 cycles
 SCF Done:  E(UN12SX) =  -3033.25783535     A.U. after   16 cycles
 SCF Done:  E(UMN12SX) =  -3033.65510854     A.U. after   17 cycles
 SCF Done:  E(UB1B95) =  -3034.38705288     A.U. after   16 cycles
 Normal termination of Gaussian 16 at Tue Feb 11 23:03:43 2020.
 SCF Done:  E(UB3PW91) =  -3033.98233742     A.U. after   15 cycles
 Normal termination of Gaussian 16 at Tue Feb 11 23:19:13 2020.
 SCF Done:  E(UM06L) =  -3034.19916864     A.U. after   16 cycles
 Normal termination of Gaussian 16 at Tue Feb 11 23:36:53 2020.
 Gaussian 16:  ES64L-G16RevA.03 25-Dec-2016

                         Standard orientation:
 ---------------------------------------------------------------------
 Center     Atomic      Atomic             Coordinates (Angstroms)
 Number     Number       Type             X           Y           Z
 ---------------------------------------------------------------------
      1          8           0        0.287168    0.190401   -0.460615
      2          6           0        1.135836    1.118381   -0.176324
      3          6           0        2.647092    0.157750    0.920625
      4          6           0        3.146027   -0.638888   -0.087590
      5          6           0        4.286311   -0.209191   -0.951925
      6         26           0       -1.562127   -0.170728   -0.109666
      7         17           0       -1.909465   -2.064155   -1.147695
      8          6           0        2.490993   -1.938655   -0.405574
      9         17           0       -2.540886    1.605401   -0.954167
     10         17           0       -1.860966   -0.320561    2.065866
     11          1           0        3.225777    1.052792    1.145831
     12          1           0        3.006525   -2.488459   -1.196020
     13          1           0        2.397321   -2.577471    0.479537
     14          1           0        1.458915   -1.723789   -0.734375
     15          1           0        5.124032   -0.902530   -0.791056
     16          1           0        4.032370   -0.281974   -2.016876
     17          1           0        4.632953    0.802197   -0.728484
     18          6           0        1.865655   -0.442299    2.072799
     19          1           0        2.449527   -1.240758    2.545636
     20          1           0        1.652578    0.304565    2.838874
     21          1           0        0.913875   -0.871397    1.752402
     22          6           0        0.745004    2.107891    0.906917
     23          1           0        1.581497    2.730088    1.231360
     24          1           0       -0.012824    2.756864    0.446682
     25          1           0        0.276016    1.618408    1.759615
     26          6           0        1.839006    1.728167   -1.370557
     27          1           0        1.122005    2.423304   -1.825987
     28          1           0        2.732137    2.292126   -1.092455
     29          1           0        2.082113    0.971188   -2.116717
 ---------------------------------------------------------------------

 SCF Done:  E(UB97D3) =  -3034.62328981     A.U. after   15 cycles
 Normal termination of Gaussian 16 at Tue Feb 11 23:48:43 2020.
