 Gaussian 16, Revision A.03,

 --------------------------------
 #t pop=none jul-cc-pvdz upbe1pbe
 --------------------------------
 ------------------------
 theory_abbreviation pbe0
 ------------------------
 Symbolic Z-matrix:
 Charge =  0 Multiplicity = 6

 SCF Done:  E(UPBE1PBE) =  -3033.10090275     A.U. after   21 cycles
 Normal termination of Gaussian 16 at Tue Feb 11 23:39:42 2020.

 ---------------------------------------------------------------------
 #t pop=none jul-cc-pvdz guess=read upbe1pbe empiricaldispersion=gd3bj
 ---------------------------------------------------------------------
 -----------------------------
 theory_abbreviation pbe0_d3bj
 -----------------------------
 Symbolic Z-matrix:
 Charge =  0 Multiplicity = 6

 SCF Done:  E(UPBE1PBE) =  -3033.13827587     A.U. after    1 cycles
 Normal termination of Gaussian 16 at Tue Feb 11 23:40:53 2020.

 -----------------------------------------
 #t pop=none jul-cc-pvdz guess=read ub3lyp
 -----------------------------------------
 -------------------------
 theory_abbreviation b3lyp
 -------------------------
 Symbolic Z-matrix:
 Charge =  0 Multiplicity = 6

 SCF Done:  E(UB3LYP) =  -3034.31378333     A.U. after   14 cycles
 Normal termination of Gaussian 16 at Tue Feb 11 23:55:29 2020.

 -------------------------------------------------------------------
 #t pop=none jul-cc-pvdz guess=read ub3lyp empiricaldispersion=gd3bj
 -------------------------------------------------------------------
 ------------------------------
 theory_abbreviation b3lyp_d3bj
 ------------------------------
 Symbolic Z-matrix:
 Charge =  0 Multiplicity = 6

 SCF Done:  E(UB3LYP) =  -3034.38340255     A.U. after    1 cycles
 Normal termination of Gaussian 16 at Tue Feb 11 23:56:39 2020.

 ----------------------------------------
 #t pop=none jul-cc-pvdz guess=read ub97d
 ----------------------------------------
 ------------------------
 theory_abbreviation b97d
 ------------------------
 Symbolic Z-matrix:
 Charge =  0 Multiplicity = 6

 SCF Done:  E(UB97D) =  -3034.56589526     A.U. after   16 cycles

 ----------------------------------------------------------------
 #t pop=none jul-cc-pvdz guess=read ub97d empiricaldispersion=gd3
 ----------------------------------------------------------------
 -------------------------
 theory_abbreviation b97d3
 -------------------------
 Symbolic Z-matrix:
 Charge =  0 Multiplicity = 6

 SCF Done:  E(UB97D) =  -3034.56666781     A.U. after    1 cycles
 SCF Done:  E(UBHandHLYP) =  -3033.95685271     A.U. after   17 cycles
 SCF Done:  E(UBHandH) =  -3026.30423191     A.U. after   14 cycles
 SCF Done:  E(ULC-wPBE) =  -3033.44161071     A.U. after   18 cycles
 SCF Done:  E(UB-P86) =  -3034.61952821     A.U. after   16 cycles
 SCF Done:  E(UmPW1LYP) =  -3034.03213187     A.U. after   14 cycles
 SCF Done:  E(UmPW1PBE) =  -3033.87534411     A.U. after   15 cycles
 SCF Done:  E(UmPW3PBE) =  -3033.64758204     A.U. after   13 cycles
 SCF Done:  E(UM11) =  -3033.79861832     A.U. after   19 cycles
 SCF Done:  E(UN12SX) =  -3033.24096921     A.U. after   16 cycles
 SCF Done:  E(UMN12SX) =  -3033.63958403     A.U. after   15 cycles
 SCF Done:  E(UB1B95) =  -3034.36961211     A.U. after   16 cycles
 Normal termination of Gaussian 16 at Wed Feb 12 08:22:23 2020.
 SCF Done:  E(UB3PW91) =  -3033.96292363     A.U. after   14 cycles
 Normal termination of Gaussian 16 at Wed Feb 12 08:36:52 2020.
 SCF Done:  E(UM06L) =  -3034.18066922     A.U. after   17 cycles
 Normal termination of Gaussian 16 at Wed Feb 12 08:55:44 2020.
 Gaussian 16:  ES64L-G16RevA.03 25-Dec-2016

                         Standard orientation:
 ---------------------------------------------------------------------
 Center     Atomic      Atomic             Coordinates (Angstroms)
 Number     Number       Type             X           Y           Z
 ---------------------------------------------------------------------
      1          8           0       -0.339059   -0.131920   -0.555117
      2          6           0       -1.298723   -1.051365   -0.474780
      3          6           0       -2.991206   -0.059076   -0.086372
      4          6           0       -2.201709    1.083568   -0.215008
      5          6           0       -2.030601    1.767596   -1.525029
      6         26           0        1.424524    0.049417    0.042942
      7         17           0        1.950707    2.033868   -0.770125
      8          6           0       -1.590881    1.759492    0.962470
      9         17           0        2.495785   -1.696771   -0.761126
     10         17           0        1.361408    0.042430    2.259547
     11          1           0       -3.572393   -0.318142   -0.968881
     12          1           0       -2.360349    2.424018    1.385966
     13          1           0       -1.290748    1.065263    1.748458
     14          1           0       -0.730396    2.367252    0.676761
     15          1           0       -2.571387    2.724033   -1.458959
     16          1           0       -0.976817    2.000176   -1.703385
     17          1           0       -2.445628    1.201984   -2.360980
     18          6           0       -3.632775   -0.470891    1.219966
     19          1           0       -4.529007    0.136844    1.397774
     20          1           0       -3.952456   -1.515771    1.187180
     21          1           0       -2.972548   -0.345443    2.080314
     22          6           0       -1.176174   -2.015979    0.680462
     23          1           0       -2.025501   -2.696913    0.756808
     24          1           0       -0.275012   -2.609609    0.471441
     25          1           0       -1.006186   -1.502832    1.627626
     26          6           0       -1.631468   -1.688094   -1.807349
     27          1           0       -0.745826   -2.270776   -2.093602
     28          1           0       -2.493746   -2.357064   -1.746954
     29          1           0       -1.790248   -0.935972   -2.582330
 ---------------------------------------------------------------------

 SCF Done:  E(UB97D3) =  -3034.60176203     A.U. after   15 cycles
 Normal termination of Gaussian 16 at Wed Feb 12 09:07:53 2020.
