 Gaussian 16, Revision A.03,

 --------------------------------
 #t pop=none jul-cc-pvdz upbe1pbe
 --------------------------------
 ------------------------
 theory_abbreviation pbe0
 ------------------------
 Symbolic Z-matrix:
 Charge =  0 Multiplicity = 6

 SCF Done:  E(UPBE1PBE) =  -3033.11757537     A.U. after   20 cycles
 Normal termination of Gaussian 16 at Tue Feb 11 13:59:03 2020.

 ---------------------------------------------------------------------
 #t pop=none jul-cc-pvdz guess=read upbe1pbe empiricaldispersion=gd3bj
 ---------------------------------------------------------------------
 -----------------------------
 theory_abbreviation pbe0_d3bj
 -----------------------------
 Symbolic Z-matrix:
 Charge =  0 Multiplicity = 6

 SCF Done:  E(UPBE1PBE) =  -3033.15522160     A.U. after    1 cycles
 Normal termination of Gaussian 16 at Tue Feb 11 14:00:14 2020.

 -----------------------------------------
 #t pop=none jul-cc-pvdz guess=read ub3lyp
 -----------------------------------------
 -------------------------
 theory_abbreviation b3lyp
 -------------------------
 Symbolic Z-matrix:
 Charge =  0 Multiplicity = 6

 SCF Done:  E(UB3LYP) =  -3034.33335538     A.U. after   13 cycles
 Normal termination of Gaussian 16 at Tue Feb 11 14:14:11 2020.

 -------------------------------------------------------------------
 #t pop=none jul-cc-pvdz guess=read ub3lyp empiricaldispersion=gd3bj
 -------------------------------------------------------------------
 ------------------------------
 theory_abbreviation b3lyp_d3bj
 ------------------------------
 Symbolic Z-matrix:
 Charge =  0 Multiplicity = 6

 SCF Done:  E(UB3LYP) =  -3034.40341084     A.U. after    1 cycles
 Normal termination of Gaussian 16 at Tue Feb 11 14:15:22 2020.

 ----------------------------------------
 #t pop=none jul-cc-pvdz guess=read ub97d
 ----------------------------------------
 ------------------------
 theory_abbreviation b97d
 ------------------------
 Symbolic Z-matrix:
 Charge =  0 Multiplicity = 6

 SCF Done:  E(UB97D) =  -3034.58587188     A.U. after   15 cycles

 ----------------------------------------------------------------
 #t pop=none jul-cc-pvdz guess=read ub97d empiricaldispersion=gd3
 ----------------------------------------------------------------
 -------------------------
 theory_abbreviation b97d3
 -------------------------
 Symbolic Z-matrix:
 Charge =  0 Multiplicity = 6

 SCF Done:  E(UB97D) =  -3034.58793415     A.U. after    1 cycles
 SCF Done:  E(UBHandHLYP) =  -3033.97520462     A.U. after   15 cycles
 SCF Done:  E(UBHandH) =  -3026.31785214     A.U. after   15 cycles
 SCF Done:  E(ULC-wPBE) =  -3033.45874855     A.U. after   18 cycles
 SCF Done:  E(UB-P86) =  -3034.63792969     A.U. after   16 cycles
 SCF Done:  E(UmPW1LYP) =  -3034.05156292     A.U. after   14 cycles
 SCF Done:  E(UmPW1PBE) =  -3033.89206413     A.U. after   14 cycles
 SCF Done:  E(UmPW3PBE) =  -3033.66482352     A.U. after   13 cycles
 SCF Done:  E(UM11) =  -3033.81577410     A.U. after   16 cycles
 SCF Done:  E(UN12SX) =  -3033.25640920     A.U. after   17 cycles
 SCF Done:  E(UMN12SX) =  -3033.65803206     A.U. after   16 cycles
 SCF Done:  E(UB1B95) =  -3034.38817657     A.U. after   14 cycles
 Normal termination of Gaussian 16 at Tue Feb 11 22:36:53 2020.
 SCF Done:  E(UB3PW91) =  -3033.98059027     A.U. after   15 cycles
 Normal termination of Gaussian 16 at Tue Feb 11 22:54:26 2020.
 SCF Done:  E(UM06L) =  -3034.20276198     A.U. after   17 cycles
 Normal termination of Gaussian 16 at Tue Feb 11 23:13:26 2020.
 Gaussian 16:  ES64L-G16RevA.03 25-Dec-2016

                         Standard orientation:
 ---------------------------------------------------------------------
 Center     Atomic      Atomic             Coordinates (Angstroms)
 Number     Number       Type             X           Y           Z
 ---------------------------------------------------------------------
      1          8           0       -0.317418   -0.157852   -0.652088
      2          6           0       -1.146531   -1.113031   -0.569318
      3          6           0       -3.205194    0.036623    0.096036
      4          6           0       -2.350117    1.040972   -0.215074
      5          6           0       -2.295641    1.621512   -1.597632
      6         26           0        1.468428    0.083648    0.057599
      7         17           0        2.099817    1.985344   -0.807757
      8          6           0       -1.553089    1.787594    0.814495
      9         17           0        2.463460   -1.721158   -0.699488
     10         17           0        1.361121    0.088660    2.252688
     11          1           0       -3.825815   -0.355565   -0.708073
     12          1           0       -2.164085    2.621390    1.187838
     13          1           0       -1.266520    1.180067    1.673890
     14          1           0       -0.649652    2.222889    0.379583
     15          1           0       -2.596726    2.676247   -1.547747
     16          1           0       -1.272884    1.604271   -1.988621
     17          1           0       -2.968302    1.115523   -2.295385
     18          6           0       -3.592520   -0.407297    1.479825
     19          1           0       -4.514583    0.105302    1.786480
     20          1           0       -3.803601   -1.481047    1.520431
     21          1           0       -2.832055   -0.180097    2.230764
     22          6           0       -1.106898   -2.026928    0.616816
     23          1           0       -2.000202   -2.645988    0.699006
     24          1           0       -0.242894   -2.688083    0.449127
     25          1           0       -0.919414   -1.482546    1.542632
     26          6           0       -1.721931   -1.642716   -1.850565
     27          1           0       -0.951618   -2.314569   -2.257926
     28          1           0       -2.633853   -2.220834   -1.694547
     29          1           0       -1.880825   -0.847753   -2.578343
 ---------------------------------------------------------------------

 SCF Done:  E(UB97D3) =  -3034.62344710     A.U. after   17 cycles
 Normal termination of Gaussian 16 at Tue Feb 11 23:27:07 2020.
