 Gaussian 16, Revision A.03,

 --------------------------------
 #t pop=none jul-cc-pvdz upbe1pbe
 --------------------------------
 ------------------------
 theory_abbreviation pbe0
 ------------------------
 Symbolic Z-matrix:
 Charge =  0 Multiplicity = 6

 SCF Done:  E(UPBE1PBE) =  -3033.13956200     A.U. after   20 cycles
 Normal termination of Gaussian 16 at Wed Feb 12 14:11:17 2020.

 ---------------------------------------------------------------------
 #t pop=none jul-cc-pvdz guess=read upbe1pbe empiricaldispersion=gd3bj
 ---------------------------------------------------------------------
 -----------------------------
 theory_abbreviation pbe0_d3bj
 -----------------------------
 Symbolic Z-matrix:
 Charge =  0 Multiplicity = 6

 SCF Done:  E(UPBE1PBE) =  -3033.17552676     A.U. after    1 cycles
 Normal termination of Gaussian 16 at Wed Feb 12 14:12:23 2020.

 -----------------------------------------
 #t pop=none jul-cc-pvdz guess=read ub3lyp
 -----------------------------------------
 -------------------------
 theory_abbreviation b3lyp
 -------------------------
 Symbolic Z-matrix:
 Charge =  0 Multiplicity = 6

 SCF Done:  E(UB3LYP) =  -3034.35843844     A.U. after   13 cycles
 Normal termination of Gaussian 16 at Wed Feb 12 14:25:19 2020.

 -------------------------------------------------------------------
 #t pop=none jul-cc-pvdz guess=read ub3lyp empiricaldispersion=gd3bj
 -------------------------------------------------------------------
 ------------------------------
 theory_abbreviation b3lyp_d3bj
 ------------------------------
 Symbolic Z-matrix:
 Charge =  0 Multiplicity = 6

 SCF Done:  E(UB3LYP) =  -3034.42490343     A.U. after    1 cycles
 Normal termination of Gaussian 16 at Wed Feb 12 14:26:25 2020.

 ----------------------------------------
 #t pop=none jul-cc-pvdz guess=read ub97d
 ----------------------------------------
 ------------------------
 theory_abbreviation b97d
 ------------------------
 Symbolic Z-matrix:
 Charge =  0 Multiplicity = 6

 SCF Done:  E(UB97D) =  -3034.60762555     A.U. after   16 cycles

 ----------------------------------------------------------------
 #t pop=none jul-cc-pvdz guess=read ub97d empiricaldispersion=gd3
 ----------------------------------------------------------------
 -------------------------
 theory_abbreviation b97d3
 -------------------------
 Symbolic Z-matrix:
 Charge =  0 Multiplicity = 6

 SCF Done:  E(UB97D) =  -3034.60939644     A.U. after    3 cycles
 SCF Done:  E(UBHandHLYP) =  -3034.00042230     A.U. after   18 cycles
 SCF Done:  E(UBHandH) =  -3026.33488099     A.U. after   14 cycles
 SCF Done:  E(ULC-wPBE) =  -3033.48083647     A.U. after   17 cycles
 SCF Done:  E(UB-P86) =  -3034.65642943     A.U. after   17 cycles
 SCF Done:  E(UmPW1LYP) =  -3034.07681676     A.U. after   13 cycles
 SCF Done:  E(UmPW1PBE) =  -3033.91405747     A.U. after   14 cycles
 SCF Done:  E(UmPW3PBE) =  -3033.68703841     A.U. after   13 cycles
 SCF Done:  E(UM11) =  -3033.83826637     A.U. after   16 cycles
 SCF Done:  E(UN12SX) =  -3033.27854858     A.U. after   16 cycles
 SCF Done:  E(UMN12SX) =  -3033.68093254     A.U. after   16 cycles
 SCF Done:  E(UB1B95) =  -3034.41039295     A.U. after   14 cycles
 Normal termination of Gaussian 16 at Wed Feb 12 21:52:42 2020.
 SCF Done:  E(UB3PW91) =  -3034.00338958     A.U. after   13 cycles
 Normal termination of Gaussian 16 at Wed Feb 12 22:05:14 2020.
 SCF Done:  E(UM06L) =  -3034.22510420     A.U. after   17 cycles
 Normal termination of Gaussian 16 at Wed Feb 12 22:23:07 2020.
 Gaussian 16:  ES64L-G16RevA.03 25-Dec-2016

                         Standard orientation:
 ---------------------------------------------------------------------
 Center     Atomic      Atomic             Coordinates (Angstroms)
 Number     Number       Type             X           Y           Z
 ---------------------------------------------------------------------
      1          8           0        0.161608    0.446968   -0.887181
      2          6           0        0.909842    1.423095   -0.666492
      3          6           0        3.156938    0.059768    0.559028
      4          6           0        2.685946   -0.928463   -0.225022
      5          6           0        3.133878   -1.072323   -1.655889
      6         26           0       -1.490402   -0.177921    0.019262
      7         17           0       -2.063131   -1.969175   -1.066804
      8          6           0        1.743348   -2.004084    0.234506
      9         17           0       -2.769075    1.571760   -0.280297
     10         17           0       -1.033266   -0.506036    2.137758
     11          1           0        3.884364    0.742416    0.116816
     12          1           0        2.246828   -2.979659    0.197898
     13          1           0        1.367082   -1.856430    1.246508
     14          1           0        0.884306   -2.081186   -0.443881
     15          1           0        3.640623   -2.035787   -1.799177
     16          1           0        2.272596   -1.074655   -2.337157
     17          1           0        3.825806   -0.280877   -1.959245
     18          6           0        2.924444    0.240614    2.034108
     19          1           0        3.756424   -0.190579    2.607883
     20          1           0        2.879848    1.301551    2.304176
     21          1           0        2.003539   -0.233336    2.382418
     22          6           0        0.770359    2.242648    0.576002
     23          1           0        1.647445    2.865703    0.755400
     24          1           0       -0.101605    2.896105    0.423712
     25          1           0        0.556977    1.616787    1.443655
     26          6           0        1.755629    1.942161   -1.786302
     27          1           0        1.230474    2.817403   -2.196465
     28          1           0        2.730418    2.280772   -1.430924
     29          1           0        1.863176    1.200140   -2.575806
 ---------------------------------------------------------------------

 SCF Done:  E(UB97D3) =  -3034.64392335     A.U. after   16 cycles
 Normal termination of Gaussian 16 at Wed Feb 12 22:35:19 2020.
