 Gaussian 16, Revision A.03,

 --------------------------------
 #t pop=none jul-cc-pvdz upbe1pbe
 --------------------------------
 ------------------------
 theory_abbreviation pbe0
 ------------------------
 Symbolic Z-matrix:
 Charge =  0 Multiplicity = 6

 SCF Done:  E(UPBE1PBE) =  -3033.10880390     A.U. after   20 cycles
 Normal termination of Gaussian 16 at Tue Feb 11 14:00:27 2020.

 ---------------------------------------------------------------------
 #t pop=none jul-cc-pvdz guess=read upbe1pbe empiricaldispersion=gd3bj
 ---------------------------------------------------------------------
 -----------------------------
 theory_abbreviation pbe0_d3bj
 -----------------------------
 Symbolic Z-matrix:
 Charge =  0 Multiplicity = 6

 SCF Done:  E(UPBE1PBE) =  -3033.14648662     A.U. after    1 cycles
 Normal termination of Gaussian 16 at Tue Feb 11 14:01:39 2020.

 -----------------------------------------
 #t pop=none jul-cc-pvdz guess=read ub3lyp
 -----------------------------------------
 -------------------------
 theory_abbreviation b3lyp
 -------------------------
 Symbolic Z-matrix:
 Charge =  0 Multiplicity = 6

 SCF Done:  E(UB3LYP) =  -3034.32259864     A.U. after   13 cycles
 Normal termination of Gaussian 16 at Tue Feb 11 14:15:46 2020.

 -------------------------------------------------------------------
 #t pop=none jul-cc-pvdz guess=read ub3lyp empiricaldispersion=gd3bj
 -------------------------------------------------------------------
 ------------------------------
 theory_abbreviation b3lyp_d3bj
 ------------------------------
 Symbolic Z-matrix:
 Charge =  0 Multiplicity = 6

 SCF Done:  E(UB3LYP) =  -3034.39283545     A.U. after    1 cycles
 Normal termination of Gaussian 16 at Tue Feb 11 14:16:59 2020.

 ----------------------------------------
 #t pop=none jul-cc-pvdz guess=read ub97d
 ----------------------------------------
 ------------------------
 theory_abbreviation b97d
 ------------------------
 Symbolic Z-matrix:
 Charge =  0 Multiplicity = 6

 SCF Done:  E(UB97D) =  -3034.57597892     A.U. after   15 cycles

 ----------------------------------------------------------------
 #t pop=none jul-cc-pvdz guess=read ub97d empiricaldispersion=gd3
 ----------------------------------------------------------------
 -------------------------
 theory_abbreviation b97d3
 -------------------------
 Symbolic Z-matrix:
 Charge =  0 Multiplicity = 6

 SCF Done:  E(UB97D) =  -3034.57688757     A.U. after    1 cycles
 SCF Done:  E(UBHandHLYP) =  -3033.96454107     A.U. after   17 cycles
 SCF Done:  E(UBHandH) =  -3026.31094248     A.U. after   16 cycles
 SCF Done:  E(ULC-wPBE) =  -3033.44904364     A.U. after   19 cycles
 SCF Done:  E(UB-P86) =  -3034.62876432     A.U. after   17 cycles
 SCF Done:  E(UmPW1LYP) =  -3034.04078263     A.U. after   13 cycles
 SCF Done:  E(UmPW1PBE) =  -3033.88322735     A.U. after   13 cycles
 SCF Done:  E(UmPW3PBE) =  -3033.65573595     A.U. after   14 cycles
 SCF Done:  E(UM11) =  -3033.80662467     A.U. after   19 cycles
 SCF Done:  E(UN12SX) =  -3033.24839999     A.U. after   17 cycles
 SCF Done:  E(UMN12SX) =  -3033.64739238     A.U. after   16 cycles
 SCF Done:  E(UB1B95) =  -3034.37767532     A.U. after   16 cycles
 Normal termination of Gaussian 16 at Tue Feb 11 23:09:40 2020.
 SCF Done:  E(UB3PW91) =  -3033.97119186     A.U. after   15 cycles
 Normal termination of Gaussian 16 at Tue Feb 11 23:25:41 2020.
 SCF Done:  E(UM06L) =  -3034.19017314     A.U. after   18 cycles
 Normal termination of Gaussian 16 at Tue Feb 11 23:45:59 2020.
 Gaussian 16:  ES64L-G16RevA.03 25-Dec-2016

                         Standard orientation:
 ---------------------------------------------------------------------
 Center     Atomic      Atomic             Coordinates (Angstroms)
 Number     Number       Type             X           Y           Z
 ---------------------------------------------------------------------
      1          8           0       -0.324965   -0.127388   -0.666898
      2          6           0       -1.240787   -1.047819   -0.578713
      3          6           0       -2.971274   -0.140782    0.191157
      4          6           0       -2.361412    1.038942   -0.164366
      5          6           0       -2.492837    1.621107   -1.532077
      6         26           0        1.427267    0.081785    0.030957
      7         17           0        2.029649    2.051033   -0.729030
      8          6           0       -1.559087    1.852522    0.793239
      9         17           0        2.532253   -1.649523   -0.750896
     10         17           0        1.266431    0.027162    2.239671
     11          1           0       -3.674193   -0.555071   -0.528229
     12          1           0       -2.232243    2.609269    1.224548
     13          1           0       -1.139818    1.274505    1.616209
     14          1           0       -0.751359    2.384380    0.283151
     15          1           0       -2.815368    2.665980   -1.439545
     16          1           0       -1.507371    1.640386   -2.013436
     17          1           0       -3.209752    1.090647   -2.161509
     18          6           0       -3.220703   -0.546348    1.625791
     19          1           0       -4.091882   -0.000240    2.009702
     20          1           0       -3.448169   -1.611932    1.705942
     21          1           0       -2.379016   -0.327525    2.286213
     22          6           0       -1.037776   -2.125582    0.459429
     23          1           0       -1.892094   -2.799234    0.540070
     24          1           0       -0.172696   -2.704340    0.105182
     25          1           0       -0.773973   -1.716275    1.434339
     26          6           0       -1.769910   -1.538380   -1.910699
     27          1           0       -0.950515   -2.119275   -2.354513
     28          1           0       -2.639452   -2.190294   -1.803333
     29          1           0       -1.990247   -0.717653   -2.592720
 ---------------------------------------------------------------------

 SCF Done:  E(UB97D3) =  -3034.61230721     A.U. after   15 cycles
 Normal termination of Gaussian 16 at Tue Feb 11 23:58:05 2020.
