 Gaussian 16, Revision A.03,

 --------------------------------
 #t pop=none jul-cc-pvdz upbe1pbe
 --------------------------------
 ------------------------
 theory_abbreviation pbe0
 ------------------------
 Symbolic Z-matrix:
 Charge =  0 Multiplicity = 6

 SCF Done:  E(UPBE1PBE) =  -3033.13073218     A.U. after   21 cycles
 Normal termination of Gaussian 16 at Tue Feb 11 14:49:16 2020.

 ---------------------------------------------------------------------
 #t pop=none jul-cc-pvdz guess=read upbe1pbe empiricaldispersion=gd3bj
 ---------------------------------------------------------------------
 -----------------------------
 theory_abbreviation pbe0_d3bj
 -----------------------------
 Symbolic Z-matrix:
 Charge =  0 Multiplicity = 6

 SCF Done:  E(UPBE1PBE) =  -3033.16761591     A.U. after    1 cycles
 Normal termination of Gaussian 16 at Tue Feb 11 14:50:31 2020.

 -----------------------------------------
 #t pop=none jul-cc-pvdz guess=read ub3lyp
 -----------------------------------------
 -------------------------
 theory_abbreviation b3lyp
 -------------------------
 Symbolic Z-matrix:
 Charge =  0 Multiplicity = 6

 SCF Done:  E(UB3LYP) =  -3034.34816953     A.U. after   13 cycles
 Normal termination of Gaussian 16 at Tue Feb 11 15:05:06 2020.

 -------------------------------------------------------------------
 #t pop=none jul-cc-pvdz guess=read ub3lyp empiricaldispersion=gd3bj
 -------------------------------------------------------------------
 ------------------------------
 theory_abbreviation b3lyp_d3bj
 ------------------------------
 Symbolic Z-matrix:
 Charge =  0 Multiplicity = 6

 SCF Done:  E(UB3LYP) =  -3034.41663735     A.U. after    1 cycles
 Normal termination of Gaussian 16 at Tue Feb 11 15:06:20 2020.

 ----------------------------------------
 #t pop=none jul-cc-pvdz guess=read ub97d
 ----------------------------------------
 ------------------------
 theory_abbreviation b97d
 ------------------------
 Symbolic Z-matrix:
 Charge =  0 Multiplicity = 6

 SCF Done:  E(UB97D) =  -3034.60045799     A.U. after   15 cycles

 ----------------------------------------------------------------
 #t pop=none jul-cc-pvdz guess=read ub97d empiricaldispersion=gd3
 ----------------------------------------------------------------
 -------------------------
 theory_abbreviation b97d3
 -------------------------
 Symbolic Z-matrix:
 Charge =  0 Multiplicity = 6

 SCF Done:  E(UB97D) =  -3034.60160629     A.U. after    1 cycles
 SCF Done:  E(UBHandHLYP) =  -3033.98931486     A.U. after   17 cycles
 SCF Done:  E(UBHandH) =  -3026.32830602     A.U. after   14 cycles
 SCF Done:  E(ULC-wPBE) =  -3033.47109207     A.U. after   19 cycles
 SCF Done:  E(UB-P86) =  -3034.65009912     A.U. after   17 cycles
 SCF Done:  E(UmPW1LYP) =  -3034.06639428     A.U. after   13 cycles
 SCF Done:  E(UmPW1PBE) =  -3033.90517271     A.U. after   14 cycles
 SCF Done:  E(UmPW3PBE) =  -3033.67817146     A.U. after   13 cycles
 SCF Done:  E(UM11) =  -3033.82862051     A.U. after   17 cycles
 SCF Done:  E(UN12SX) =  -3033.26956963     A.U. after   16 cycles
 SCF Done:  E(UMN12SX) =  -3033.67109059     A.U. after   16 cycles
 SCF Done:  E(UB1B95) =  -3034.40081675     A.U. after   14 cycles
 Normal termination of Gaussian 16 at Wed Feb 12 00:03:39 2020.
 SCF Done:  E(UB3PW91) =  -3033.99418406     A.U. after   13 cycles
 Normal termination of Gaussian 16 at Wed Feb 12 00:16:25 2020.
 SCF Done:  E(UM06L) =  -3034.21617712     A.U. after   17 cycles
 Normal termination of Gaussian 16 at Wed Feb 12 00:34:08 2020.
 Gaussian 16:  ES64L-G16RevA.03 25-Dec-2016

                         Standard orientation:
 ---------------------------------------------------------------------
 Center     Atomic      Atomic             Coordinates (Angstroms)
 Number     Number       Type             X           Y           Z
 ---------------------------------------------------------------------
      1          8           0        0.214917    0.331108   -0.853344
      2          6           0        1.045872    1.261974   -0.664793
      3          6           0        2.953356    0.204202    0.556938
      4          6           0        2.662889   -0.931157   -0.120850
      5          6           0        3.227317   -1.203211   -1.486138
      6         26           0       -1.476507   -0.157379   -0.002641
      7         17           0       -2.040579   -2.026751   -0.967515
      8          6           0        1.751656   -2.000140    0.399413
      9         17           0       -2.717487    1.582797   -0.474460
     10         17           0       -1.116642   -0.356319    2.157473
     11          1           0        3.673457    0.882539    0.100398
     12          1           0        2.286539   -2.957576    0.449607
     13          1           0        1.337345   -1.784425    1.383576
     14          1           0        0.916938   -2.151927   -0.298214
     15          1           0        3.790715   -2.145168   -1.472138
     16          1           0        2.422160   -1.338112   -2.221011
     17          1           0        3.900460   -0.413525   -1.829849
     18          6           0        2.685340    0.438942    2.023039
     19          1           0        3.453689   -0.066085    2.623428
     20          1           0        2.737249    1.501296    2.275418
     21          1           0        1.713782    0.061117    2.349413
     22          6           0        0.827648    2.252523    0.440171
     23          1           0        1.710580    2.863014    0.631952
     24          1           0        0.018992    2.909535    0.086572
     25          1           0        0.479306    1.776903    1.356602
     26          6           0        1.853625    1.707187   -1.851510
     27          1           0        1.224747    2.439323   -2.378667
     28          1           0        2.780968    2.205799   -1.567138
     29          1           0        2.046742    0.882996   -2.535632
 ---------------------------------------------------------------------

 SCF Done:  E(UB97D3) =  -3034.63664685     A.U. after   15 cycles
 Normal termination of Gaussian 16 at Wed Feb 12 00:45:24 2020.
