 Gaussian 16, Revision A.03,

 --------------------------------
 #t pop=none jul-cc-pvdz upbe1pbe
 --------------------------------
 ------------------------
 theory_abbreviation pbe0
 ------------------------
 Symbolic Z-matrix:
 Charge =  0 Multiplicity = 6

 SCF Done:  E(UPBE1PBE) =  -3033.11247751     A.U. after   19 cycles
 Normal termination of Gaussian 16 at Tue Feb 11 13:56:06 2020.

 ---------------------------------------------------------------------
 #t pop=none jul-cc-pvdz guess=read upbe1pbe empiricaldispersion=gd3bj
 ---------------------------------------------------------------------
 -----------------------------
 theory_abbreviation pbe0_d3bj
 -----------------------------
 Symbolic Z-matrix:
 Charge =  0 Multiplicity = 6

 SCF Done:  E(UPBE1PBE) =  -3033.14933960     A.U. after    1 cycles
 Normal termination of Gaussian 16 at Tue Feb 11 13:57:20 2020.

 -----------------------------------------
 #t pop=none jul-cc-pvdz guess=read ub3lyp
 -----------------------------------------
 -------------------------
 theory_abbreviation b3lyp
 -------------------------
 Symbolic Z-matrix:
 Charge =  0 Multiplicity = 6

 SCF Done:  E(UB3LYP) =  -3034.32577959     A.U. after   13 cycles
 Normal termination of Gaussian 16 at Tue Feb 11 14:11:07 2020.

 -------------------------------------------------------------------
 #t pop=none jul-cc-pvdz guess=read ub3lyp empiricaldispersion=gd3bj
 -------------------------------------------------------------------
 ------------------------------
 theory_abbreviation b3lyp_d3bj
 ------------------------------
 Symbolic Z-matrix:
 Charge =  0 Multiplicity = 6

 SCF Done:  E(UB3LYP) =  -3034.39433873     A.U. after    1 cycles
 Normal termination of Gaussian 16 at Tue Feb 11 14:12:27 2020.

 ----------------------------------------
 #t pop=none jul-cc-pvdz guess=read ub97d
 ----------------------------------------
 ------------------------
 theory_abbreviation b97d
 ------------------------
 Symbolic Z-matrix:
 Charge =  0 Multiplicity = 6

 SCF Done:  E(UB97D) =  -3034.57639944     A.U. after   16 cycles

 ----------------------------------------------------------------
 #t pop=none jul-cc-pvdz guess=read ub97d empiricaldispersion=gd3
 ----------------------------------------------------------------
 -------------------------
 theory_abbreviation b97d3
 -------------------------
 Symbolic Z-matrix:
 Charge =  0 Multiplicity = 6

 SCF Done:  E(UB97D) =  -3034.57731344     A.U. after    1 cycles
 SCF Done:  E(UBHandHLYP) =  -3033.96722276     A.U. after   16 cycles
 SCF Done:  E(UBHandH) =  -3026.31246123     A.U. after   14 cycles
 SCF Done:  E(ULC-wPBE) =  -3033.45695765     A.U. after   17 cycles
 SCF Done:  E(UB-P86) =  -3034.63264227     A.U. after   16 cycles
 SCF Done:  E(UmPW1LYP) =  -3034.04388680     A.U. after   14 cycles
 SCF Done:  E(UmPW1PBE) =  -3033.88698920     A.U. after   14 cycles
 SCF Done:  E(UmPW3PBE) =  -3033.65938908     A.U. after   14 cycles
 SCF Done:  E(UM11) =  -3033.80716148     A.U. after   16 cycles
 SCF Done:  E(UN12SX) =  -3033.25283198     A.U. after   16 cycles
 SCF Done:  E(UMN12SX) =  -3033.64741079     A.U. after   15 cycles
 SCF Done:  E(UB1B95) =  -3034.37829936     A.U. after   15 cycles
 Normal termination of Gaussian 16 at Tue Feb 11 22:32:49 2020.
 SCF Done:  E(UB3PW91) =  -3033.97480907     A.U. after   14 cycles
 Normal termination of Gaussian 16 at Tue Feb 11 22:47:30 2020.
 SCF Done:  E(UM06L) =  -3034.18874804     A.U. after   18 cycles
 Normal termination of Gaussian 16 at Tue Feb 11 23:08:29 2020.
 Gaussian 16:  ES64L-G16RevA.03 25-Dec-2016

                         Standard orientation:
 ---------------------------------------------------------------------
 Center     Atomic      Atomic             Coordinates (Angstroms)
 Number     Number       Type             X           Y           Z
 ---------------------------------------------------------------------
      1          8           0       -0.424389   -0.166480   -0.500797
      2          6           0       -1.411098   -1.217273   -0.356750
      3          6           0       -2.818654   -0.106428   -0.199243
      4          6           0       -1.940471    1.119931   -0.284848
      5          6           0       -1.849239    1.845707   -1.579042
      6         26           0        1.373761    0.045359    0.042080
      7         17           0        1.854697    2.008464   -0.849073
      8          6           0       -1.559080    1.866069    0.942881
      9         17           0        2.435420   -1.707788   -0.735448
     10         17           0        1.368682    0.149771    2.250411
     11          1           0       -3.409061   -0.213660   -1.112081
     12          1           0       -2.421956    2.493447    1.216933
     13          1           0       -1.339073    1.209497    1.784855
     14          1           0       -0.704575    2.520860    0.759317
     15          1           0       -2.655024    2.597389   -1.585245
     16          1           0       -0.893088    2.367076   -1.670529
     17          1           0       -1.998294    1.180417   -2.431112
     18          6           0       -3.674393   -0.289246    1.040373
     19          1           0       -4.450368    0.483327    1.106035
     20          1           0       -4.180816   -1.258330    0.998131
     21          1           0       -3.090339   -0.259108    1.963217
     22          6           0       -1.183110   -2.051333    0.880871
     23          1           0       -1.997990   -2.768513    1.021660
     24          1           0       -0.250403   -2.616121    0.760665
     25          1           0       -1.082153   -1.436252    1.776925
     26          6           0       -1.490410   -2.021517   -1.633470
     27          1           0       -0.532428   -2.531134   -1.791411
     28          1           0       -2.283508   -2.774588   -1.573906
     29          1           0       -1.674450   -1.374856   -2.495950
 ---------------------------------------------------------------------

 SCF Done:  E(UB97D3) =  -3034.61243877     A.U. after   16 cycles
 Normal termination of Gaussian 16 at Tue Feb 11 23:21:23 2020.
