 Gaussian 16, Revision A.03,

 --------------------------------
 #t pop=none jul-cc-pvdz upbe1pbe
 --------------------------------
 ------------------------
 theory_abbreviation pbe0
 ------------------------
 Symbolic Z-matrix:
 Charge =  0 Multiplicity = 6

 SCF Done:  E(UPBE1PBE) =  -3033.10082122     A.U. after   21 cycles
 Normal termination of Gaussian 16 at Tue Feb 11 13:59:20 2020.

 ---------------------------------------------------------------------
 #t pop=none jul-cc-pvdz guess=read upbe1pbe empiricaldispersion=gd3bj
 ---------------------------------------------------------------------
 -----------------------------
 theory_abbreviation pbe0_d3bj
 -----------------------------
 Symbolic Z-matrix:
 Charge =  0 Multiplicity = 6

 SCF Done:  E(UPBE1PBE) =  -3033.13804340     A.U. after    1 cycles
 Normal termination of Gaussian 16 at Tue Feb 11 14:00:31 2020.

 -----------------------------------------
 #t pop=none jul-cc-pvdz guess=read ub3lyp
 -----------------------------------------
 -------------------------
 theory_abbreviation b3lyp
 -------------------------
 Symbolic Z-matrix:
 Charge =  0 Multiplicity = 6

 SCF Done:  E(UB3LYP) =  -3034.31358625     A.U. after   15 cycles
 Normal termination of Gaussian 16 at Tue Feb 11 14:16:20 2020.

 -------------------------------------------------------------------
 #t pop=none jul-cc-pvdz guess=read ub3lyp empiricaldispersion=gd3bj
 -------------------------------------------------------------------
 ------------------------------
 theory_abbreviation b3lyp_d3bj
 ------------------------------
 Symbolic Z-matrix:
 Charge =  0 Multiplicity = 6

 SCF Done:  E(UB3LYP) =  -3034.38290602     A.U. after    1 cycles
 Normal termination of Gaussian 16 at Tue Feb 11 14:17:31 2020.

 ----------------------------------------
 #t pop=none jul-cc-pvdz guess=read ub97d
 ----------------------------------------
 ------------------------
 theory_abbreviation b97d
 ------------------------
 Symbolic Z-matrix:
 Charge =  0 Multiplicity = 6

 SCF Done:  E(UB97D) =  -3034.56524112     A.U. after   15 cycles

 ----------------------------------------------------------------
 #t pop=none jul-cc-pvdz guess=read ub97d empiricaldispersion=gd3
 ----------------------------------------------------------------
 -------------------------
 theory_abbreviation b97d3
 -------------------------
 Symbolic Z-matrix:
 Charge =  0 Multiplicity = 6

 SCF Done:  E(UB97D) =  -3034.56589546     A.U. after    1 cycles
 SCF Done:  E(UBHandHLYP) =  -3033.95704381     A.U. after   17 cycles
 SCF Done:  E(UBHandH) =  -3026.30441217     A.U. after   14 cycles
 SCF Done:  E(ULC-wPBE) =  -3033.44191225     A.U. after   18 cycles
 SCF Done:  E(UB-P86) =  -3034.61893589     A.U. after   16 cycles
 SCF Done:  E(UmPW1LYP) =  -3034.03201298     A.U. after   15 cycles
 SCF Done:  E(UmPW1PBE) =  -3033.87525932     A.U. after   15 cycles
 SCF Done:  E(UmPW3PBE) =  -3033.64742229     A.U. after   13 cycles
 SCF Done:  E(UM11) =  -3033.79835477     A.U. after   19 cycles
 SCF Done:  E(UN12SX) =  -3033.24099436     A.U. after   15 cycles
 SCF Done:  E(UMN12SX) =  -3033.63928746     A.U. after   16 cycles
 SCF Done:  E(UB1B95) =  -3034.36901966     A.U. after   16 cycles
 Normal termination of Gaussian 16 at Tue Feb 11 22:42:35 2020.
 SCF Done:  E(UB3PW91) =  -3033.96275149     A.U. after   14 cycles
 Normal termination of Gaussian 16 at Tue Feb 11 22:58:26 2020.
 SCF Done:  E(UM06L) =  -3034.18009936     A.U. after   17 cycles
 Normal termination of Gaussian 16 at Tue Feb 11 23:17:19 2020.
 Gaussian 16:  ES64L-G16RevA.03 25-Dec-2016

                         Standard orientation:
 ---------------------------------------------------------------------
 Center     Atomic      Atomic             Coordinates (Angstroms)
 Number     Number       Type             X           Y           Z
 ---------------------------------------------------------------------
      1          8           0       -0.337846   -0.155059   -0.561940
      2          6           0       -1.316574   -1.072660   -0.468957
      3          6           0       -2.951256   -0.077530   -0.094755
      4          6           0       -2.179792    1.090964   -0.219652
      5          6           0       -2.013718    1.773649   -1.527972
      6         26           0        1.414600    0.047299    0.039444
      7         17           0        1.905163    2.048815   -0.767275
      8          6           0       -1.587408    1.770892    0.961072
      9         17           0        2.536053   -1.672326   -0.752038
     10         17           0        1.339590    0.048884    2.259175
     11          1           0       -3.546954   -0.316343   -0.973838
     12          1           0       -2.376867    2.409681    1.388896
     13          1           0       -1.273262    1.076077    1.741304
     14          1           0       -0.742392    2.403074    0.682511
     15          1           0       -2.581880    2.715259   -1.469229
     16          1           0       -0.964350    2.035725   -1.692884
     17          1           0       -2.402891    1.193715   -2.366189
     18          6           0       -3.608897   -0.467920    1.212556
     19          1           0       -4.492234    0.158941    1.386880
     20          1           0       -3.949191   -1.506131    1.179402
     21          1           0       -2.947627   -0.357050    2.074085
     22          6           0       -1.171511   -2.039049    0.683812
     23          1           0       -2.016693   -2.724731    0.769469
     24          1           0       -0.269516   -2.627638    0.466004
     25          1           0       -0.995963   -1.525930    1.630090
     26          6           0       -1.631679   -1.724292   -1.800114
     27          1           0       -0.741873   -2.303896   -2.078043
     28          1           0       -2.491661   -2.396927   -1.740422
     29          1           0       -1.792164   -0.978783   -2.581677
 ---------------------------------------------------------------------

 SCF Done:  E(UB97D3) =  -3034.60079281     A.U. after   14 cycles
 Normal termination of Gaussian 16 at Tue Feb 11 23:28:39 2020.
