 Gaussian 16, Revision A.03,

 --------------------------------
 #t pop=none jul-cc-pvdz upbe1pbe
 --------------------------------
 ------------------------
 theory_abbreviation pbe0
 ------------------------
 Symbolic Z-matrix:
 Charge =  0 Multiplicity = 6

 SCF Done:  E(UPBE1PBE) =  -3033.11153670     A.U. after   21 cycles
 Normal termination of Gaussian 16 at Tue Feb 11 23:50:39 2020.

 ---------------------------------------------------------------------
 #t pop=none jul-cc-pvdz guess=read upbe1pbe empiricaldispersion=gd3bj
 ---------------------------------------------------------------------
 -----------------------------
 theory_abbreviation pbe0_d3bj
 -----------------------------
 Symbolic Z-matrix:
 Charge =  0 Multiplicity = 6

 SCF Done:  E(UPBE1PBE) =  -3033.14863788     A.U. after    1 cycles
 Normal termination of Gaussian 16 at Tue Feb 11 23:51:49 2020.

 -----------------------------------------
 #t pop=none jul-cc-pvdz guess=read ub3lyp
 -----------------------------------------
 -------------------------
 theory_abbreviation b3lyp
 -------------------------
 Symbolic Z-matrix:
 Charge =  0 Multiplicity = 6

 SCF Done:  E(UB3LYP) =  -3034.32523671     A.U. after   13 cycles
 Normal termination of Gaussian 16 at Wed Feb 12 00:06:13 2020.

 -------------------------------------------------------------------
 #t pop=none jul-cc-pvdz guess=read ub3lyp empiricaldispersion=gd3bj
 -------------------------------------------------------------------
 ------------------------------
 theory_abbreviation b3lyp_d3bj
 ------------------------------
 Symbolic Z-matrix:
 Charge =  0 Multiplicity = 6

 SCF Done:  E(UB3LYP) =  -3034.39440698     A.U. after    1 cycles
 Normal termination of Gaussian 16 at Wed Feb 12 00:07:20 2020.

 ----------------------------------------
 #t pop=none jul-cc-pvdz guess=read ub97d
 ----------------------------------------
 ------------------------
 theory_abbreviation b97d
 ------------------------
 Symbolic Z-matrix:
 Charge =  0 Multiplicity = 6

 SCF Done:  E(UB97D) =  -3034.57904231     A.U. after   17 cycles

 ----------------------------------------------------------------
 #t pop=none jul-cc-pvdz guess=read ub97d empiricaldispersion=gd3
 ----------------------------------------------------------------
 -------------------------
 theory_abbreviation b97d3
 -------------------------
 Symbolic Z-matrix:
 Charge =  0 Multiplicity = 6

 SCF Done:  E(UB97D) =  -3034.57926082     A.U. after    1 cycles
 SCF Done:  E(UBHandHLYP) =  -3033.96634284     A.U. after   18 cycles
 SCF Done:  E(UBHandH) =  -3026.31304473     A.U. after   16 cycles
 SCF Done:  E(ULC-wPBE) =  -3033.45086583     A.U. after   19 cycles
 SCF Done:  E(UB-P86) =  -3034.63103431     A.U. after   17 cycles
 SCF Done:  E(UmPW1LYP) =  -3034.04330055     A.U. after   16 cycles
 SCF Done:  E(UmPW1PBE) =  -3033.88588269     A.U. after   16 cycles
 SCF Done:  E(UmPW3PBE) =  -3033.65850398     A.U. after   15 cycles
 SCF Done:  E(UM11) =  -3033.80947332     A.U. after   19 cycles
 SCF Done:  E(UN12SX) =  -3033.25137123     A.U. after   17 cycles
 SCF Done:  E(UMN12SX) =  -3033.64962319     A.U. after   17 cycles
 SCF Done:  E(UB1B95) =  -3034.38007643     A.U. after   16 cycles
 Normal termination of Gaussian 16 at Wed Feb 12 08:44:35 2020.
 SCF Done:  E(UB3PW91) =  -3033.97393074     A.U. after   16 cycles
 Normal termination of Gaussian 16 at Wed Feb 12 09:00:42 2020.
 SCF Done:  E(UM06L) =  -3034.19281216     A.U. after   18 cycles
 Normal termination of Gaussian 16 at Wed Feb 12 09:20:30 2020.
 Gaussian 16:  ES64L-G16RevA.03 25-Dec-2016

                         Standard orientation:
 ---------------------------------------------------------------------
 Center     Atomic      Atomic             Coordinates (Angstroms)
 Number     Number       Type             X           Y           Z
 ---------------------------------------------------------------------
      1          8           0       -0.310090   -0.190816   -0.721875
      2          6           0       -1.222592   -1.111253   -0.566182
      3          6           0       -2.728624   -0.329141    0.492199
      4          6           0       -2.561212    0.928971   -0.059690
      5          6           0       -3.204119    1.313738   -1.351031
      6         26           0        1.422197    0.131441   -0.027836
      7         17           0        1.943453    2.100442   -0.852290
      8          6           0       -1.671125    1.955909    0.537321
      9         17           0        2.656523   -1.551475   -0.706473
     10         17           0        1.216461    0.184183    2.180546
     11          1           0       -3.524488   -0.927149    0.050535
     12          1           0       -2.220186    2.900126    0.645484
     13          1           0       -1.243609    1.673206    1.497157
     14          1           0       -0.846458    2.158551   -0.161151
     15          1           0       -3.769631    2.242943   -1.205501
     16          1           0       -2.432788    1.538697   -2.099849
     17          1           0       -3.882329    0.551632   -1.737749
     18          6           0       -2.504779   -0.577507    1.974018
     19          1           0       -3.238549   -0.004135    2.552628
     20          1           0       -2.651461   -1.631563    2.216744
     21          1           0       -1.508027   -0.287319    2.311266
     22          6           0       -0.859203   -2.284706    0.328175
     23          1           0       -1.700859   -2.960405    0.495037
     24          1           0       -0.075760   -2.829494   -0.214725
     25          1           0       -0.434281   -1.965491    1.279125
     26          6           0       -1.884291   -1.535899   -1.868770
     27          1           0       -1.138913   -2.140805   -2.399217
     28          1           0       -2.774515   -2.149746   -1.711895
     29          1           0       -2.118302   -0.684214   -2.505700
 ---------------------------------------------------------------------

 SCF Done:  E(UB97D3) =  -3034.61370354     A.U. after   16 cycles
 Normal termination of Gaussian 16 at Wed Feb 12 09:33:24 2020.
