 Gaussian 16, Revision A.03,

 --------------------------------
 #t pop=none jul-cc-pvdz upbe1pbe
 --------------------------------
 ------------------------
 theory_abbreviation pbe0
 ------------------------
 Symbolic Z-matrix:
 Charge =  0 Multiplicity = 6

 SCF Done:  E(UPBE1PBE) =  -3033.11867614     A.U. after   21 cycles
 Normal termination of Gaussian 16 at Tue Feb 11 14:46:54 2020.

 ---------------------------------------------------------------------
 #t pop=none jul-cc-pvdz guess=read upbe1pbe empiricaldispersion=gd3bj
 ---------------------------------------------------------------------
 -----------------------------
 theory_abbreviation pbe0_d3bj
 -----------------------------
 Symbolic Z-matrix:
 Charge =  0 Multiplicity = 6

 SCF Done:  E(UPBE1PBE) =  -3033.15515206     A.U. after    1 cycles
 Normal termination of Gaussian 16 at Tue Feb 11 14:48:03 2020.

 -----------------------------------------
 #t pop=none jul-cc-pvdz guess=read ub3lyp
 -----------------------------------------
 -------------------------
 theory_abbreviation b3lyp
 -------------------------
 Symbolic Z-matrix:
 Charge =  0 Multiplicity = 6

 SCF Done:  E(UB3LYP) =  -3034.33411192     A.U. after   15 cycles
 Normal termination of Gaussian 16 at Tue Feb 11 15:03:43 2020.

 -------------------------------------------------------------------
 #t pop=none jul-cc-pvdz guess=read ub3lyp empiricaldispersion=gd3bj
 -------------------------------------------------------------------
 ------------------------------
 theory_abbreviation b3lyp_d3bj
 ------------------------------
 Symbolic Z-matrix:
 Charge =  0 Multiplicity = 6

 SCF Done:  E(UB3LYP) =  -3034.40210423     A.U. after    1 cycles
 Normal termination of Gaussian 16 at Tue Feb 11 15:04:52 2020.

 ----------------------------------------
 #t pop=none jul-cc-pvdz guess=read ub97d
 ----------------------------------------
 ------------------------
 theory_abbreviation b97d
 ------------------------
 Symbolic Z-matrix:
 Charge =  0 Multiplicity = 6

 SCF Done:  E(UB97D) =  -3034.58674544     A.U. after   16 cycles

 ----------------------------------------------------------------
 #t pop=none jul-cc-pvdz guess=read ub97d empiricaldispersion=gd3
 ----------------------------------------------------------------
 -------------------------
 theory_abbreviation b97d3
 -------------------------
 Symbolic Z-matrix:
 Charge =  0 Multiplicity = 6

 SCF Done:  E(UB97D) =  -3034.58791976     A.U. after    1 cycles
 SCF Done:  E(UBHandHLYP) =  -3033.97340678     A.U. after   17 cycles
 SCF Done:  E(UBHandH) =  -3026.31693977     A.U. after   16 cycles
 SCF Done:  E(ULC-wPBE) =  -3033.45633424     A.U. after   18 cycles
 SCF Done:  E(UB-P86) =  -3034.63853613     A.U. after   17 cycles
 SCF Done:  E(UmPW1LYP) =  -3034.05181513     A.U. after   15 cycles
 SCF Done:  E(UmPW1PBE) =  -3033.89328311     A.U. after   16 cycles
 SCF Done:  E(UmPW3PBE) =  -3033.66626300     A.U. after   12 cycles
 SCF Done:  E(UM11) =  -3033.81449345     A.U. after   19 cycles
 SCF Done:  E(UN12SX) =  -3033.25783998     A.U. after   17 cycles
 SCF Done:  E(UMN12SX) =  -3033.65510490     A.U. after   17 cycles
 SCF Done:  E(UB1B95) =  -3034.38694609     A.U. after   16 cycles
 Normal termination of Gaussian 16 at Tue Feb 11 23:55:11 2020.
 SCF Done:  E(UB3PW91) =  -3033.98200658     A.U. after   15 cycles
 Normal termination of Gaussian 16 at Wed Feb 12 00:11:27 2020.
 SCF Done:  E(UM06L) =  -3034.19906450     A.U. after   16 cycles
 Normal termination of Gaussian 16 at Wed Feb 12 00:29:15 2020.
 Gaussian 16:  ES64L-G16RevA.03 25-Dec-2016

                         Standard orientation:
 ---------------------------------------------------------------------
 Center     Atomic      Atomic             Coordinates (Angstroms)
 Number     Number       Type             X           Y           Z
 ---------------------------------------------------------------------
      1          8           0       -0.313480   -0.190999   -0.503605
      2          6           0       -1.149614   -1.148738   -0.293314
      3          6           0       -2.685222   -0.272870    0.840162
      4          6           0       -2.981181    0.714383   -0.072113
      5          6           0       -4.019725    0.528725   -1.131846
      6         26           0        1.517584    0.178161   -0.088197
      7         17           0        1.839252    2.139073   -1.006668
      8          6           0       -2.228932    1.996218   -0.086550
      9         17           0        2.568770   -1.518976   -1.001884
     10         17           0        1.750906    0.218241    2.102106
     11          1           0       -3.344389   -1.140277    0.836450
     12          1           0       -2.699395    2.749133   -0.723145
     13          1           0       -2.072463    2.405245    0.915653
     14          1           0       -1.225004    1.780866   -0.492849
     15          1           0       -4.838160    1.236806   -0.939775
     16          1           0       -3.627599    0.780173   -2.125327
     17          1           0       -4.439254   -0.479214   -1.148694
     18          6           0       -2.012806    0.052891    2.158496
     19          1           0       -2.606255    0.795067    2.705662
     20          1           0       -1.934180   -0.832601    2.791354
     21          1           0       -1.008322    0.462492    2.027366
     22          6           0       -0.758390   -2.209793    0.719006
     23          1           0       -1.597019   -2.848713    1.003974
     24          1           0       -0.005898   -2.829787    0.212708
     25          1           0       -0.285157   -1.781780    1.601613
     26          6           0       -1.838499   -1.685291   -1.531003
     27          1           0       -1.113289   -2.348990   -2.018975
     28          1           0       -2.731439   -2.269876   -1.297629
     29          1           0       -2.077092   -0.887613   -2.233856
 ---------------------------------------------------------------------

 SCF Done:  E(UB97D3) =  -3034.62292838     A.U. after   15 cycles
 Normal termination of Gaussian 16 at Wed Feb 12 00:41:23 2020.
