 Gaussian 16, Revision A.03,

 --------------------------------
 #t pop=none jul-cc-pvdz upbe1pbe
 --------------------------------
 ------------------------
 theory_abbreviation pbe0
 ------------------------
 Symbolic Z-matrix:
 Charge =  0 Multiplicity = 6

 SCF Done:  E(UPBE1PBE) =  -3033.11496419     A.U. after   21 cycles
 Normal termination of Gaussian 16 at Tue Feb 11 14:46:14 2020.

 ---------------------------------------------------------------------
 #t pop=none jul-cc-pvdz guess=read upbe1pbe empiricaldispersion=gd3bj
 ---------------------------------------------------------------------
 -----------------------------
 theory_abbreviation pbe0_d3bj
 -----------------------------
 Symbolic Z-matrix:
 Charge =  0 Multiplicity = 6

 SCF Done:  E(UPBE1PBE) =  -3033.15066747     A.U. after    1 cycles
 Normal termination of Gaussian 16 at Tue Feb 11 14:47:24 2020.

 -----------------------------------------
 #t pop=none jul-cc-pvdz guess=read ub3lyp
 -----------------------------------------
 -------------------------
 theory_abbreviation b3lyp
 -------------------------
 Symbolic Z-matrix:
 Charge =  0 Multiplicity = 6

 SCF Done:  E(UB3LYP) =  -3034.32955788     A.U. after   15 cycles
 Normal termination of Gaussian 16 at Tue Feb 11 15:02:59 2020.

 -------------------------------------------------------------------
 #t pop=none jul-cc-pvdz guess=read ub3lyp empiricaldispersion=gd3bj
 -------------------------------------------------------------------
 ------------------------------
 theory_abbreviation b3lyp_d3bj
 ------------------------------
 Symbolic Z-matrix:
 Charge =  0 Multiplicity = 6

 SCF Done:  E(UB3LYP) =  -3034.39614786     A.U. after    1 cycles
 Normal termination of Gaussian 16 at Tue Feb 11 15:04:09 2020.

 ----------------------------------------
 #t pop=none jul-cc-pvdz guess=read ub97d
 ----------------------------------------
 ------------------------
 theory_abbreviation b97d
 ------------------------
 Symbolic Z-matrix:
 Charge =  0 Multiplicity = 6

 SCF Done:  E(UB97D) =  -3034.58232304     A.U. after   17 cycles

 ----------------------------------------------------------------
 #t pop=none jul-cc-pvdz guess=read ub97d empiricaldispersion=gd3
 ----------------------------------------------------------------
 -------------------------
 theory_abbreviation b97d3
 -------------------------
 Symbolic Z-matrix:
 Charge =  0 Multiplicity = 6

 SCF Done:  E(UB97D) =  -3034.58241406     A.U. after    1 cycles
 SCF Done:  E(UBHandHLYP) =  -3033.96848384     A.U. after   17 cycles
 SCF Done:  E(UBHandH) =  -3026.31314859     A.U. after   16 cycles
 SCF Done:  E(ULC-wPBE) =  -3033.45160588     A.U. after   18 cycles
 SCF Done:  E(UB-P86) =  -3034.63394048     A.U. after   16 cycles
 SCF Done:  E(UmPW1LYP) =  -3034.04708237     A.U. after   15 cycles
 SCF Done:  E(UmPW1PBE) =  -3033.88959156     A.U. after   16 cycles
 SCF Done:  E(UmPW3PBE) =  -3033.66252288     A.U. after   15 cycles
 SCF Done:  E(UM11) =  -3033.80985642     A.U. after   19 cycles
 SCF Done:  E(UN12SX) =  -3033.25446888     A.U. after   17 cycles
 SCF Done:  E(UMN12SX) =  -3033.65035290     A.U. after   17 cycles
 SCF Done:  E(UB1B95) =  -3034.38242539     A.U. after   16 cycles
 Normal termination of Gaussian 16 at Tue Feb 11 23:53:38 2020.
 SCF Done:  E(UB3PW91) =  -3033.97820025     A.U. after   15 cycles
 Normal termination of Gaussian 16 at Wed Feb 12 00:10:23 2020.
 SCF Done:  E(UM06L) =  -3034.19455217     A.U. after   16 cycles
 Normal termination of Gaussian 16 at Wed Feb 12 00:28:08 2020.
 Gaussian 16:  ES64L-G16RevA.03 25-Dec-2016

                         Standard orientation:
 ---------------------------------------------------------------------
 Center     Atomic      Atomic             Coordinates (Angstroms)
 Number     Number       Type             X           Y           Z
 ---------------------------------------------------------------------
      1          8           0       -0.296793   -0.144132   -0.434027
      2          6           0       -1.178754   -1.076930   -0.181991
      3          6           0       -2.595883   -0.240142    0.863970
      4          6           0       -3.114976    0.650559   -0.075165
      5          6           0       -4.261126    0.292422   -0.956923
      6         26           0        1.545297    0.170111   -0.104535
      7         17           0        1.896511    2.108669   -1.067686
      8          6           0       -2.438620    1.947580   -0.304734
      9         17           0        2.526157   -1.569289   -1.026322
     10         17           0        1.861047    0.241132    2.078257
     11          1           0       -3.215156   -1.120488    1.036694
     12          1           0       -2.936238    2.567107   -1.053230
     13          1           0       -2.305883    2.515404    0.622466
     14          1           0       -1.412815    1.706268   -0.648497
     15          1           0       -5.096126    0.968324   -0.720557
     16          1           0       -4.020988    0.467701   -2.013060
     17          1           0       -4.602040   -0.735627   -0.821080
     18          6           0       -1.882650    0.302599    2.094501
     19          1           0       -2.506136    1.055935    2.588655
     20          1           0       -1.693807   -0.492759    2.816533
     21          1           0       -0.923839    0.761609    1.846329
     22          6           0       -0.744274   -2.144846    0.818662
     23          1           0       -1.567637   -2.797563    1.118331
     24          1           0        0.009396   -2.749143    0.297903
     25          1           0       -0.263937   -1.711591    1.695411
     26          6           0       -1.823383   -1.654928   -1.432665
     27          1           0       -1.071254   -2.297523   -1.904938
     28          1           0       -2.703982   -2.263406   -1.209712
     29          1           0       -2.078108   -0.870692   -2.147284
 ---------------------------------------------------------------------

 SCF Done:  E(UB97D3) =  -3034.61666534     A.U. after   16 cycles
 Normal termination of Gaussian 16 at Wed Feb 12 00:40:58 2020.
