 Gaussian 16, Revision A.03,

 --------------------------------
 #t pop=none jul-cc-pvdz upbe1pbe
 --------------------------------
 ------------------------
 theory_abbreviation pbe0
 ------------------------
 Symbolic Z-matrix:
 Charge =  0 Multiplicity = 6

 SCF Done:  E(UPBE1PBE) =  -3033.13525278     A.U. after   19 cycles
 Normal termination of Gaussian 16 at Tue Feb 11 13:57:58 2020.

 ---------------------------------------------------------------------
 #t pop=none jul-cc-pvdz guess=read upbe1pbe empiricaldispersion=gd3bj
 ---------------------------------------------------------------------
 -----------------------------
 theory_abbreviation pbe0_d3bj
 -----------------------------
 Symbolic Z-matrix:
 Charge =  0 Multiplicity = 6

 SCF Done:  E(UPBE1PBE) =  -3033.17151393     A.U. after    1 cycles
 Normal termination of Gaussian 16 at Tue Feb 11 13:59:08 2020.

 -----------------------------------------
 #t pop=none jul-cc-pvdz guess=read ub3lyp
 -----------------------------------------
 -------------------------
 theory_abbreviation b3lyp
 -------------------------
 Symbolic Z-matrix:
 Charge =  0 Multiplicity = 6

 SCF Done:  E(UB3LYP) =  -3034.35367810     A.U. after   13 cycles
 Normal termination of Gaussian 16 at Tue Feb 11 14:12:37 2020.

 -------------------------------------------------------------------
 #t pop=none jul-cc-pvdz guess=read ub3lyp empiricaldispersion=gd3bj
 -------------------------------------------------------------------
 ------------------------------
 theory_abbreviation b3lyp_d3bj
 ------------------------------
 Symbolic Z-matrix:
 Charge =  0 Multiplicity = 6

 SCF Done:  E(UB3LYP) =  -3034.42081744     A.U. after    1 cycles
 Normal termination of Gaussian 16 at Tue Feb 11 14:13:47 2020.

 ----------------------------------------
 #t pop=none jul-cc-pvdz guess=read ub97d
 ----------------------------------------
 ------------------------
 theory_abbreviation b97d
 ------------------------
 Symbolic Z-matrix:
 Charge =  0 Multiplicity = 6

 SCF Done:  E(UB97D) =  -3034.60432985     A.U. after   15 cycles

 ----------------------------------------------------------------
 #t pop=none jul-cc-pvdz guess=read ub97d empiricaldispersion=gd3
 ----------------------------------------------------------------
 -------------------------
 theory_abbreviation b97d3
 -------------------------
 Symbolic Z-matrix:
 Charge =  0 Multiplicity = 6

 SCF Done:  E(UB97D) =  -3034.60549466     A.U. after    1 cycles
 SCF Done:  E(UBHandHLYP) =  -3033.99506314     A.U. after   15 cycles
 SCF Done:  E(UBHandH) =  -3026.33129295     A.U. after   14 cycles
 SCF Done:  E(ULC-wPBE) =  -3033.47565196     A.U. after   19 cycles
 SCF Done:  E(UB-P86) =  -3034.65326125     A.U. after   16 cycles
 SCF Done:  E(UmPW1LYP) =  -3034.07195123     A.U. after   13 cycles
 SCF Done:  E(UmPW1PBE) =  -3033.90975881     A.U. after   14 cycles
 SCF Done:  E(UmPW3PBE) =  -3033.68279294     A.U. after   13 cycles
 SCF Done:  E(UM11) =  -3033.83308266     A.U. after   17 cycles
 SCF Done:  E(UN12SX) =  -3033.27409715     A.U. after   16 cycles
 SCF Done:  E(UMN12SX) =  -3033.67582590     A.U. after   16 cycles
 SCF Done:  E(UB1B95) =  -3034.40543704     A.U. after   14 cycles
 Normal termination of Gaussian 16 at Tue Feb 11 22:23:45 2020.
 SCF Done:  E(UB3PW91) =  -3033.99901502     A.U. after   13 cycles
 Normal termination of Gaussian 16 at Tue Feb 11 22:37:07 2020.
 SCF Done:  E(UM06L) =  -3034.22062793     A.U. after   18 cycles
 Normal termination of Gaussian 16 at Tue Feb 11 22:58:36 2020.
 Gaussian 16:  ES64L-G16RevA.03 25-Dec-2016

                         Standard orientation:
 ---------------------------------------------------------------------
 Center     Atomic      Atomic             Coordinates (Angstroms)
 Number     Number       Type             X           Y           Z
 ---------------------------------------------------------------------
      1          8           0        0.155363    0.400956   -0.889581
      2          6           0        0.972032    1.333361   -0.685952
      3          6           0        3.006168    0.207502    0.585755
      4          6           0        2.745284   -0.908337   -0.129315
      5          6           0        3.329489   -1.120540   -1.498757
      6         26           0       -1.502096   -0.175946   -0.001847
      7         17           0       -2.033476   -2.024141   -1.018086
      8          6           0        1.845675   -2.012653    0.342676
      9         17           0       -2.793775    1.547707   -0.381460
     10         17           0       -1.070325   -0.436983    2.134651
     11          1           0        3.706165    0.921776    0.151821
     12          1           0        2.385726   -2.968402    0.344156
     13          1           0        1.435589   -1.847803    1.338782
     14          1           0        1.005606   -2.136139   -0.354880
     15          1           0        3.929818   -2.039612   -1.510984
     16          1           0        2.536943   -1.262426   -2.246194
     17          1           0        3.973540   -0.294551   -1.813054
     18          6           0        2.693754    0.417016    2.045894
     19          1           0        3.467985   -0.057664    2.663704
     20          1           0        2.693039    1.478778    2.307968
     21          1           0        1.731580   -0.004720    2.345293
     22          6           0        0.778633    2.274184    0.462765
     23          1           0        1.666141    2.875781    0.660489
     24          1           0       -0.040103    2.945117    0.161962
     25          1           0        0.454417    1.754222    1.364370
     26          6           0        1.818663    1.775861   -1.842389
     27          1           0        1.227783    2.536538   -2.373774
     28          1           0        2.751888    2.240908   -1.523253
     29          1           0        2.006056    0.954870   -2.532552
 ---------------------------------------------------------------------

 SCF Done:  E(UB97D3) =  -3034.64049964     A.U. after   15 cycles
 Normal termination of Gaussian 16 at Tue Feb 11 23:10:32 2020.
