 Gaussian 16, Revision A.03,

 --------------------------------
 #t pop=none jul-cc-pvdz upbe1pbe
 --------------------------------
 ------------------------
 theory_abbreviation pbe0
 ------------------------
 Symbolic Z-matrix:
 Charge =  0 Multiplicity = 6

 SCF Done:  E(UPBE1PBE) =  -3033.11203704     A.U. after   21 cycles
 Normal termination of Gaussian 16 at Tue Feb 11 20:11:41 2020.

 ---------------------------------------------------------------------
 #t pop=none jul-cc-pvdz guess=read upbe1pbe empiricaldispersion=gd3bj
 ---------------------------------------------------------------------
 -----------------------------
 theory_abbreviation pbe0_d3bj
 -----------------------------
 Symbolic Z-matrix:
 Charge =  0 Multiplicity = 6

 SCF Done:  E(UPBE1PBE) =  -3033.14824871     A.U. after    1 cycles
 Normal termination of Gaussian 16 at Tue Feb 11 20:13:11 2020.

 -----------------------------------------
 #t pop=none jul-cc-pvdz guess=read ub3lyp
 -----------------------------------------
 -------------------------
 theory_abbreviation b3lyp
 -------------------------
 Symbolic Z-matrix:
 Charge =  0 Multiplicity = 6

 SCF Done:  E(UB3LYP) =  -3034.32481941     A.U. after   15 cycles
 Normal termination of Gaussian 16 at Tue Feb 11 20:32:28 2020.

 -------------------------------------------------------------------
 #t pop=none jul-cc-pvdz guess=read ub3lyp empiricaldispersion=gd3bj
 -------------------------------------------------------------------
 ------------------------------
 theory_abbreviation b3lyp_d3bj
 ------------------------------
 Symbolic Z-matrix:
 Charge =  0 Multiplicity = 6

 SCF Done:  E(UB3LYP) =  -3034.39236015     A.U. after    1 cycles
 Normal termination of Gaussian 16 at Tue Feb 11 20:33:57 2020.

 ----------------------------------------
 #t pop=none jul-cc-pvdz guess=read ub97d
 ----------------------------------------
 ------------------------
 theory_abbreviation b97d
 ------------------------
 Symbolic Z-matrix:
 Charge =  0 Multiplicity = 6

 SCF Done:  E(UB97D) =  -3034.57695598     A.U. after   16 cycles

 ----------------------------------------------------------------
 #t pop=none jul-cc-pvdz guess=read ub97d empiricaldispersion=gd3
 ----------------------------------------------------------------
 -------------------------
 theory_abbreviation b97d3
 -------------------------
 Symbolic Z-matrix:
 Charge =  0 Multiplicity = 6

 SCF Done:  E(UB97D) =  -3034.57733892     A.U. after    3 cycles
 SCF Done:  E(UBHandHLYP) =  -3033.96562174     A.U. after   17 cycles
 SCF Done:  E(UBHandH) =  -3026.31368718     A.U. after   16 cycles
 SCF Done:  E(ULC-wPBE) =  -3033.45085469     A.U. after   18 cycles
 SCF Done:  E(UB-P86) =  -3034.63016556     A.U. after   17 cycles
 SCF Done:  E(UmPW1LYP) =  -3034.04261249     A.U. after   15 cycles
 SCF Done:  E(UmPW1PBE) =  -3033.88649793     A.U. after   15 cycles
 SCF Done:  E(UmPW3PBE) =  -3033.65904698     A.U. after   15 cycles
 SCF Done:  E(UM11) =  -3033.80737183     A.U. after   19 cycles
 SCF Done:  E(UN12SX) =  -3033.25172291     A.U. after   17 cycles
 SCF Done:  E(UMN12SX) =  -3033.64730753     A.U. after   16 cycles
 SCF Done:  E(UB1B95) =  -3034.37905083     A.U. after   16 cycles
 Normal termination of Gaussian 16 at Wed Feb 12 07:01:39 2020.
 SCF Done:  E(UB3PW91) =  -3033.97445259     A.U. after   15 cycles
 Normal termination of Gaussian 16 at Wed Feb 12 07:16:45 2020.
 SCF Done:  E(UM06L) =  -3034.19105114     A.U. after   16 cycles
 Normal termination of Gaussian 16 at Wed Feb 12 07:35:05 2020.
 Gaussian 16:  ES64L-G16RevA.03 25-Dec-2016

                         Standard orientation:
 ---------------------------------------------------------------------
 Center     Atomic      Atomic             Coordinates (Angstroms)
 Number     Number       Type             X           Y           Z
 ---------------------------------------------------------------------
      1          8           0       -0.344249   -0.118896   -0.458055
      2          6           0       -1.219147   -1.098215   -0.301651
      3          6           0       -2.596158   -0.395207    0.714284
      4          6           0       -2.870763    0.744762   -0.057003
      5          6           0       -3.872129    0.715243   -1.158508
      6         26           0        1.475776    0.172678   -0.077929
      7         17           0        1.776082    2.210598   -0.855624
      8          6           0       -2.107971    1.985294    0.125895
      9         17           0        2.555329   -1.440867   -1.110793
     10         17           0        1.716508    0.084377    2.120755
     11          1           0       -3.338518   -1.187072    0.605182
     12          1           0       -2.516934    2.832243   -0.427891
     13          1           0       -1.944121    2.243490    1.175242
     14          1           0       -1.100800    1.746749   -0.278409
     15          1           0       -4.693153    1.391996   -0.878494
     16          1           0       -3.450087    1.122013   -2.086122
     17          1           0       -4.289430   -0.276007   -1.339749
     18          6           0       -2.075190   -0.204765    2.134405
     19          1           0       -2.740428    0.465191    2.690116
     20          1           0       -2.049616   -1.157555    2.665109
     21          1           0       -1.067770    0.217357    2.150639
     22          6           0       -0.747404   -2.262532    0.572413
     23          1           0       -1.556950   -2.961099    0.801034
     24          1           0        0.015658   -2.789690   -0.012409
     25          1           0       -0.275995   -1.919178    1.492476
     26          6           0       -1.795484   -1.588305   -1.627669
     27          1           0       -1.004543   -2.164237   -2.120009
     28          1           0       -2.663296   -2.241225   -1.494128
     29          1           0       -2.049344   -0.758956   -2.288716
 ---------------------------------------------------------------------

 SCF Done:  E(UB97D3) =  -3034.61159036     A.U. after   16 cycles
 Normal termination of Gaussian 16 at Wed Feb 12 07:48:17 2020.
