 Gaussian 16, Revision A.03,

 --------------------------------
 #t pop=none jul-cc-pvdz upbe1pbe
 --------------------------------
 ------------------------
 theory_abbreviation pbe0
 ------------------------
 Symbolic Z-matrix:
 Charge =  0 Multiplicity = 6

 SCF Done:  E(UPBE1PBE) =  -3033.10827095     A.U. after   20 cycles
 Normal termination of Gaussian 16 at Tue Feb 11 13:55:54 2020.

 ---------------------------------------------------------------------
 #t pop=none jul-cc-pvdz guess=read upbe1pbe empiricaldispersion=gd3bj
 ---------------------------------------------------------------------
 -----------------------------
 theory_abbreviation pbe0_d3bj
 -----------------------------
 Symbolic Z-matrix:
 Charge =  0 Multiplicity = 6

 SCF Done:  E(UPBE1PBE) =  -3033.14563524     A.U. after    1 cycles
 Normal termination of Gaussian 16 at Tue Feb 11 13:57:06 2020.

 -----------------------------------------
 #t pop=none jul-cc-pvdz guess=read ub3lyp
 -----------------------------------------
 -------------------------
 theory_abbreviation b3lyp
 -------------------------
 Symbolic Z-matrix:
 Charge =  0 Multiplicity = 6

 SCF Done:  E(UB3LYP) =  -3034.32024688     A.U. after   14 cycles
 Normal termination of Gaussian 16 at Tue Feb 11 14:11:45 2020.

 -------------------------------------------------------------------
 #t pop=none jul-cc-pvdz guess=read ub3lyp empiricaldispersion=gd3bj
 -------------------------------------------------------------------
 ------------------------------
 theory_abbreviation b3lyp_d3bj
 ------------------------------
 Symbolic Z-matrix:
 Charge =  0 Multiplicity = 6

 SCF Done:  E(UB3LYP) =  -3034.38986723     A.U. after    1 cycles
 Normal termination of Gaussian 16 at Tue Feb 11 14:12:55 2020.

 ----------------------------------------
 #t pop=none jul-cc-pvdz guess=read ub97d
 ----------------------------------------
 ------------------------
 theory_abbreviation b97d
 ------------------------
 Symbolic Z-matrix:
 Charge =  0 Multiplicity = 6

 SCF Done:  E(UB97D) =  -3034.57002264     A.U. after   15 cycles

 ----------------------------------------------------------------
 #t pop=none jul-cc-pvdz guess=read ub97d empiricaldispersion=gd3
 ----------------------------------------------------------------
 -------------------------
 theory_abbreviation b97d3
 -------------------------
 Symbolic Z-matrix:
 Charge =  0 Multiplicity = 6

 SCF Done:  E(UB97D) =  -3034.57110527     A.U. after    1 cycles
 SCF Done:  E(UBHandHLYP) =  -3033.96590753     A.U. after   15 cycles
 SCF Done:  E(UBHandH) =  -3026.31458640     A.U. after   14 cycles
 SCF Done:  E(ULC-wPBE) =  -3033.45444442     A.U. after   16 cycles
 SCF Done:  E(UB-P86) =  -3034.62613694     A.U. after   16 cycles
 SCF Done:  E(UmPW1LYP) =  -3034.03904372     A.U. after   14 cycles
 SCF Done:  E(UmPW1PBE) =  -3033.88252904     A.U. after   14 cycles
 SCF Done:  E(UmPW3PBE) =  -3033.65439910     A.U. after   12 cycles
 SCF Done:  E(UM11) =  -3033.80525496     A.U. after   16 cycles
 SCF Done:  E(UN12SX) =  -3033.24834240     A.U. after   16 cycles
 SCF Done:  E(UMN12SX) =  -3033.64537689     A.U. after   16 cycles
 SCF Done:  E(UB1B95) =  -3034.37415869     A.U. after   14 cycles
 Normal termination of Gaussian 16 at Tue Feb 11 22:17:15 2020.
 SCF Done:  E(UB3PW91) =  -3033.96959236     A.U. after   14 cycles
 Normal termination of Gaussian 16 at Tue Feb 11 22:31:30 2020.
 SCF Done:  E(UM06L) =  -3034.18630259     A.U. after   18 cycles
 Normal termination of Gaussian 16 at Tue Feb 11 22:51:18 2020.
 Gaussian 16:  ES64L-G16RevA.03 25-Dec-2016

                         Standard orientation:
 ---------------------------------------------------------------------
 Center     Atomic      Atomic             Coordinates (Angstroms)
 Number     Number       Type             X           Y           Z
 ---------------------------------------------------------------------
      1          8           0       -0.299030   -0.369090   -0.710085
      2          6           0       -1.435265   -1.209582   -0.487261
      3          6           0       -2.604744   -0.233970    0.003150
      4          6           0       -2.035355    1.139767   -0.229473
      5          6           0       -2.026575    1.740977   -1.572299
      6         26           0        1.346019    0.032314    0.003446
      7         17           0        1.630376    2.106592   -0.770372
      8          6           0       -1.581157    1.967450    0.891634
      9         17           0        2.835041   -1.460121   -0.591968
     10         17           0        1.057150    0.105816    2.232653
     11          1           0       -3.444105   -0.352039   -0.694464
     12          1           0       -2.457341    2.188517    1.521635
     13          1           0       -0.898824    1.396297    1.541005
     14          1           0       -1.099862    2.891365    0.571725
     15          1           0       -2.663087    2.640268   -1.541809
     16          1           0       -1.006336    2.098094   -1.776617
     17          1           0       -2.367742    1.072070   -2.360402
     18          6           0       -3.115840   -0.466197    1.428252
     19          1           0       -3.915407    0.240394    1.677009
     20          1           0       -3.533411   -1.472439    1.509366
     21          1           0       -2.324503   -0.371254    2.175216
     22          6           0       -1.088465   -2.299243    0.524787
     23          1           0       -1.920096   -2.994137    0.679550
     24          1           0       -0.241446   -2.864748    0.121792
     25          1           0       -0.780606   -1.882172    1.484823
     26          6           0       -1.807562   -1.846056   -1.828322
     27          1           0       -0.964900   -2.448118   -2.180234
     28          1           0       -2.687241   -2.492276   -1.728958
     29          1           0       -2.013206   -1.085009   -2.586678
 ---------------------------------------------------------------------

 SCF Done:  E(UB97D3) =  -3034.60630878     A.U. after   15 cycles
 Normal termination of Gaussian 16 at Tue Feb 11 23:04:38 2020.
