 Gaussian 16, Revision A.03,

 --------------------------------
 #t pop=none jul-cc-pvdz upbe1pbe
 --------------------------------
 ------------------------
 theory_abbreviation pbe0
 ------------------------
 Symbolic Z-matrix:
 Charge =  0 Multiplicity = 6

 SCF Done:  E(UPBE1PBE) =  -3033.10436781     A.U. after   20 cycles
 Normal termination of Gaussian 16 at Tue Feb 11 13:56:27 2020.

 ---------------------------------------------------------------------
 #t pop=none jul-cc-pvdz guess=read upbe1pbe empiricaldispersion=gd3bj
 ---------------------------------------------------------------------
 -----------------------------
 theory_abbreviation pbe0_d3bj
 -----------------------------
 Symbolic Z-matrix:
 Charge =  0 Multiplicity = 6

 SCF Done:  E(UPBE1PBE) =  -3033.14169479     A.U. after    1 cycles
 Normal termination of Gaussian 16 at Tue Feb 11 13:57:41 2020.

 -----------------------------------------
 #t pop=none jul-cc-pvdz guess=read ub3lyp
 -----------------------------------------
 -------------------------
 theory_abbreviation b3lyp
 -------------------------
 Symbolic Z-matrix:
 Charge =  0 Multiplicity = 6

 SCF Done:  E(UB3LYP) =  -3034.31532524     A.U. after   13 cycles
 Normal termination of Gaussian 16 at Tue Feb 11 14:11:59 2020.

 -------------------------------------------------------------------
 #t pop=none jul-cc-pvdz guess=read ub3lyp empiricaldispersion=gd3bj
 -------------------------------------------------------------------
 ------------------------------
 theory_abbreviation b3lyp_d3bj
 ------------------------------
 Symbolic Z-matrix:
 Charge =  0 Multiplicity = 6

 SCF Done:  E(UB3LYP) =  -3034.38493336     A.U. after    1 cycles
 Normal termination of Gaussian 16 at Tue Feb 11 14:13:13 2020.

 ----------------------------------------
 #t pop=none jul-cc-pvdz guess=read ub97d
 ----------------------------------------
 ------------------------
 theory_abbreviation b97d
 ------------------------
 Symbolic Z-matrix:
 Charge =  0 Multiplicity = 6

 SCF Done:  E(UB97D) =  -3034.56606285     A.U. after   15 cycles

 ----------------------------------------------------------------
 #t pop=none jul-cc-pvdz guess=read ub97d empiricaldispersion=gd3
 ----------------------------------------------------------------
 -------------------------
 theory_abbreviation b97d3
 -------------------------
 Symbolic Z-matrix:
 Charge =  0 Multiplicity = 6

 SCF Done:  E(UB97D) =  -3034.56657982     A.U. after    3 cycles
 SCF Done:  E(UBHandHLYP) =  -3033.96064495     A.U. after   15 cycles
 SCF Done:  E(UBHandH) =  -3026.31163290     A.U. after   13 cycles
 SCF Done:  E(ULC-wPBE) =  -3033.44947589     A.U. after   16 cycles
 SCF Done:  E(UB-P86) =  -3034.62172794     A.U. after   16 cycles
 SCF Done:  E(UmPW1LYP) =  -3034.03392847     A.U. after   13 cycles
 SCF Done:  E(UmPW1PBE) =  -3033.87859115     A.U. after   13 cycles
 SCF Done:  E(UmPW3PBE) =  -3033.65043633     A.U. after   13 cycles
 SCF Done:  E(UM11) =  -3033.80121551     A.U. after   16 cycles
 SCF Done:  E(UN12SX) =  -3033.24434704     A.U. after   15 cycles
 SCF Done:  E(UMN12SX) =  -3033.64109158     A.U. after   16 cycles
 SCF Done:  E(UB1B95) =  -3034.37050626     A.U. after   14 cycles
 Normal termination of Gaussian 16 at Tue Feb 11 22:34:03 2020.
 SCF Done:  E(UB3PW91) =  -3033.96553401     A.U. after   14 cycles
 Normal termination of Gaussian 16 at Tue Feb 11 22:47:58 2020.
 SCF Done:  E(UM06L) =  -3034.18263554     A.U. after   17 cycles
 Normal termination of Gaussian 16 at Tue Feb 11 23:08:11 2020.
 Gaussian 16:  ES64L-G16RevA.03 25-Dec-2016

                         Standard orientation:
 ---------------------------------------------------------------------
 Center     Atomic      Atomic             Coordinates (Angstroms)
 Number     Number       Type             X           Y           Z
 ---------------------------------------------------------------------
      1          8           0       -0.285375   -0.372844   -0.718244
      2          6           0       -1.361986   -1.229073   -0.461353
      3          6           0       -2.488720   -0.400300    0.315570
      4          6           0       -2.328778    1.018060   -0.091878
      5          6           0       -2.801113    1.466489   -1.418823
      6         26           0        1.351610    0.069556   -0.046262
      7         17           0        1.450392    2.241714   -0.684775
      8          6           0       -1.614538    1.985607    0.712975
      9         17           0        2.934577   -1.227280   -0.830404
     10         17           0        1.187148    0.025039    2.180117
     11          1           0       -3.445994   -0.745608   -0.094856
     12          1           0       -2.043906    2.990164    0.648605
     13          1           0       -1.395198    1.685303    1.734350
     14          1           0       -0.620596    2.092530    0.187560
     15          1           0       -3.065096    2.526939   -1.430795
     16          1           0       -1.920585    1.349833   -2.075105
     17          1           0       -3.607473    0.854308   -1.824093
     18          6           0       -2.501541   -0.594135    1.839833
     19          1           0       -3.230655    0.075958    2.307705
     20          1           0       -2.799197   -1.618259    2.074010
     21          1           0       -1.521579   -0.415028    2.286382
     22          6           0       -0.909780   -2.443472    0.358568
     23          1           0       -1.732583   -3.139684    0.551684
     24          1           0       -0.147428   -2.964748   -0.229390
     25          1           0       -0.455978   -2.147422    1.305281
     26          6           0       -1.911197   -1.719025   -1.811021
     27          1           0       -1.114741   -2.262113   -2.326680
     28          1           0       -2.765663   -2.391294   -1.674484
     29          1           0       -2.212270   -0.892540   -2.458581
 ---------------------------------------------------------------------

 SCF Done:  E(UB97D3) =  -3034.60163171     A.U. after   16 cycles
 Normal termination of Gaussian 16 at Tue Feb 11 23:20:47 2020.
