 Gaussian 16, Revision A.03,

 --------------------------------
 #t pop=none jul-cc-pvdz upbe1pbe
 --------------------------------
 ------------------------
 theory_abbreviation pbe0
 ------------------------
 Symbolic Z-matrix:
 Charge =  0 Multiplicity = 6

 SCF Done:  E(UPBE1PBE) =  -3033.11178066     A.U. after   21 cycles
 Normal termination of Gaussian 16 at Tue Feb 11 13:59:09 2020.

 ---------------------------------------------------------------------
 #t pop=none jul-cc-pvdz guess=read upbe1pbe empiricaldispersion=gd3bj
 ---------------------------------------------------------------------
 -----------------------------
 theory_abbreviation pbe0_d3bj
 -----------------------------
 Symbolic Z-matrix:
 Charge =  0 Multiplicity = 6

 SCF Done:  E(UPBE1PBE) =  -3033.14798190     A.U. after    1 cycles
 Normal termination of Gaussian 16 at Tue Feb 11 14:00:22 2020.

 -----------------------------------------
 #t pop=none jul-cc-pvdz guess=read ub3lyp
 -----------------------------------------
 -------------------------
 theory_abbreviation b3lyp
 -------------------------
 Symbolic Z-matrix:
 Charge =  0 Multiplicity = 6

 SCF Done:  E(UB3LYP) =  -3034.32382911     A.U. after   15 cycles
 Normal termination of Gaussian 16 at Tue Feb 11 14:16:45 2020.

 -------------------------------------------------------------------
 #t pop=none jul-cc-pvdz guess=read ub3lyp empiricaldispersion=gd3bj
 -------------------------------------------------------------------
 ------------------------------
 theory_abbreviation b3lyp_d3bj
 ------------------------------
 Symbolic Z-matrix:
 Charge =  0 Multiplicity = 6

 SCF Done:  E(UB3LYP) =  -3034.39138870     A.U. after    1 cycles
 Normal termination of Gaussian 16 at Tue Feb 11 14:17:58 2020.

 ----------------------------------------
 #t pop=none jul-cc-pvdz guess=read ub97d
 ----------------------------------------
 ------------------------
 theory_abbreviation b97d
 ------------------------
 Symbolic Z-matrix:
 Charge =  0 Multiplicity = 6

 SCF Done:  E(UB97D) =  -3034.57578708     A.U. after   16 cycles

 ----------------------------------------------------------------
 #t pop=none jul-cc-pvdz guess=read ub97d empiricaldispersion=gd3
 ----------------------------------------------------------------
 -------------------------
 theory_abbreviation b97d3
 -------------------------
 Symbolic Z-matrix:
 Charge =  0 Multiplicity = 6

 SCF Done:  E(UB97D) =  -3034.57610057     A.U. after    1 cycles
 SCF Done:  E(UBHandHLYP) =  -3033.96521308     A.U. after   17 cycles
 SCF Done:  E(UBHandH) =  -3026.31428465     A.U. after   16 cycles
 SCF Done:  E(ULC-wPBE) =  -3033.45153804     A.U. after   17 cycles
 SCF Done:  E(UB-P86) =  -3034.62977224     A.U. after   17 cycles
 SCF Done:  E(UmPW1LYP) =  -3034.04161118     A.U. after   15 cycles
 SCF Done:  E(UmPW1PBE) =  -3033.88622676     A.U. after   15 cycles
 SCF Done:  E(UmPW3PBE) =  -3033.65864884     A.U. after   15 cycles
 SCF Done:  E(UM11) =  -3033.80618276     A.U. after   18 cycles
 SCF Done:  E(UN12SX) =  -3033.25140579     A.U. after   17 cycles
 SCF Done:  E(UMN12SX) =  -3033.64651545     A.U. after   16 cycles
 SCF Done:  E(UB1B95) =  -3034.37816778     A.U. after   16 cycles
 Normal termination of Gaussian 16 at Tue Feb 11 23:27:10 2020.
 SCF Done:  E(UB3PW91) =  -3033.97399816     A.U. after   15 cycles
 Normal termination of Gaussian 16 at Tue Feb 11 23:42:12 2020.
 SCF Done:  E(UM06L) =  -3034.19008673     A.U. after   16 cycles
 Normal termination of Gaussian 16 at Tue Feb 11 23:59:23 2020.
 Gaussian 16:  ES64L-G16RevA.03 25-Dec-2016

                         Standard orientation:
 ---------------------------------------------------------------------
 Center     Atomic      Atomic             Coordinates (Angstroms)
 Number     Number       Type             X           Y           Z
 ---------------------------------------------------------------------
      1          8           0       -0.335337   -0.096471   -0.416157
      2          6           0       -1.242382   -1.069878   -0.255272
      3          6           0       -2.539048   -0.411872    0.718475
      4          6           0       -2.935064    0.719924   -0.045444
      5          6           0       -4.025177    0.629648   -1.050881
      6         26           0        1.488187    0.173492   -0.084242
      7         17           0        1.771935    2.228206   -0.832493
      8          6           0       -2.174692    1.960937    0.038805
      9         17           0        2.539805   -1.421445   -1.176787
     10         17           0        1.790819    0.044790    2.106730
     11          1           0       -3.283099   -1.210863    0.684030
     12          1           0       -2.586312    2.783595   -0.547118
     13          1           0       -1.945874    2.268909    1.062645
     14          1           0       -1.180661    1.654071   -0.377776
     15          1           0       -4.859499    1.247935   -0.684300
     16          1           0       -3.720976    1.072847   -2.007001
     17          1           0       -4.391003   -0.386397   -1.203485
     18          6           0       -2.003927   -0.143002    2.127916
     19          1           0       -2.679348    0.528141    2.668519
     20          1           0       -1.942835   -1.074541    2.692299
     21          1           0       -1.007284    0.302683    2.107176
     22          6           0       -0.736572   -2.258430    0.576693
     23          1           0       -1.538384   -2.966237    0.806769
     24          1           0        0.017722   -2.766808   -0.033665
     25          1           0       -0.251325   -1.932874    1.496539
     26          6           0       -1.791194   -1.546774   -1.603177
     27          1           0       -0.984898   -2.087997   -2.107717
     28          1           0       -2.644584   -2.223720   -1.491872
     29          1           0       -2.067004   -0.707482   -2.244833
 ---------------------------------------------------------------------

 SCF Done:  E(UB97D3) =  -3034.61059690     A.U. after   16 cycles
 Normal termination of Gaussian 16 at Wed Feb 12 00:12:45 2020.
