 Gaussian 16, Revision A.03,

 --------------------------------
 #t pop=none jul-cc-pvdz upbe1pbe
 --------------------------------
 ------------------------
 theory_abbreviation pbe0
 ------------------------
 Symbolic Z-matrix:
 Charge =  0 Multiplicity = 6

 SCF Done:  E(UPBE1PBE) =  -3033.11054728     A.U. after   20 cycles
 Normal termination of Gaussian 16 at Tue Feb 11 13:58:53 2020.

 ---------------------------------------------------------------------
 #t pop=none jul-cc-pvdz guess=read upbe1pbe empiricaldispersion=gd3bj
 ---------------------------------------------------------------------
 -----------------------------
 theory_abbreviation pbe0_d3bj
 -----------------------------
 Symbolic Z-matrix:
 Charge =  0 Multiplicity = 6

 SCF Done:  E(UPBE1PBE) =  -3033.14846672     A.U. after    1 cycles
 Normal termination of Gaussian 16 at Tue Feb 11 14:00:05 2020.

 -----------------------------------------
 #t pop=none jul-cc-pvdz guess=read ub3lyp
 -----------------------------------------
 -------------------------
 theory_abbreviation b3lyp
 -------------------------
 Symbolic Z-matrix:
 Charge =  0 Multiplicity = 6

 SCF Done:  E(UB3LYP) =  -3034.32503857     A.U. after   13 cycles
 Normal termination of Gaussian 16 at Tue Feb 11 14:14:10 2020.

 -------------------------------------------------------------------
 #t pop=none jul-cc-pvdz guess=read ub3lyp empiricaldispersion=gd3bj
 -------------------------------------------------------------------
 ------------------------------
 theory_abbreviation b3lyp_d3bj
 ------------------------------
 Symbolic Z-matrix:
 Charge =  0 Multiplicity = 6

 SCF Done:  E(UB3LYP) =  -3034.39570156     A.U. after    1 cycles
 Normal termination of Gaussian 16 at Tue Feb 11 14:15:22 2020.

 ----------------------------------------
 #t pop=none jul-cc-pvdz guess=read ub97d
 ----------------------------------------
 ------------------------
 theory_abbreviation b97d
 ------------------------
 Symbolic Z-matrix:
 Charge =  0 Multiplicity = 6

 SCF Done:  E(UB97D) =  -3034.57821190     A.U. after   15 cycles

 ----------------------------------------------------------------
 #t pop=none jul-cc-pvdz guess=read ub97d empiricaldispersion=gd3
 ----------------------------------------------------------------
 -------------------------
 theory_abbreviation b97d3
 -------------------------
 Symbolic Z-matrix:
 Charge =  0 Multiplicity = 6

 SCF Done:  E(UB97D) =  -3034.57990470     A.U. after    1 cycles
 SCF Done:  E(UBHandHLYP) =  -3033.96689020     A.U. after   18 cycles
 SCF Done:  E(UBHandH) =  -3026.31207810     A.U. after   14 cycles
 SCF Done:  E(ULC-wPBE) =  -3033.45117394     A.U. after   19 cycles
 SCF Done:  E(UB-P86) =  -3034.63118838     A.U. after   16 cycles
 SCF Done:  E(UmPW1LYP) =  -3034.04320374     A.U. after   13 cycles
 SCF Done:  E(UmPW1PBE) =  -3033.88501949     A.U. after   14 cycles
 SCF Done:  E(UmPW3PBE) =  -3033.65763068     A.U. after   13 cycles
 SCF Done:  E(UM11) =  -3033.80837525     A.U. after   17 cycles
 SCF Done:  E(UN12SX) =  -3033.24977936     A.U. after   17 cycles
 SCF Done:  E(UMN12SX) =  -3033.65002451     A.U. after   16 cycles
 SCF Done:  E(UB1B95) =  -3034.38046411     A.U. after   15 cycles
 Normal termination of Gaussian 16 at Tue Feb 11 22:45:58 2020.
 SCF Done:  E(UB3PW91) =  -3033.97319166     A.U. after   13 cycles
 Normal termination of Gaussian 16 at Tue Feb 11 23:01:50 2020.
 SCF Done:  E(UM06L) =  -3034.19351211     A.U. after   17 cycles
 Normal termination of Gaussian 16 at Tue Feb 11 23:21:10 2020.
 Gaussian 16:  ES64L-G16RevA.03 25-Dec-2016

                         Standard orientation:
 ---------------------------------------------------------------------
 Center     Atomic      Atomic             Coordinates (Angstroms)
 Number     Number       Type             X           Y           Z
 ---------------------------------------------------------------------
      1          8           0       -0.323608   -0.121190   -0.621468
      2          6           0       -1.211334   -1.048028   -0.549625
      3          6           0       -3.119327   -0.019792    0.054351
      4          6           0       -2.314842    1.052628   -0.197619
      5          6           0       -2.246622    1.683205   -1.552812
      6         26           0        1.455034    0.069110    0.051126
      7         17           0        2.073851    2.004087   -0.767326
      8          6           0       -1.565358    1.775589    0.877899
      9         17           0        2.458723   -1.715913   -0.746510
     10         17           0        1.360654    0.039101    2.253936
     11          1           0       -3.728768   -0.380769   -0.771207
     12          1           0       -2.228573    2.550914    1.288136
     13          1           0       -1.258192    1.134013    1.704459
     14          1           0       -0.681541    2.278229    0.477705
     15          1           0       -2.590447    2.722461   -1.464890
     16          1           0       -1.211010    1.720315   -1.906181
     17          1           0       -2.877727    1.181093   -2.289745
     18          6           0       -3.565509   -0.470271    1.420689
     19          1           0       -4.480814    0.069390    1.698435
     20          1           0       -3.809346   -1.536491    1.437360
     21          1           0       -2.825437   -0.276251    2.200084
     22          6           0       -1.130854   -2.018486    0.595626
     23          1           0       -2.005280   -2.665643    0.665187
     24          1           0       -0.253697   -2.646158    0.378225
     25          1           0       -0.937951   -1.517588    1.544495
     26          6           0       -1.708372   -1.589108   -1.865709
     27          1           0       -0.887481   -2.210916   -2.250612
     28          1           0       -2.596491   -2.214155   -1.756680
     29          1           0       -1.880816   -0.793869   -2.590821
 ---------------------------------------------------------------------

 SCF Done:  E(UB97D3) =  -3034.61576070     A.U. after   16 cycles
 Normal termination of Gaussian 16 at Tue Feb 11 23:34:18 2020.
