 Gaussian 16, Revision A.03,

 --------------------------------
 #t pop=none jul-cc-pvdz upbe1pbe
 --------------------------------
 ------------------------
 theory_abbreviation pbe0
 ------------------------
 Symbolic Z-matrix:
 Charge =  0 Multiplicity = 6

 SCF Done:  E(UPBE1PBE) =  -3033.10529998     A.U. after   21 cycles
 Normal termination of Gaussian 16 at Tue Feb 11 20:07:03 2020.

 ---------------------------------------------------------------------
 #t pop=none jul-cc-pvdz guess=read upbe1pbe empiricaldispersion=gd3bj
 ---------------------------------------------------------------------
 -----------------------------
 theory_abbreviation pbe0_d3bj
 -----------------------------
 Symbolic Z-matrix:
 Charge =  0 Multiplicity = 6

 SCF Done:  E(UPBE1PBE) =  -3033.14239787     A.U. after    1 cycles
 Normal termination of Gaussian 16 at Tue Feb 11 20:08:16 2020.

 -----------------------------------------
 #t pop=none jul-cc-pvdz guess=read ub3lyp
 -----------------------------------------
 -------------------------
 theory_abbreviation b3lyp
 -------------------------
 Symbolic Z-matrix:
 Charge =  0 Multiplicity = 6

 SCF Done:  E(UB3LYP) =  -3034.31785042     A.U. after   14 cycles
 Normal termination of Gaussian 16 at Tue Feb 11 20:23:28 2020.

 -------------------------------------------------------------------
 #t pop=none jul-cc-pvdz guess=read ub3lyp empiricaldispersion=gd3bj
 -------------------------------------------------------------------
 ------------------------------
 theory_abbreviation b3lyp_d3bj
 ------------------------------
 Symbolic Z-matrix:
 Charge =  0 Multiplicity = 6

 SCF Done:  E(UB3LYP) =  -3034.38691991     A.U. after    1 cycles
 Normal termination of Gaussian 16 at Tue Feb 11 20:24:41 2020.

 ----------------------------------------
 #t pop=none jul-cc-pvdz guess=read ub97d
 ----------------------------------------
 ------------------------
 theory_abbreviation b97d
 ------------------------
 Symbolic Z-matrix:
 Charge =  0 Multiplicity = 6

 SCF Done:  E(UB97D) =  -3034.56750159     A.U. after   15 cycles

 ----------------------------------------------------------------
 #t pop=none jul-cc-pvdz guess=read ub97d empiricaldispersion=gd3
 ----------------------------------------------------------------
 -------------------------
 theory_abbreviation b97d3
 -------------------------
 Symbolic Z-matrix:
 Charge =  0 Multiplicity = 6

 SCF Done:  E(UB97D) =  -3034.56870357     A.U. after    3 cycles
 SCF Done:  E(UBHandHLYP) =  -3033.96289407     A.U. after   17 cycles
 SCF Done:  E(UBHandH) =  -3026.31034003     A.U. after   13 cycles
 SCF Done:  E(ULC-wPBE) =  -3033.44936745     A.U. after   17 cycles
 SCF Done:  E(UB-P86) =  -3034.62257043     A.U. after   16 cycles
 SCF Done:  E(UmPW1LYP) =  -3034.03658065     A.U. after   13 cycles
 SCF Done:  E(UmPW1PBE) =  -3033.87966759     A.U. after   13 cycles
 SCF Done:  E(UmPW3PBE) =  -3033.65161068     A.U. after   13 cycles
 SCF Done:  E(UM11) =  -3033.80242759     A.U. after   16 cycles
 SCF Done:  E(UN12SX) =  -3033.24550641     A.U. after   15 cycles
 SCF Done:  E(UMN12SX) =  -3033.64281449     A.U. after   16 cycles
 SCF Done:  E(UB1B95) =  -3034.37144486     A.U. after   14 cycles
 Normal termination of Gaussian 16 at Wed Feb 12 04:35:31 2020.
 SCF Done:  E(UB3PW91) =  -3033.96690687     A.U. after   13 cycles
 Normal termination of Gaussian 16 at Wed Feb 12 04:48:33 2020.
 SCF Done:  E(UM06L) =  -3034.18291042     A.U. after   17 cycles
 Normal termination of Gaussian 16 at Wed Feb 12 05:06:58 2020.
 Gaussian 16:  ES64L-G16RevA.03 25-Dec-2016

                         Standard orientation:
 ---------------------------------------------------------------------
 Center     Atomic      Atomic             Coordinates (Angstroms)
 Number     Number       Type             X           Y           Z
 ---------------------------------------------------------------------
      1          8           0       -0.300449   -0.322741   -0.657134
      2          6           0       -1.385621   -1.181550   -0.483992
      3          6           0       -2.750378   -0.163201   -0.080375
      4          6           0       -2.095316    1.133203   -0.231464
      5          6           0       -1.971888    1.778645   -1.549338
      6         26           0        1.372297    0.033125    0.018110
      7         17           0        1.690706    2.101656   -0.756595
      8          6           0       -1.589936    1.868537    0.938303
      9         17           0        2.786202   -1.507368   -0.648049
     10         17           0        1.164701    0.079864    2.249421
     11          1           0       -3.457643   -0.321394   -0.898061
     12          1           0       -2.464531    2.207179    1.517190
     13          1           0       -1.024142    1.208012    1.608549
     14          1           0       -0.969725    2.722173    0.664039
     15          1           0       -2.546504    2.718472   -1.510874
     16          1           0       -0.922323    2.067047   -1.701924
     17          1           0       -2.332890    1.164726   -2.373973
     18          6           0       -3.394544   -0.459085    1.269712
     19          1           0       -4.217275    0.238023    1.467574
     20          1           0       -3.813754   -1.468002    1.268683
     21          1           0       -2.685240   -0.392672    2.097357
     22          6           0       -1.141242   -2.192943    0.623876
     23          1           0       -1.986094   -2.873991    0.759043
     24          1           0       -0.267557   -2.784480    0.323984
     25          1           0       -0.896331   -1.711097    1.571544
     26          6           0       -1.715802   -1.855647   -1.809941
     27          1           0       -0.853982   -2.465495   -2.101983
     28          1           0       -2.597200   -2.500594   -1.728807
     29          1           0       -1.879935   -1.115563   -2.598019
 ---------------------------------------------------------------------

 SCF Done:  E(UB97D3) =  -3034.60349521     A.U. after   14 cycles
 Normal termination of Gaussian 16 at Wed Feb 12 05:18:06 2020.
