 Gaussian 16, Revision A.03,

 --------------------------------
 #t pop=none jul-cc-pvdz upbe1pbe
 --------------------------------
 ------------------------
 theory_abbreviation pbe0
 ------------------------
 Symbolic Z-matrix:
 Charge =  0 Multiplicity = 6

 SCF Done:  E(UPBE1PBE) =  -3033.11189337     A.U. after   21 cycles
 Normal termination of Gaussian 16 at Tue Feb 11 20:06:55 2020.

 ---------------------------------------------------------------------
 #t pop=none jul-cc-pvdz guess=read upbe1pbe empiricaldispersion=gd3bj
 ---------------------------------------------------------------------
 -----------------------------
 theory_abbreviation pbe0_d3bj
 -----------------------------
 Symbolic Z-matrix:
 Charge =  0 Multiplicity = 6

 SCF Done:  E(UPBE1PBE) =  -3033.14932410     A.U. after    1 cycles
 Normal termination of Gaussian 16 at Tue Feb 11 20:08:07 2020.

 -----------------------------------------
 #t pop=none jul-cc-pvdz guess=read ub3lyp
 -----------------------------------------
 -------------------------
 theory_abbreviation b3lyp
 -------------------------
 Symbolic Z-matrix:
 Charge =  0 Multiplicity = 6

 SCF Done:  E(UB3LYP) =  -3034.32579223     A.U. after   13 cycles
 Normal termination of Gaussian 16 at Tue Feb 11 20:22:06 2020.

 -------------------------------------------------------------------
 #t pop=none jul-cc-pvdz guess=read ub3lyp empiricaldispersion=gd3bj
 -------------------------------------------------------------------
 ------------------------------
 theory_abbreviation b3lyp_d3bj
 ------------------------------
 Symbolic Z-matrix:
 Charge =  0 Multiplicity = 6

 SCF Done:  E(UB3LYP) =  -3034.39558448     A.U. after    1 cycles
 Normal termination of Gaussian 16 at Tue Feb 11 20:23:18 2020.

 ----------------------------------------
 #t pop=none jul-cc-pvdz guess=read ub97d
 ----------------------------------------
 ------------------------
 theory_abbreviation b97d
 ------------------------
 Symbolic Z-matrix:
 Charge =  0 Multiplicity = 6

 SCF Done:  E(UB97D) =  -3034.57967810     A.U. after   16 cycles

 ----------------------------------------------------------------
 #t pop=none jul-cc-pvdz guess=read ub97d empiricaldispersion=gd3
 ----------------------------------------------------------------
 -------------------------
 theory_abbreviation b97d3
 -------------------------
 Symbolic Z-matrix:
 Charge =  0 Multiplicity = 6

 SCF Done:  E(UB97D) =  -3034.58010505     A.U. after    1 cycles
 SCF Done:  E(UBHandHLYP) =  -3033.96712969     A.U. after   17 cycles
 SCF Done:  E(UBHandH) =  -3026.31347761     A.U. after   16 cycles
 SCF Done:  E(ULC-wPBE) =  -3033.45165676     A.U. after   19 cycles
 SCF Done:  E(UB-P86) =  -3034.63183273     A.U. after   17 cycles
 SCF Done:  E(UmPW1LYP) =  -3034.04391984     A.U. after   16 cycles
 SCF Done:  E(UmPW1PBE) =  -3033.88624328     A.U. after   16 cycles
 SCF Done:  E(UmPW3PBE) =  -3033.65885392     A.U. after   13 cycles
 SCF Done:  E(UM11) =  -3033.81014629     A.U. after   19 cycles
 SCF Done:  E(UN12SX) =  -3033.25162109     A.U. after   17 cycles
 SCF Done:  E(UMN12SX) =  -3033.65045099     A.U. after   17 cycles
 SCF Done:  E(UB1B95) =  -3034.38070467     A.U. after   16 cycles
 Normal termination of Gaussian 16 at Wed Feb 12 05:23:28 2020.
 SCF Done:  E(UB3PW91) =  -3033.97430045     A.U. after   16 cycles
 Normal termination of Gaussian 16 at Wed Feb 12 05:40:23 2020.
 SCF Done:  E(UM06L) =  -3034.19349037     A.U. after   18 cycles
 Normal termination of Gaussian 16 at Wed Feb 12 06:00:43 2020.
 Gaussian 16:  ES64L-G16RevA.03 25-Dec-2016

                         Standard orientation:
 ---------------------------------------------------------------------
 Center     Atomic      Atomic             Coordinates (Angstroms)
 Number     Number       Type             X           Y           Z
 ---------------------------------------------------------------------
      1          8           0       -0.312182   -0.181358   -0.737804
      2          6           0       -1.222784   -1.099679   -0.590153
      3          6           0       -2.797584   -0.272492    0.428801
      4          6           0       -2.495998    0.967071   -0.093913
      5          6           0       -2.995183    1.410570   -1.428810
      6         26           0        1.416917    0.119145   -0.012932
      7         17           0        1.978519    2.090875   -0.795494
      8          6           0       -1.615119    1.943198    0.602452
      9         17           0        2.630593   -1.571812   -0.709532
     10         17           0        1.190577    0.120689    2.195288
     11          1           0       -3.582966   -0.824799   -0.084174
     12          1           0       -2.237549    2.787714    0.933696
     13          1           0       -1.101880    1.535308    1.471135
     14          1           0       -0.871484    2.352134   -0.091077
     15          1           0       -3.438798    2.409487   -1.333182
     16          1           0       -2.146197    1.517406   -2.117420
     17          1           0       -3.738497    0.737080   -1.858766
     18          6           0       -2.676862   -0.570546    1.910718
     19          1           0       -3.442703   -0.007102    2.457504
     20          1           0       -2.847826   -1.629816    2.112541
     21          1           0       -1.703583   -0.299307    2.324852
     22          6           0       -0.900943   -2.247385    0.346209
     23          1           0       -1.749544   -2.918406    0.492886
     24          1           0       -0.096779   -2.806160   -0.151657
     25          1           0       -0.513256   -1.906203    1.305232
     26          6           0       -1.874602   -1.541149   -1.889181
     27          1           0       -1.117817   -2.141846   -2.409246
     28          1           0       -2.756401   -2.165332   -1.728061
     29          1           0       -2.117364   -0.700367   -2.536791
 ---------------------------------------------------------------------

 SCF Done:  E(UB97D3) =  -3034.61505873     A.U. after   15 cycles
 Normal termination of Gaussian 16 at Wed Feb 12 06:13:01 2020.
