 Gaussian 16, Revision A.03,

 --------------------------------
 #t pop=none jul-cc-pvdz upbe1pbe
 --------------------------------
 ------------------------
 theory_abbreviation pbe0
 ------------------------
 Symbolic Z-matrix:
 Charge =  0 Multiplicity = 6

 SCF Done:  E(UPBE1PBE) =  -3033.12773228     A.U. after   19 cycles
 Normal termination of Gaussian 16 at Tue Feb 11 14:46:07 2020.

 ---------------------------------------------------------------------
 #t pop=none jul-cc-pvdz guess=read upbe1pbe empiricaldispersion=gd3bj
 ---------------------------------------------------------------------
 -----------------------------
 theory_abbreviation pbe0_d3bj
 -----------------------------
 Symbolic Z-matrix:
 Charge =  0 Multiplicity = 6

 SCF Done:  E(UPBE1PBE) =  -3033.16490161     A.U. after    1 cycles
 Normal termination of Gaussian 16 at Tue Feb 11 14:47:18 2020.

 -----------------------------------------
 #t pop=none jul-cc-pvdz guess=read ub3lyp
 -----------------------------------------
 -------------------------
 theory_abbreviation b3lyp
 -------------------------
 Symbolic Z-matrix:
 Charge =  0 Multiplicity = 6

 SCF Done:  E(UB3LYP) =  -3034.34467506     A.U. after   13 cycles
 Normal termination of Gaussian 16 at Tue Feb 11 15:01:05 2020.

 -------------------------------------------------------------------
 #t pop=none jul-cc-pvdz guess=read ub3lyp empiricaldispersion=gd3bj
 -------------------------------------------------------------------
 ------------------------------
 theory_abbreviation b3lyp_d3bj
 ------------------------------
 Symbolic Z-matrix:
 Charge =  0 Multiplicity = 6

 SCF Done:  E(UB3LYP) =  -3034.41372371     A.U. after    1 cycles
 Normal termination of Gaussian 16 at Tue Feb 11 15:02:15 2020.

 ----------------------------------------
 #t pop=none jul-cc-pvdz guess=read ub97d
 ----------------------------------------
 ------------------------
 theory_abbreviation b97d
 ------------------------
 Symbolic Z-matrix:
 Charge =  0 Multiplicity = 6

 SCF Done:  E(UB97D) =  -3034.59676960     A.U. after   15 cycles

 ----------------------------------------------------------------
 #t pop=none jul-cc-pvdz guess=read ub97d empiricaldispersion=gd3
 ----------------------------------------------------------------
 -------------------------
 theory_abbreviation b97d3
 -------------------------
 Symbolic Z-matrix:
 Charge =  0 Multiplicity = 6

 SCF Done:  E(UB97D) =  -3034.59846616     A.U. after    1 cycles
 SCF Done:  E(UBHandHLYP) =  -3033.98643186     A.U. after   15 cycles
 SCF Done:  E(UBHandH) =  -3026.32646773     A.U. after   14 cycles
 SCF Done:  E(ULC-wPBE) =  -3033.46894079     A.U. after   19 cycles
 SCF Done:  E(UB-P86) =  -3034.64721633     A.U. after   17 cycles
 SCF Done:  E(UmPW1LYP) =  -3034.06294936     A.U. after   13 cycles
 SCF Done:  E(UmPW1PBE) =  -3033.90218589     A.U. after   14 cycles
 SCF Done:  E(UmPW3PBE) =  -3033.67506348     A.U. after   13 cycles
 SCF Done:  E(UM11) =  -3033.82616765     A.U. after   16 cycles
 SCF Done:  E(UN12SX) =  -3033.26654084     A.U. after   16 cycles
 SCF Done:  E(UMN12SX) =  -3033.66845154     A.U. after   16 cycles
 SCF Done:  E(UB1B95) =  -3034.39821278     A.U. after   14 cycles
 Normal termination of Gaussian 16 at Tue Feb 11 23:09:04 2020.
 SCF Done:  E(UB3PW91) =  -3033.99102031     A.U. after   13 cycles
 Normal termination of Gaussian 16 at Tue Feb 11 23:22:12 2020.
 SCF Done:  E(UM06L) =  -3034.21358728     A.U. after   17 cycles
 Normal termination of Gaussian 16 at Tue Feb 11 23:40:21 2020.
 Gaussian 16:  ES64L-G16RevA.03 25-Dec-2016

                         Standard orientation:
 ---------------------------------------------------------------------
 Center     Atomic      Atomic             Coordinates (Angstroms)
 Number     Number       Type             X           Y           Z
 ---------------------------------------------------------------------
      1          8           0       -0.273642   -0.246896   -0.777028
      2          6           0       -1.085059   -1.201413   -0.638274
      3          6           0       -3.149640   -0.034593    0.299026
      4          6           0       -2.471074    1.019676   -0.205115
      5          6           0       -2.638417    1.456280   -1.632366
      6         26           0        1.466116    0.114587    0.043562
      7         17           0        2.105968    1.986640   -0.868061
      8          6           0       -1.584334    1.910695    0.612551
      9         17           0        2.574425   -1.677681   -0.560013
     10         17           0        1.215942    0.215381    2.223965
     11          1           0       -3.839615   -0.549040   -0.368904
     12          1           0       -2.128111    2.836717    0.846165
     13          1           0       -1.259558    1.468085    1.554001
     14          1           0       -0.697647    2.209210    0.043392
     15          1           0       -2.968747    2.502609   -1.659227
     16          1           0       -1.677204    1.420702   -2.160303
     17          1           0       -3.375659    0.857235   -2.173921
     18          6           0       -3.264045   -0.408580    1.752361
     19          1           0       -4.147771    0.073281    2.192422
     20          1           0       -3.397705   -1.486973    1.884496
     21          1           0       -2.398453   -0.098891    2.343313
     22          6           0       -0.976670   -2.123936    0.536080
     23          1           0       -1.865911   -2.742018    0.660911
     24          1           0       -0.122883   -2.783461    0.317987
     25          1           0       -0.742565   -1.586930    1.455431
     26          6           0       -1.791360   -1.700175   -1.864663
     27          1           0       -1.099698   -2.419443   -2.328194
     28          1           0       -2.717211   -2.226584   -1.629527
     29          1           0       -1.965262   -0.900074   -2.582189
 ---------------------------------------------------------------------

 SCF Done:  E(UB97D3) =  -3034.63344180     A.U. after   17 cycles
 Normal termination of Gaussian 16 at Tue Feb 11 23:53:30 2020.
