 Gaussian 16, Revision A.03,

 --------------------------------
 #t pop=none jul-cc-pvdz upbe1pbe
 --------------------------------
 ------------------------
 theory_abbreviation pbe0
 ------------------------
 Symbolic Z-matrix:
 Charge =  0 Multiplicity = 6

 SCF Done:  E(UPBE1PBE) =  -3033.10394265     A.U. after   21 cycles
 Normal termination of Gaussian 16 at Tue Feb 11 13:59:31 2020.

 ---------------------------------------------------------------------
 #t pop=none jul-cc-pvdz guess=read upbe1pbe empiricaldispersion=gd3bj
 ---------------------------------------------------------------------
 -----------------------------
 theory_abbreviation pbe0_d3bj
 -----------------------------
 Symbolic Z-matrix:
 Charge =  0 Multiplicity = 6

 SCF Done:  E(UPBE1PBE) =  -3033.14115298     A.U. after    1 cycles
 Normal termination of Gaussian 16 at Tue Feb 11 14:00:42 2020.

 -----------------------------------------
 #t pop=none jul-cc-pvdz guess=read ub3lyp
 -----------------------------------------
 -------------------------
 theory_abbreviation b3lyp
 -------------------------
 Symbolic Z-matrix:
 Charge =  0 Multiplicity = 6

 SCF Done:  E(UB3LYP) =  -3034.31665579     A.U. after   15 cycles
 Normal termination of Gaussian 16 at Tue Feb 11 14:16:38 2020.

 -------------------------------------------------------------------
 #t pop=none jul-cc-pvdz guess=read ub3lyp empiricaldispersion=gd3bj
 -------------------------------------------------------------------
 ------------------------------
 theory_abbreviation b3lyp_d3bj
 ------------------------------
 Symbolic Z-matrix:
 Charge =  0 Multiplicity = 6

 SCF Done:  E(UB3LYP) =  -3034.38598401     A.U. after    1 cycles
 Normal termination of Gaussian 16 at Tue Feb 11 14:17:49 2020.

 ----------------------------------------
 #t pop=none jul-cc-pvdz guess=read ub97d
 ----------------------------------------
 ------------------------
 theory_abbreviation b97d
 ------------------------
 Symbolic Z-matrix:
 Charge =  0 Multiplicity = 6

 SCF Done:  E(UB97D) =  -3034.56907546     A.U. after   16 cycles

 ----------------------------------------------------------------
 #t pop=none jul-cc-pvdz guess=read ub97d empiricaldispersion=gd3
 ----------------------------------------------------------------
 -------------------------
 theory_abbreviation b97d3
 -------------------------
 Symbolic Z-matrix:
 Charge =  0 Multiplicity = 6

 SCF Done:  E(UB97D) =  -3034.56926874     A.U. after    1 cycles
 SCF Done:  E(UBHandHLYP) =  -3033.95983458     A.U. after   17 cycles
 SCF Done:  E(UBHandH) =  -3026.30761508     A.U. after   16 cycles
 SCF Done:  E(ULC-wPBE) =  -3033.44473435     A.U. after   18 cycles
 SCF Done:  E(UB-P86) =  -3034.62202314     A.U. after   16 cycles
 SCF Done:  E(UmPW1LYP) =  -3034.03502558     A.U. after   13 cycles
 SCF Done:  E(UmPW1PBE) =  -3033.87833474     A.U. after   13 cycles
 SCF Done:  E(UmPW3PBE) =  -3033.65054473     A.U. after   14 cycles
 SCF Done:  E(UM11) =  -3033.80176537     A.U. after   19 cycles
 SCF Done:  E(UN12SX) =  -3033.24394495     A.U. after   17 cycles
 SCF Done:  E(UMN12SX) =  -3033.64208478     A.U. after   16 cycles
 SCF Done:  E(UB1B95) =  -3034.37189464     A.U. after   16 cycles
 Normal termination of Gaussian 16 at Tue Feb 11 22:59:51 2020.
 SCF Done:  E(UB3PW91) =  -3033.96586870     A.U. after   14 cycles
 Normal termination of Gaussian 16 at Tue Feb 11 23:14:26 2020.
 SCF Done:  E(UM06L) =  -3034.18388534     A.U. after   18 cycles
 Normal termination of Gaussian 16 at Tue Feb 11 23:34:21 2020.
 Gaussian 16:  ES64L-G16RevA.03 25-Dec-2016

                         Standard orientation:
 ---------------------------------------------------------------------
 Center     Atomic      Atomic             Coordinates (Angstroms)
 Number     Number       Type             X           Y           Z
 ---------------------------------------------------------------------
      1          8           0       -0.336813   -0.127726   -0.640122
      2          6           0       -1.284118   -1.057200   -0.550733
      3          6           0       -2.877533   -0.194094    0.169391
      4          6           0       -2.319644    1.040698   -0.165054
      5          6           0       -2.475056    1.637982   -1.517766
      6         26           0        1.403744    0.079648    0.021556
      7         17           0        1.950398    2.084628   -0.714480
      8          6           0       -1.559028    1.857637    0.812906
      9         17           0        2.569910   -1.610370   -0.767422
     10         17           0        1.242435    0.015612    2.240796
     11          1           0       -3.621874   -0.566401   -0.531855
     12          1           0       -2.289681    2.526984    1.296291
     13          1           0       -1.084720    1.268164    1.597267
     14          1           0       -0.806871    2.479081    0.320650
     15          1           0       -2.827024    2.671623   -1.404776
     16          1           0       -1.485572    1.696853   -1.988348
     17          1           0       -3.169408    1.093833   -2.159162
     18          6           0       -3.143630   -0.571839    1.613794
     19          1           0       -3.994229    0.006686    1.994395
     20          1           0       -3.404553   -1.629019    1.697755
     21          1           0       -2.291028   -0.381134    2.268577
     22          6           0       -1.016288   -2.173762    0.437810
     23          1           0       -1.850323   -2.874377    0.515162
     24          1           0       -0.145779   -2.713080    0.040047
     25          1           0       -0.740603   -1.796512    1.422433
     26          6           0       -1.751980   -1.554501   -1.908662
     27          1           0       -0.902376   -2.097802   -2.340345
     28          1           0       -2.602503   -2.236790   -1.831792
     29          1           0       -1.989252   -0.734480   -2.587104
 ---------------------------------------------------------------------

 SCF Done:  E(UB97D3) =  -3034.60398227     A.U. after   16 cycles
 Normal termination of Gaussian 16 at Tue Feb 11 23:47:12 2020.
