 Gaussian 16, Revision A.03,

 --------------------------------
 #t pop=none jul-cc-pvdz upbe1pbe
 --------------------------------
 ------------------------
 theory_abbreviation pbe0
 ------------------------
 Symbolic Z-matrix:
 Charge =  0 Multiplicity = 6

 SCF Done:  E(UPBE1PBE) =  -3033.12353179     A.U. after   21 cycles
 Normal termination of Gaussian 16 at Tue Feb 11 13:59:48 2020.

 ---------------------------------------------------------------------
 #t pop=none jul-cc-pvdz guess=read upbe1pbe empiricaldispersion=gd3bj
 ---------------------------------------------------------------------
 -----------------------------
 theory_abbreviation pbe0_d3bj
 -----------------------------
 Symbolic Z-matrix:
 Charge =  0 Multiplicity = 6

 SCF Done:  E(UPBE1PBE) =  -3033.16089385     A.U. after    1 cycles
 Normal termination of Gaussian 16 at Tue Feb 11 14:00:58 2020.

 -----------------------------------------
 #t pop=none jul-cc-pvdz guess=read ub3lyp
 -----------------------------------------
 -------------------------
 theory_abbreviation b3lyp
 -------------------------
 Symbolic Z-matrix:
 Charge =  0 Multiplicity = 6

 SCF Done:  E(UB3LYP) =  -3034.33969949     A.U. after   13 cycles
 Normal termination of Gaussian 16 at Tue Feb 11 14:14:45 2020.

 -------------------------------------------------------------------
 #t pop=none jul-cc-pvdz guess=read ub3lyp empiricaldispersion=gd3bj
 -------------------------------------------------------------------
 ------------------------------
 theory_abbreviation b3lyp_d3bj
 ------------------------------
 Symbolic Z-matrix:
 Charge =  0 Multiplicity = 6

 SCF Done:  E(UB3LYP) =  -3034.40922729     A.U. after    1 cycles
 Normal termination of Gaussian 16 at Tue Feb 11 14:15:55 2020.

 ----------------------------------------
 #t pop=none jul-cc-pvdz guess=read ub97d
 ----------------------------------------
 ------------------------
 theory_abbreviation b97d
 ------------------------
 Symbolic Z-matrix:
 Charge =  0 Multiplicity = 6

 SCF Done:  E(UB97D) =  -3034.59332351     A.U. after   15 cycles

 ----------------------------------------------------------------
 #t pop=none jul-cc-pvdz guess=read ub97d empiricaldispersion=gd3
 ----------------------------------------------------------------
 -------------------------
 theory_abbreviation b97d3
 -------------------------
 Symbolic Z-matrix:
 Charge =  0 Multiplicity = 6

 SCF Done:  E(UB97D) =  -3034.59440488     A.U. after    1 cycles
 SCF Done:  E(UBHandHLYP) =  -3033.98031551     A.U. after   18 cycles
 SCF Done:  E(UBHandH) =  -3026.32241668     A.U. after   16 cycles
 SCF Done:  E(ULC-wPBE) =  -3033.46327496     A.U. after   19 cycles
 SCF Done:  E(UB-P86) =  -3034.64409493     A.U. after   16 cycles
 SCF Done:  E(UmPW1LYP) =  -3034.05779282     A.U. after   14 cycles
 SCF Done:  E(UmPW1PBE) =  -3033.89794941     A.U. after   14 cycles
 SCF Done:  E(UmPW3PBE) =  -3033.67089571     A.U. after   13 cycles
 SCF Done:  E(UM11) =  -3033.82103639     A.U. after   19 cycles
 SCF Done:  E(UN12SX) =  -3033.26254403     A.U. after   17 cycles
 SCF Done:  E(UMN12SX) =  -3033.66292457     A.U. after   16 cycles
 SCF Done:  E(UB1B95) =  -3034.39311895     A.U. after   14 cycles
 Normal termination of Gaussian 16 at Tue Feb 11 22:56:02 2020.
 SCF Done:  E(UB3PW91) =  -3033.98667600     A.U. after   15 cycles
 Normal termination of Gaussian 16 at Tue Feb 11 23:11:39 2020.
 SCF Done:  E(UM06L) =  -3034.20769309     A.U. after   18 cycles
 Normal termination of Gaussian 16 at Tue Feb 11 23:31:31 2020.
 Gaussian 16:  ES64L-G16RevA.03 25-Dec-2016

                         Standard orientation:
 ---------------------------------------------------------------------
 Center     Atomic      Atomic             Coordinates (Angstroms)
 Number     Number       Type             X           Y           Z
 ---------------------------------------------------------------------
      1          8           0       -0.257895   -0.264228   -0.804767
      2          6           0       -1.121107   -1.184885   -0.632575
      3          6           0       -2.861007   -0.253563    0.548692
      4          6           0       -2.630305    0.927538   -0.087892
      5          6           0       -3.245525    1.243911   -1.418174
      6         26           0        1.458627    0.146236   -0.013174
      7         17           0        2.024555    2.047074   -0.926400
      8          6           0       -1.720777    1.984348    0.447996
      9         17           0        2.676722   -1.586342   -0.572765
     10         17           0        1.166198    0.288140    2.167321
     11          1           0       -3.601576   -0.914101    0.100515
     12          1           0       -2.255263    2.940841    0.511016
     13          1           0       -1.300780    1.752271    1.425577
     14          1           0       -0.890353    2.142335   -0.253803
     15          1           0       -3.822183    2.174457   -1.339313
     16          1           0       -2.467175    1.427764   -2.170831
     17          1           0       -3.916647    0.458686   -1.773531
     18          6           0       -2.588520   -0.493270    2.016091
     19          1           0       -3.333222    0.044994    2.616348
     20          1           0       -2.679639   -1.551651    2.270491
     21          1           0       -1.600809   -0.152420    2.333272
     22          6           0       -0.850736   -2.257575    0.389473
     23          1           0       -1.722214   -2.886306    0.577076
     24          1           0       -0.060155   -2.880832   -0.052911
     25          1           0       -0.459254   -1.853178    1.322172
     26          6           0       -1.882334   -1.614733   -1.862678
     27          1           0       -1.210539   -2.300129   -2.397814
     28          1           0       -2.799376   -2.157134   -1.627423
     29          1           0       -2.087184   -0.775335   -2.524419
 ---------------------------------------------------------------------

 SCF Done:  E(UB97D3) =  -3034.62965912     A.U. after   16 cycles
 Normal termination of Gaussian 16 at Tue Feb 11 23:44:11 2020.
