 Gaussian 16, Revision A.03,

 --------------------------------
 #t pop=none jul-cc-pvdz upbe1pbe
 --------------------------------
 ------------------------
 theory_abbreviation pbe0
 ------------------------
 Symbolic Z-matrix:
 Charge =  0 Multiplicity = 6

 SCF Done:  E(UPBE1PBE) =  -3033.11666548     A.U. after   20 cycles
 Normal termination of Gaussian 16 at Tue Feb 11 20:04:34 2020.

 ---------------------------------------------------------------------
 #t pop=none jul-cc-pvdz guess=read upbe1pbe empiricaldispersion=gd3bj
 ---------------------------------------------------------------------
 -----------------------------
 theory_abbreviation pbe0_d3bj
 -----------------------------
 Symbolic Z-matrix:
 Charge =  0 Multiplicity = 6

 SCF Done:  E(UPBE1PBE) =  -3033.15444375     A.U. after    1 cycles
 Normal termination of Gaussian 16 at Tue Feb 11 20:05:42 2020.

 -----------------------------------------
 #t pop=none jul-cc-pvdz guess=read ub3lyp
 -----------------------------------------
 -------------------------
 theory_abbreviation b3lyp
 -------------------------
 Symbolic Z-matrix:
 Charge =  0 Multiplicity = 6

 SCF Done:  E(UB3LYP) =  -3034.33171604     A.U. after   13 cycles
 Normal termination of Gaussian 16 at Tue Feb 11 20:18:57 2020.

 -------------------------------------------------------------------
 #t pop=none jul-cc-pvdz guess=read ub3lyp empiricaldispersion=gd3bj
 -------------------------------------------------------------------
 ------------------------------
 theory_abbreviation b3lyp_d3bj
 ------------------------------
 Symbolic Z-matrix:
 Charge =  0 Multiplicity = 6

 SCF Done:  E(UB3LYP) =  -3034.40209940     A.U. after    1 cycles
 Normal termination of Gaussian 16 at Tue Feb 11 20:20:06 2020.

 ----------------------------------------
 #t pop=none jul-cc-pvdz guess=read ub97d
 ----------------------------------------
 ------------------------
 theory_abbreviation b97d
 ------------------------
 Symbolic Z-matrix:
 Charge =  0 Multiplicity = 6

 SCF Done:  E(UB97D) =  -3034.58540449     A.U. after   15 cycles

 ----------------------------------------------------------------
 #t pop=none jul-cc-pvdz guess=read ub97d empiricaldispersion=gd3
 ----------------------------------------------------------------
 -------------------------
 theory_abbreviation b97d3
 -------------------------
 Symbolic Z-matrix:
 Charge =  0 Multiplicity = 6

 SCF Done:  E(UB97D) =  -3034.58664306     A.U. after    1 cycles
 SCF Done:  E(UBHandHLYP) =  -3033.97308469     A.U. after   18 cycles
 SCF Done:  E(UBHandH) =  -3026.31740034     A.U. after   14 cycles
 SCF Done:  E(ULC-wPBE) =  -3033.45701185     A.U. after   19 cycles
 SCF Done:  E(UB-P86) =  -3034.63737201     A.U. after   16 cycles
 SCF Done:  E(UmPW1LYP) =  -3034.04986477     A.U. after   13 cycles
 SCF Done:  E(UmPW1PBE) =  -3033.89108437     A.U. after   13 cycles
 SCF Done:  E(UmPW3PBE) =  -3033.66382077     A.U. after   13 cycles
 SCF Done:  E(UM11) =  -3033.81442462     A.U. after   19 cycles
 SCF Done:  E(UN12SX) =  -3033.25583144     A.U. after   17 cycles
 SCF Done:  E(UMN12SX) =  -3033.65593815     A.U. after   16 cycles
 SCF Done:  E(UB1B95) =  -3034.38624219     A.U. after   15 cycles
 Normal termination of Gaussian 16 at Wed Feb 12 04:38:49 2020.
 SCF Done:  E(UB3PW91) =  -3033.97944424     A.U. after   13 cycles
 Normal termination of Gaussian 16 at Wed Feb 12 04:51:52 2020.
 SCF Done:  E(UM06L) =  -3034.20015033     A.U. after   17 cycles
 Normal termination of Gaussian 16 at Wed Feb 12 05:10:19 2020.
 Gaussian 16:  ES64L-G16RevA.03 25-Dec-2016

                         Standard orientation:
 ---------------------------------------------------------------------
 Center     Atomic      Atomic             Coordinates (Angstroms)
 Number     Number       Type             X           Y           Z
 ---------------------------------------------------------------------
      1          8           0       -0.304486   -0.168004   -0.734723
      2          6           0       -1.183796   -1.093023   -0.617753
      3          6           0       -3.002544   -0.129969    0.291743
      4          6           0       -2.427787    1.020037   -0.160099
      5          6           0       -2.651031    1.529435   -1.549365
      6         26           0        1.439996    0.098475    0.028112
      7         17           0        2.070260    2.032423   -0.775463
      8          6           0       -1.569013    1.896774    0.692513
      9         17           0        2.553806   -1.653590   -0.683176
     10         17           0        1.226330    0.094561    2.226225
     11          1           0       -3.713774   -0.618042   -0.371453
     12          1           0       -2.181323    2.741854    1.039533
     13          1           0       -1.161583    1.396728    1.570239
     14          1           0       -0.743248    2.320153    0.112091
     15          1           0       -2.988343    2.572315   -1.498714
     16          1           0       -1.701513    1.536544   -2.099420
     17          1           0       -3.397184    0.954921   -2.102743
     18          6           0       -3.116102   -0.512421    1.746981
     19          1           0       -3.970806    0.011678    2.194460
     20          1           0       -3.299192   -1.582922    1.869484
     21          1           0       -2.230780   -0.249610    2.330440
     22          6           0       -0.995253   -2.138597    0.448467
     23          1           0       -1.864333   -2.788407    0.556360
     24          1           0       -0.147237   -2.748633    0.103856
     25          1           0       -0.712003   -1.706216    1.407605
     26          6           0       -1.814794   -1.569057   -1.904001
     27          1           0       -1.053183   -2.200976   -2.381791
     28          1           0       -2.706794   -2.175209   -1.737291
     29          1           0       -2.027531   -0.747245   -2.585681
 ---------------------------------------------------------------------

 SCF Done:  E(UB97D3) =  -3034.62221218     A.U. after   16 cycles
 Normal termination of Gaussian 16 at Wed Feb 12 05:23:03 2020.
