 Gaussian 16, Revision A.03,

 --------------------------------
 #t pop=none jul-cc-pvdz upbe1pbe
 --------------------------------
 ------------------------
 theory_abbreviation pbe0
 ------------------------
 Symbolic Z-matrix:
 Charge =  0 Multiplicity = 6

 SCF Done:  E(UPBE1PBE) =  -3033.13606213     A.U. after   20 cycles
 Normal termination of Gaussian 16 at Wed Feb 12 14:11:20 2020.

 ---------------------------------------------------------------------
 #t pop=none jul-cc-pvdz guess=read upbe1pbe empiricaldispersion=gd3bj
 ---------------------------------------------------------------------
 -----------------------------
 theory_abbreviation pbe0_d3bj
 -----------------------------
 Symbolic Z-matrix:
 Charge =  0 Multiplicity = 6

 SCF Done:  E(UPBE1PBE) =  -3033.17250900     A.U. after    1 cycles
 Normal termination of Gaussian 16 at Wed Feb 12 14:12:27 2020.

 -----------------------------------------
 #t pop=none jul-cc-pvdz guess=read ub3lyp
 -----------------------------------------
 -------------------------
 theory_abbreviation b3lyp
 -------------------------
 Symbolic Z-matrix:
 Charge =  0 Multiplicity = 6

 SCF Done:  E(UB3LYP) =  -3034.35431505     A.U. after   13 cycles
 Normal termination of Gaussian 16 at Wed Feb 12 14:25:43 2020.

 -------------------------------------------------------------------
 #t pop=none jul-cc-pvdz guess=read ub3lyp empiricaldispersion=gd3bj
 -------------------------------------------------------------------
 ------------------------------
 theory_abbreviation b3lyp_d3bj
 ------------------------------
 Symbolic Z-matrix:
 Charge =  0 Multiplicity = 6

 SCF Done:  E(UB3LYP) =  -3034.42181971     A.U. after    1 cycles
 Normal termination of Gaussian 16 at Wed Feb 12 14:26:51 2020.

 ----------------------------------------
 #t pop=none jul-cc-pvdz guess=read ub97d
 ----------------------------------------
 ------------------------
 theory_abbreviation b97d
 ------------------------
 Symbolic Z-matrix:
 Charge =  0 Multiplicity = 6

 SCF Done:  E(UB97D) =  -3034.60506837     A.U. after   16 cycles

 ----------------------------------------------------------------
 #t pop=none jul-cc-pvdz guess=read ub97d empiricaldispersion=gd3
 ----------------------------------------------------------------
 -------------------------
 theory_abbreviation b97d3
 -------------------------
 Symbolic Z-matrix:
 Charge =  0 Multiplicity = 6

 SCF Done:  E(UB97D) =  -3034.60651014     A.U. after    1 cycles
 SCF Done:  E(UBHandHLYP) =  -3033.99602873     A.U. after   17 cycles
 SCF Done:  E(UBHandH) =  -3026.33261311     A.U. after   14 cycles
 SCF Done:  E(ULC-wPBE) =  -3033.47708406     A.U. after   19 cycles
 SCF Done:  E(UB-P86) =  -3034.65414175     A.U. after   17 cycles
 SCF Done:  E(UmPW1LYP) =  -3034.07265332     A.U. after   13 cycles
 SCF Done:  E(UmPW1PBE) =  -3033.91051497     A.U. after   13 cycles
 SCF Done:  E(UmPW3PBE) =  -3033.68350285     A.U. after   13 cycles
 SCF Done:  E(UM11) =  -3033.83463796     A.U. after   17 cycles
 SCF Done:  E(UN12SX) =  -3033.27497297     A.U. after   16 cycles
 SCF Done:  E(UMN12SX) =  -3033.67719877     A.U. after   16 cycles
 SCF Done:  E(UB1B95) =  -3034.40659217     A.U. after   14 cycles
 Normal termination of Gaussian 16 at Wed Feb 12 21:56:52 2020.
 SCF Done:  E(UB3PW91) =  -3033.99969458     A.U. after   13 cycles
 Normal termination of Gaussian 16 at Wed Feb 12 22:09:31 2020.
 SCF Done:  E(UM06L) =  -3034.22190934     A.U. after   17 cycles
 Normal termination of Gaussian 16 at Wed Feb 12 22:27:35 2020.
 Gaussian 16:  ES64L-G16RevA.03 25-Dec-2016

                         Standard orientation:
 ---------------------------------------------------------------------
 Center     Atomic      Atomic             Coordinates (Angstroms)
 Number     Number       Type             X           Y           Z
 ---------------------------------------------------------------------
      1          8           0        0.188108    0.384401   -0.877707
      2          6           0        0.979188    1.337095   -0.678028
      3          6           0        3.058039    0.133746    0.554993
      4          6           0        2.670337   -0.936827   -0.168525
      5          6           0        3.168436   -1.161163   -1.570292
      6         26           0       -1.484941   -0.165459    0.009908
      7         17           0       -2.058254   -1.999513   -1.007391
      8          6           0        1.745438   -2.005068    0.336327
      9         17           0       -2.739306    1.583697   -0.382848
     10         17           0       -1.074408   -0.419944    2.151173
     11          1           0        3.778022    0.811032    0.094578
     12          1           0        2.268342   -2.970516    0.360521
     13          1           0        1.348353   -1.808032    1.331671
     14          1           0        0.899709   -2.133873   -0.351667
     15          1           0        3.700598   -2.119530   -1.629897
     16          1           0        2.330167   -1.231560   -2.276523
     17          1           0        3.852842   -0.375884   -1.903626
     18          6           0        2.811530    0.357752    2.023956
     19          1           0        3.607599   -0.115497    2.614845
     20          1           0        2.828009    1.422582    2.275747
     21          1           0        1.859553   -0.054822    2.366756
     22          6           0        0.807281    2.244265    0.499606
     23          1           0        1.694855    2.849634    0.686146
     24          1           0       -0.027011    2.914851    0.244146
     25          1           0        0.517474    1.695500    1.395927
     26          6           0        1.811477    1.810911   -1.830923
     27          1           0        1.226603    2.603794   -2.320387
     28          1           0        2.757085    2.247522   -1.507098
     29          1           0        1.974497    1.015179   -2.555644
 ---------------------------------------------------------------------

 SCF Done:  E(UB97D3) =  -3034.64125671     A.U. after   16 cycles
 Normal termination of Gaussian 16 at Wed Feb 12 22:40:06 2020.
