 Gaussian 16, Revision A.03,

 --------------------------------
 #t pop=none jul-cc-pvdz upbe1pbe
 --------------------------------
 ------------------------
 theory_abbreviation pbe0
 ------------------------
 Symbolic Z-matrix:
 Charge =  0 Multiplicity = 6

 SCF Done:  E(UPBE1PBE) =  -3033.11084952     A.U. after   21 cycles
 Normal termination of Gaussian 16 at Tue Feb 11 14:46:35 2020.

 ---------------------------------------------------------------------
 #t pop=none jul-cc-pvdz guess=read upbe1pbe empiricaldispersion=gd3bj
 ---------------------------------------------------------------------
 -----------------------------
 theory_abbreviation pbe0_d3bj
 -----------------------------
 Symbolic Z-matrix:
 Charge =  0 Multiplicity = 6

 SCF Done:  E(UPBE1PBE) =  -3033.14718517     A.U. after    1 cycles
 Normal termination of Gaussian 16 at Tue Feb 11 14:47:46 2020.

 -----------------------------------------
 #t pop=none jul-cc-pvdz guess=read ub3lyp
 -----------------------------------------
 -------------------------
 theory_abbreviation b3lyp
 -------------------------
 Symbolic Z-matrix:
 Charge =  0 Multiplicity = 6

 SCF Done:  E(UB3LYP) =  -3034.32347590     A.U. after   15 cycles
 Normal termination of Gaussian 16 at Tue Feb 11 15:03:36 2020.

 -------------------------------------------------------------------
 #t pop=none jul-cc-pvdz guess=read ub3lyp empiricaldispersion=gd3bj
 -------------------------------------------------------------------
 ------------------------------
 theory_abbreviation b3lyp_d3bj
 ------------------------------
 Symbolic Z-matrix:
 Charge =  0 Multiplicity = 6

 SCF Done:  E(UB3LYP) =  -3034.39123977     A.U. after    1 cycles
 Normal termination of Gaussian 16 at Tue Feb 11 15:04:46 2020.

 ----------------------------------------
 #t pop=none jul-cc-pvdz guess=read ub97d
 ----------------------------------------
 ------------------------
 theory_abbreviation b97d
 ------------------------
 Symbolic Z-matrix:
 Charge =  0 Multiplicity = 6

 SCF Done:  E(UB97D) =  -3034.57556886     A.U. after   16 cycles

 ----------------------------------------------------------------
 #t pop=none jul-cc-pvdz guess=read ub97d empiricaldispersion=gd3
 ----------------------------------------------------------------
 -------------------------
 theory_abbreviation b97d3
 -------------------------
 Symbolic Z-matrix:
 Charge =  0 Multiplicity = 6

 SCF Done:  E(UB97D) =  -3034.57601164     A.U. after    3 cycles
 SCF Done:  E(UBHandHLYP) =  -3033.96460458     A.U. after   17 cycles
 SCF Done:  E(UBHandH) =  -3026.31296299     A.U. after   16 cycles
 SCF Done:  E(ULC-wPBE) =  -3033.45001780     A.U. after   18 cycles
 SCF Done:  E(UB-P86) =  -3034.62889904     A.U. after   17 cycles
 SCF Done:  E(UmPW1LYP) =  -3034.04133605     A.U. after   15 cycles
 SCF Done:  E(UmPW1PBE) =  -3033.88528578     A.U. after   15 cycles
 SCF Done:  E(UmPW3PBE) =  -3033.65778141     A.U. after   15 cycles
 SCF Done:  E(UM11) =  -3033.80648092     A.U. after   19 cycles
 SCF Done:  E(UN12SX) =  -3033.25056989     A.U. after   17 cycles
 SCF Done:  E(UMN12SX) =  -3033.64639025     A.U. after   16 cycles
 SCF Done:  E(UB1B95) =  -3034.37793174     A.U. after   16 cycles
 Normal termination of Gaussian 16 at Tue Feb 11 23:58:50 2020.
 SCF Done:  E(UB3PW91) =  -3033.97315652     A.U. after   15 cycles
 Normal termination of Gaussian 16 at Wed Feb 12 00:15:47 2020.
 SCF Done:  E(UM06L) =  -3034.19000614     A.U. after   17 cycles
 Normal termination of Gaussian 16 at Wed Feb 12 00:34:43 2020.
 Gaussian 16:  ES64L-G16RevA.03 25-Dec-2016

                         Standard orientation:
 ---------------------------------------------------------------------
 Center     Atomic      Atomic             Coordinates (Angstroms)
 Number     Number       Type             X           Y           Z
 ---------------------------------------------------------------------
      1          8           0       -0.350586   -0.123646   -0.484249
      2          6           0       -1.222038   -1.107845   -0.334716
      3          6           0       -2.606410   -0.408302    0.673577
      4          6           0       -2.809308    0.769689   -0.060966
      5          6           0       -3.752567    0.814264   -1.212197
      6         26           0        1.460695    0.169555   -0.070731
      7         17           0        1.767862    2.211365   -0.839279
      8          6           0       -2.039104    1.988757    0.214944
      9         17           0        2.575160   -1.436360   -1.077087
     10         17           0        1.648900    0.087338    2.134721
     11          1           0       -3.368798   -1.169405    0.502333
     12          1           0       -2.438522    2.872342   -0.286623
     13          1           0       -1.885328    2.175920    1.280145
     14          1           0       -1.032060    1.778449   -0.200724
     15          1           0       -4.558972    1.516430   -0.954220
     16          1           0       -3.263939    1.231102   -2.102207
     17          1           0       -4.198609   -0.152575   -1.447481
     18          6           0       -2.137496   -0.294286    2.119168
     19          1           0       -2.816011    0.357069    2.681122
     20          1           0       -2.144013   -1.271901    2.603425
     21          1           0       -1.126671    0.113341    2.194502
     22          6           0       -0.750797   -2.277162    0.531559
     23          1           0       -1.558241   -2.982654    0.746072
     24          1           0        0.019973   -2.794151   -0.052295
     25          1           0       -0.289141   -1.941095    1.459166
     26          6           0       -1.793897   -1.591793   -1.665218
     27          1           0       -1.001031   -2.167530   -2.154772
     28          1           0       -2.663401   -2.243794   -1.538698
     29          1           0       -2.041587   -0.760561   -2.325668
 ---------------------------------------------------------------------

 SCF Done:  E(UB97D3) =  -3034.61025555     A.U. after   16 cycles
 Normal termination of Gaussian 16 at Wed Feb 12 00:47:23 2020.
