 Gaussian 16, Revision A.03,

 --------------------------------
 #t pop=none jul-cc-pvdz upbe1pbe
 --------------------------------
 ------------------------
 theory_abbreviation pbe0
 ------------------------
 Symbolic Z-matrix:
 Charge =  0 Multiplicity = 6

 SCF Done:  E(UPBE1PBE) =  -3033.14039506     A.U. after   20 cycles
 Normal termination of Gaussian 16 at Wed Feb 12 15:27:43 2020.

 ---------------------------------------------------------------------
 #t pop=none jul-cc-pvdz guess=read upbe1pbe empiricaldispersion=gd3bj
 ---------------------------------------------------------------------
 -----------------------------
 theory_abbreviation pbe0_d3bj
 -----------------------------
 Symbolic Z-matrix:
 Charge =  0 Multiplicity = 6

 SCF Done:  E(UPBE1PBE) =  -3033.17615316     A.U. after    1 cycles
 Normal termination of Gaussian 16 at Wed Feb 12 15:28:55 2020.

 -----------------------------------------
 #t pop=none jul-cc-pvdz guess=read ub3lyp
 -----------------------------------------
 -------------------------
 theory_abbreviation b3lyp
 -------------------------
 Symbolic Z-matrix:
 Charge =  0 Multiplicity = 6

 SCF Done:  E(UB3LYP) =  -3034.35947186     A.U. after   13 cycles
 Normal termination of Gaussian 16 at Wed Feb 12 15:42:25 2020.

 -------------------------------------------------------------------
 #t pop=none jul-cc-pvdz guess=read ub3lyp empiricaldispersion=gd3bj
 -------------------------------------------------------------------
 ------------------------------
 theory_abbreviation b3lyp_d3bj
 ------------------------------
 Symbolic Z-matrix:
 Charge =  0 Multiplicity = 6

 SCF Done:  E(UB3LYP) =  -3034.42549920     A.U. after    1 cycles
 Normal termination of Gaussian 16 at Wed Feb 12 15:43:35 2020.

 ----------------------------------------
 #t pop=none jul-cc-pvdz guess=read ub97d
 ----------------------------------------
 ------------------------
 theory_abbreviation b97d
 ------------------------
 Symbolic Z-matrix:
 Charge =  0 Multiplicity = 6

 SCF Done:  E(UB97D) =  -3034.60792584     A.U. after   17 cycles

 ----------------------------------------------------------------
 #t pop=none jul-cc-pvdz guess=read ub97d empiricaldispersion=gd3
 ----------------------------------------------------------------
 -------------------------
 theory_abbreviation b97d3
 -------------------------
 Symbolic Z-matrix:
 Charge =  0 Multiplicity = 6

 SCF Done:  E(UB97D) =  -3034.60992999     A.U. after    1 cycles
 SCF Done:  E(UBHandHLYP) =  -3034.00152428     A.U. after   18 cycles
 SCF Done:  E(UBHandH) =  -3026.33516801     A.U. after   14 cycles
 SCF Done:  E(ULC-wPBE) =  -3033.48176957     A.U. after   17 cycles
 SCF Done:  E(UB-P86) =  -3034.65676608     A.U. after   18 cycles
 SCF Done:  E(UmPW1LYP) =  -3034.07785168     A.U. after   13 cycles
 SCF Done:  E(UmPW1PBE) =  -3033.91491961     A.U. after   14 cycles
 SCF Done:  E(UmPW3PBE) =  -3033.68789246     A.U. after   13 cycles
 SCF Done:  E(UM11) =  -3033.83911515     A.U. after   16 cycles
 SCF Done:  E(UN12SX) =  -3033.27938198     A.U. after   16 cycles
 SCF Done:  E(UMN12SX) =  -3033.68177268     A.U. after   16 cycles
 SCF Done:  E(UB1B95) =  -3034.41135216     A.U. after   14 cycles
 Normal termination of Gaussian 16 at Wed Feb 12 23:06:29 2020.
 SCF Done:  E(UB3PW91) =  -3034.00430639     A.U. after   14 cycles
 Normal termination of Gaussian 16 at Wed Feb 12 23:19:54 2020.
 SCF Done:  E(UM06L) =  -3034.22571597     A.U. after   18 cycles
 Normal termination of Gaussian 16 at Wed Feb 12 23:38:46 2020.
 Gaussian 16:  ES64L-G16RevA.03 25-Dec-2016

                         Standard orientation:
 ---------------------------------------------------------------------
 Center     Atomic      Atomic             Coordinates (Angstroms)
 Number     Number       Type             X           Y           Z
 ---------------------------------------------------------------------
      1          8           0        0.159626    0.482149   -0.877524
      2          6           0        0.876641    1.475362   -0.640147
      3          6           0        3.203021    0.007886    0.557547
      4          6           0        2.681931   -0.920166   -0.266004
      5          6           0        3.099005   -1.003369   -1.711680
      6         26           0       -1.486125   -0.185584    0.023039
      7         17           0       -2.059514   -1.945421   -1.110934
      8          6           0        1.729171   -2.001571    0.159942
      9         17           0       -2.776201    1.564189   -0.224442
     10         17           0       -1.016672   -0.562198    2.129241
     11          1           0        3.937626    0.694660    0.133165
     12          1           0        2.222795   -2.980089    0.084211
     13          1           0        1.362522   -1.888582    1.179989
     14          1           0        0.864813   -2.047062   -0.513829
     15          1           0        3.584407   -1.967602   -1.912737
     16          1           0        2.224947   -0.956128   -2.374469
     17          1           0        3.799762   -0.210445   -1.990652
     18          6           0        2.983496    0.143704    2.038711
     19          1           0        3.829251   -0.283496    2.595104
     20          1           0        2.919146    1.197088    2.336005
     21          1           0        2.075145   -0.357141    2.382388
     22          6           0        0.747166    2.242833    0.635955
     23          1           0        1.610259    2.885925    0.813970
     24          1           0       -0.149619    2.872625    0.539816
     25          1           0        0.582689    1.574276    1.482686
     26          6           0        1.721339    2.033746   -1.740407
     27          1           0        1.235479    2.959684   -2.080789
     28          1           0        2.715274    2.302109   -1.375927
     29          1           0        1.787710    1.339949   -2.576977
 ---------------------------------------------------------------------

 SCF Done:  E(UB97D3) =  -3034.64435840     A.U. after   16 cycles
 Normal termination of Gaussian 16 at Wed Feb 12 23:50:58 2020.
