 Gaussian 16, Revision A.03,

 --------------------------------
 #t pop=none jul-cc-pvdz upbe1pbe
 --------------------------------
 ------------------------
 theory_abbreviation pbe0
 ------------------------
 Symbolic Z-matrix:
 Charge =  0 Multiplicity = 6

 SCF Done:  E(UPBE1PBE) =  -3033.12608277     A.U. after   21 cycles
 Normal termination of Gaussian 16 at Tue Feb 11 13:59:51 2020.

 ---------------------------------------------------------------------
 #t pop=none jul-cc-pvdz guess=read upbe1pbe empiricaldispersion=gd3bj
 ---------------------------------------------------------------------
 -----------------------------
 theory_abbreviation pbe0_d3bj
 -----------------------------
 Symbolic Z-matrix:
 Charge =  0 Multiplicity = 6

 SCF Done:  E(UPBE1PBE) =  -3033.16346473     A.U. after    1 cycles
 Normal termination of Gaussian 16 at Tue Feb 11 14:01:02 2020.

 -----------------------------------------
 #t pop=none jul-cc-pvdz guess=read ub3lyp
 -----------------------------------------
 -------------------------
 theory_abbreviation b3lyp
 -------------------------
 Symbolic Z-matrix:
 Charge =  0 Multiplicity = 6

 SCF Done:  E(UB3LYP) =  -3034.34255100     A.U. after   13 cycles
 Normal termination of Gaussian 16 at Tue Feb 11 14:14:51 2020.

 -------------------------------------------------------------------
 #t pop=none jul-cc-pvdz guess=read ub3lyp empiricaldispersion=gd3bj
 -------------------------------------------------------------------
 ------------------------------
 theory_abbreviation b3lyp_d3bj
 ------------------------------
 Symbolic Z-matrix:
 Charge =  0 Multiplicity = 6

 SCF Done:  E(UB3LYP) =  -3034.41207999     A.U. after    1 cycles
 Normal termination of Gaussian 16 at Tue Feb 11 14:16:01 2020.

 ----------------------------------------
 #t pop=none jul-cc-pvdz guess=read ub97d
 ----------------------------------------
 ------------------------
 theory_abbreviation b97d
 ------------------------
 Symbolic Z-matrix:
 Charge =  0 Multiplicity = 6

 SCF Done:  E(UB97D) =  -3034.59581748     A.U. after   15 cycles

 ----------------------------------------------------------------
 #t pop=none jul-cc-pvdz guess=read ub97d empiricaldispersion=gd3
 ----------------------------------------------------------------
 -------------------------
 theory_abbreviation b97d3
 -------------------------
 Symbolic Z-matrix:
 Charge =  0 Multiplicity = 6

 SCF Done:  E(UB97D) =  -3034.59705747     A.U. after    1 cycles
 SCF Done:  E(UBHandHLYP) =  -3033.98370776     A.U. after   18 cycles
 SCF Done:  E(UBHandH) =  -3026.32508722     A.U. after   14 cycles
 SCF Done:  E(ULC-wPBE) =  -3033.46658441     A.U. after   19 cycles
 SCF Done:  E(UB-P86) =  -3034.64632083     A.U. after   16 cycles
 SCF Done:  E(UmPW1LYP) =  -3034.06075389     A.U. after   13 cycles
 SCF Done:  E(UmPW1PBE) =  -3033.90047568     A.U. after   14 cycles
 SCF Done:  E(UmPW3PBE) =  -3033.67339416     A.U. after   13 cycles
 SCF Done:  E(UM11) =  -3033.82415238     A.U. after   17 cycles
 SCF Done:  E(UN12SX) =  -3033.26500459     A.U. after   17 cycles
 SCF Done:  E(UMN12SX) =  -3033.66626785     A.U. after   16 cycles
 SCF Done:  E(UB1B95) =  -3034.39615741     A.U. after   14 cycles
 Normal termination of Gaussian 16 at Tue Feb 11 22:48:24 2020.
 SCF Done:  E(UB3PW91) =  -3033.98922742     A.U. after   13 cycles
 Normal termination of Gaussian 16 at Tue Feb 11 23:03:49 2020.
 SCF Done:  E(UM06L) =  -3034.21130127     A.U. after   17 cycles
 Normal termination of Gaussian 16 at Tue Feb 11 23:22:45 2020.
 Gaussian 16:  ES64L-G16RevA.03 25-Dec-2016

                         Standard orientation:
 ---------------------------------------------------------------------
 Center     Atomic      Atomic             Coordinates (Angstroms)
 Number     Number       Type             X           Y           Z
 ---------------------------------------------------------------------
      1          8           0       -0.261593   -0.266082   -0.819602
      2          6           0       -1.102010   -1.199931   -0.651018
      3          6           0       -2.946588   -0.178263    0.495164
      4          6           0       -2.566345    0.961652   -0.133498
      5          6           0       -3.047318    1.305091   -1.512789
      6         26           0        1.453755    0.136802    0.005211
      7         17           0        2.059559    2.024321   -0.903375
      8          6           0       -1.655538    1.980927    0.474568
      9         17           0        2.645821   -1.616190   -0.546922
     10         17           0        1.139952    0.267694    2.181540
     11          1           0       -3.681491   -0.801519   -0.012185
     12          1           0       -2.202379    2.924376    0.606487
     13          1           0       -1.243302    1.686593    1.438554
     14          1           0       -0.824054    2.201065   -0.206544
     15          1           0       -3.538345    2.286428   -1.495053
     16          1           0       -2.199111    1.397783   -2.204024
     17          1           0       -3.760703    0.577389   -1.907301
     18          6           0       -2.771751   -0.454788    1.968215
     19          1           0       -3.553974    0.067247    2.534992
     20          1           0       -2.876608   -1.519565    2.191871
     21          1           0       -1.807109   -0.120462    2.357150
     22          6           0       -0.880587   -2.218794    0.430045
     23          1           0       -1.759418   -2.841617    0.600583
     24          1           0       -0.066195   -2.859545    0.060597
     25          1           0       -0.539244   -1.767638    1.361028
     26          6           0       -1.861588   -1.656413   -1.868039
     27          1           0       -1.194298   -2.365722   -2.378323
     28          1           0       -2.783452   -2.183236   -1.617854
     29          1           0       -2.055496   -0.835691   -2.555661
 ---------------------------------------------------------------------

 SCF Done:  E(UB97D3) =  -3034.63219354     A.U. after   17 cycles
 Normal termination of Gaussian 16 at Tue Feb 11 23:36:13 2020.
