 Gaussian 16, Revision A.03,

 --------------------------------
 #t pop=none jul-cc-pvdz upbe1pbe
 --------------------------------
 ------------------------
 theory_abbreviation pbe0
 ------------------------
 Symbolic Z-matrix:
 Charge =  0 Multiplicity = 6

 SCF Done:  E(UPBE1PBE) =  -3033.11579035     A.U. after   21 cycles
 Normal termination of Gaussian 16 at Tue Feb 11 13:59:09 2020.

 ---------------------------------------------------------------------
 #t pop=none jul-cc-pvdz guess=read upbe1pbe empiricaldispersion=gd3bj
 ---------------------------------------------------------------------
 -----------------------------
 theory_abbreviation pbe0_d3bj
 -----------------------------
 Symbolic Z-matrix:
 Charge =  0 Multiplicity = 6

 SCF Done:  E(UPBE1PBE) =  -3033.15154437     A.U. after    1 cycles
 Normal termination of Gaussian 16 at Tue Feb 11 14:00:18 2020.

 -----------------------------------------
 #t pop=none jul-cc-pvdz guess=read ub3lyp
 -----------------------------------------
 -------------------------
 theory_abbreviation b3lyp
 -------------------------
 Symbolic Z-matrix:
 Charge =  0 Multiplicity = 6

 SCF Done:  E(UB3LYP) =  -3034.33094781     A.U. after   16 cycles
 Normal termination of Gaussian 16 at Tue Feb 11 14:16:50 2020.

 -------------------------------------------------------------------
 #t pop=none jul-cc-pvdz guess=read ub3lyp empiricaldispersion=gd3bj
 -------------------------------------------------------------------
 ------------------------------
 theory_abbreviation b3lyp_d3bj
 ------------------------------
 Symbolic Z-matrix:
 Charge =  0 Multiplicity = 6

 SCF Done:  E(UB3LYP) =  -3034.39763673     A.U. after    1 cycles
 Normal termination of Gaussian 16 at Tue Feb 11 14:17:58 2020.

 ----------------------------------------
 #t pop=none jul-cc-pvdz guess=read ub97d
 ----------------------------------------
 ------------------------
 theory_abbreviation b97d
 ------------------------
 Symbolic Z-matrix:
 Charge =  0 Multiplicity = 6

 SCF Done:  E(UB97D) =  -3034.58382151     A.U. after   16 cycles

 ----------------------------------------------------------------
 #t pop=none jul-cc-pvdz guess=read ub97d empiricaldispersion=gd3
 ----------------------------------------------------------------
 -------------------------
 theory_abbreviation b97d3
 -------------------------
 Symbolic Z-matrix:
 Charge =  0 Multiplicity = 6

 SCF Done:  E(UB97D) =  -3034.58408486     A.U. after    1 cycles
 SCF Done:  E(UBHandHLYP) =  -3033.96958584     A.U. after   17 cycles
 SCF Done:  E(UBHandH) =  -3026.31319030     A.U. after   16 cycles
 SCF Done:  E(ULC-wPBE) =  -3033.45224525     A.U. after   19 cycles
 SCF Done:  E(UB-P86) =  -3034.63510241     A.U. after   17 cycles
 SCF Done:  E(UmPW1LYP) =  -3034.04845278     A.U. after   15 cycles
 SCF Done:  E(UmPW1PBE) =  -3033.89046022     A.U. after   16 cycles
 SCF Done:  E(UmPW3PBE) =  -3033.66347331     A.U. after   13 cycles
 SCF Done:  E(UM11) =  -3033.81079751     A.U. after   19 cycles
 SCF Done:  E(UN12SX) =  -3033.25517572     A.U. after   17 cycles
 SCF Done:  E(UMN12SX) =  -3033.65151287     A.U. after   17 cycles
 SCF Done:  E(UB1B95) =  -3034.38355765     A.U. after   16 cycles
 Normal termination of Gaussian 16 at Tue Feb 11 23:03:44 2020.
 SCF Done:  E(UB3PW91) =  -3033.97923194     A.U. after   15 cycles
 Normal termination of Gaussian 16 at Tue Feb 11 23:19:16 2020.
 SCF Done:  E(UM06L) =  -3034.19565407     A.U. after   16 cycles
 Normal termination of Gaussian 16 at Tue Feb 11 23:36:56 2020.
 Gaussian 16:  ES64L-G16RevA.03 25-Dec-2016

                         Standard orientation:
 ---------------------------------------------------------------------
 Center     Atomic      Atomic             Coordinates (Angstroms)
 Number     Number       Type             X           Y           Z
 ---------------------------------------------------------------------
      1          8           0       -0.286888   -0.160844   -0.440799
      2          6           0       -1.161664   -1.081804   -0.157031
      3          6           0       -2.603354   -0.181677    0.897153
      4          6           0       -3.158634    0.630145   -0.083826
      5          6           0       -4.319320    0.195237   -0.912457
      6         26           0        1.560304    0.167179   -0.110307
      7         17           0        1.923514    2.070195   -1.132350
      8          6           0       -2.516571    1.928748   -0.411305
      9         17           0        2.528416   -1.606612   -0.976785
     10         17           0        1.874209    0.299100    2.067588
     11          1           0       -3.188424   -1.068534    1.139658
     12          1           0       -3.035750    2.475392   -1.201093
     13          1           0       -2.413208    2.568509    0.472307
     14          1           0       -1.483203    1.706375   -0.738052
     15          1           0       -5.157629    0.878876   -0.714442
     16          1           0       -4.101147    0.286939   -1.983868
     17          1           0       -4.646268   -0.822463   -0.689892
     18          6           0       -1.847250    0.443020    2.058684
     19          1           0       -2.463818    1.212630    2.536728
     20          1           0       -1.606980   -0.303130    2.816959
     21          1           0       -0.911553    0.906742    1.741024
     22          6           0       -0.742825   -2.106716    0.890170
     23          1           0       -1.570281   -2.745121    1.207652
     24          1           0        0.013858   -2.733802    0.400602
     25          1           0       -0.267731   -1.639946    1.752401
     26          6           0       -1.831972   -1.690695   -1.376305
     27          1           0       -1.094778   -2.360989   -1.834578
     28          1           0       -2.717898   -2.277825   -1.121543
     29          1           0       -2.082823   -0.926716   -2.113682
 ---------------------------------------------------------------------

 SCF Done:  E(UB97D3) =  -3034.61851989     A.U. after   17 cycles
 Normal termination of Gaussian 16 at Tue Feb 11 23:50:20 2020.
