 Gaussian 16, Revision A.03,

 --------------------------------
 #t pop=none jul-cc-pvdz upbe1pbe
 --------------------------------
 ------------------------
 theory_abbreviation pbe0
 ------------------------
 Symbolic Z-matrix:
 Charge =  0 Multiplicity = 6

 SCF Done:  E(UPBE1PBE) =  -3033.11362090     A.U. after   21 cycles
 Normal termination of Gaussian 16 at Tue Feb 11 13:57:16 2020.

 ---------------------------------------------------------------------
 #t pop=none jul-cc-pvdz guess=read upbe1pbe empiricaldispersion=gd3bj
 ---------------------------------------------------------------------
 -----------------------------
 theory_abbreviation pbe0_d3bj
 -----------------------------
 Symbolic Z-matrix:
 Charge =  0 Multiplicity = 6

 SCF Done:  E(UPBE1PBE) =  -3033.15056508     A.U. after    1 cycles
 Normal termination of Gaussian 16 at Tue Feb 11 13:58:27 2020.

 -----------------------------------------
 #t pop=none jul-cc-pvdz guess=read ub3lyp
 -----------------------------------------
 -------------------------
 theory_abbreviation b3lyp
 -------------------------
 Symbolic Z-matrix:
 Charge =  0 Multiplicity = 6

 SCF Done:  E(UB3LYP) =  -3034.32647780     A.U. after   13 cycles
 Normal termination of Gaussian 16 at Tue Feb 11 14:12:17 2020.

 -------------------------------------------------------------------
 #t pop=none jul-cc-pvdz guess=read ub3lyp empiricaldispersion=gd3bj
 -------------------------------------------------------------------
 ------------------------------
 theory_abbreviation b3lyp_d3bj
 ------------------------------
 Symbolic Z-matrix:
 Charge =  0 Multiplicity = 6

 SCF Done:  E(UB3LYP) =  -3034.39526307     A.U. after    1 cycles
 Normal termination of Gaussian 16 at Tue Feb 11 14:13:27 2020.

 ----------------------------------------
 #t pop=none jul-cc-pvdz guess=read ub97d
 ----------------------------------------
 ------------------------
 theory_abbreviation b97d
 ------------------------
 Symbolic Z-matrix:
 Charge =  0 Multiplicity = 6

 SCF Done:  E(UB97D) =  -3034.57622321     A.U. after   16 cycles

 ----------------------------------------------------------------
 #t pop=none jul-cc-pvdz guess=read ub97d empiricaldispersion=gd3
 ----------------------------------------------------------------
 -------------------------
 theory_abbreviation b97d3
 -------------------------
 Symbolic Z-matrix:
 Charge =  0 Multiplicity = 6

 SCF Done:  E(UB97D) =  -3034.57725070     A.U. after    1 cycles
 SCF Done:  E(UBHandHLYP) =  -3033.97053619     A.U. after   16 cycles
 SCF Done:  E(UBHandH) =  -3026.31652415     A.U. after   14 cycles
 SCF Done:  E(ULC-wPBE) =  -3033.45896271     A.U. after   17 cycles
 SCF Done:  E(UB-P86) =  -3034.63222903     A.U. after   17 cycles
 SCF Done:  E(UmPW1LYP) =  -3034.04495242     A.U. after   14 cycles
 SCF Done:  E(UmPW1PBE) =  -3033.88809788     A.U. after   14 cycles
 SCF Done:  E(UmPW3PBE) =  -3033.66017893     A.U. after   14 cycles
 SCF Done:  E(UM11) =  -3033.80900946     A.U. after   16 cycles
 SCF Done:  E(UN12SX) =  -3033.25365520     A.U. after   16 cycles
 SCF Done:  E(UMN12SX) =  -3033.64988088     A.U. after   16 cycles
 SCF Done:  E(UB1B95) =  -3034.37955325     A.U. after   15 cycles
 Normal termination of Gaussian 16 at Tue Feb 11 22:43:33 2020.
 SCF Done:  E(UB3PW91) =  -3033.97558261     A.U. after   14 cycles
 Normal termination of Gaussian 16 at Tue Feb 11 22:59:24 2020.
 SCF Done:  E(UM06L) =  -3034.19115666     A.U. after   17 cycles
 Normal termination of Gaussian 16 at Tue Feb 11 23:18:13 2020.
 Gaussian 16:  ES64L-G16RevA.03 25-Dec-2016

                         Standard orientation:
 ---------------------------------------------------------------------
 Center     Atomic      Atomic             Coordinates (Angstroms)
 Number     Number       Type             X           Y           Z
 ---------------------------------------------------------------------
      1          8           0       -0.356227   -0.269487   -0.596779
      2          6           0       -1.446982   -1.184589   -0.360994
      3          6           0       -2.728440   -0.148621   -0.276490
      4          6           0       -1.986883    1.164026   -0.241761
      5          6           0       -1.840339    1.967202   -1.471561
      6         26           0        1.379877    0.022014    0.014071
      7         17           0        1.779005    2.042639   -0.827420
      8          6           0       -1.606275    1.786915    1.041871
      9         17           0        2.621064   -1.635757   -0.705987
     10         17           0        1.322030    0.147175    2.231358
     11          1           0       -3.257312   -0.215593   -1.231794
     12          1           0       -2.497993    2.330153    1.398976
     13          1           0       -1.338296    1.056707    1.806438
     14          1           0       -0.794371    2.506544    0.916677
     15          1           0       -2.537380    2.818679   -1.396378
     16          1           0       -0.827404    2.383851   -1.525065
     17          1           0       -2.068333    1.399700   -2.374089
     18          6           0       -3.717443   -0.379215    0.865217
     19          1           0       -4.522718    0.363826    0.844881
     20          1           0       -4.178068   -1.365163    0.753970
     21          1           0       -3.241379   -0.341965    1.847559
     22          6           0       -1.228162   -1.978045    0.918068
     23          1           0       -2.057452   -2.667583    1.104454
     24          1           0       -0.313184   -2.569958    0.805124
     25          1           0       -1.091843   -1.334214    1.788889
     26          6           0       -1.576536   -2.097682   -1.570539
     27          1           0       -0.664439   -2.696177   -1.665664
     28          1           0       -2.432867   -2.774213   -1.467660
     29          1           0       -1.693275   -1.509970   -2.485965
 ---------------------------------------------------------------------

 SCF Done:  E(UB97D3) =  -3034.61262801     A.U. after   16 cycles
 Normal termination of Gaussian 16 at Tue Feb 11 23:31:00 2020.
