 Gaussian 16, Revision A.03,

 --------------------------------
 #t pop=none jul-cc-pvdz upbe1pbe
 --------------------------------
 ------------------------
 theory_abbreviation pbe0
 ------------------------
 Symbolic Z-matrix:
 Charge =  0 Multiplicity = 6

 SCF Done:  E(UPBE1PBE) =  -3033.10081552     A.U. after   20 cycles
 Normal termination of Gaussian 16 at Tue Feb 11 23:38:30 2020.

 ---------------------------------------------------------------------
 #t pop=none jul-cc-pvdz guess=read upbe1pbe empiricaldispersion=gd3bj
 ---------------------------------------------------------------------
 -----------------------------
 theory_abbreviation pbe0_d3bj
 -----------------------------
 Symbolic Z-matrix:
 Charge =  0 Multiplicity = 6

 SCF Done:  E(UPBE1PBE) =  -3033.13894125     A.U. after    1 cycles
 Normal termination of Gaussian 16 at Tue Feb 11 23:39:40 2020.

 -----------------------------------------
 #t pop=none jul-cc-pvdz guess=read ub3lyp
 -----------------------------------------
 -------------------------
 theory_abbreviation b3lyp
 -------------------------
 Symbolic Z-matrix:
 Charge =  0 Multiplicity = 6

 SCF Done:  E(UB3LYP) =  -3034.31464763     A.U. after   14 cycles
 Normal termination of Gaussian 16 at Tue Feb 11 23:54:08 2020.

 -------------------------------------------------------------------
 #t pop=none jul-cc-pvdz guess=read ub3lyp empiricaldispersion=gd3bj
 -------------------------------------------------------------------
 ------------------------------
 theory_abbreviation b3lyp_d3bj
 ------------------------------
 Symbolic Z-matrix:
 Charge =  0 Multiplicity = 6

 SCF Done:  E(UB3LYP) =  -3034.38572601     A.U. after    1 cycles
 Normal termination of Gaussian 16 at Tue Feb 11 23:55:17 2020.

 ----------------------------------------
 #t pop=none jul-cc-pvdz guess=read ub97d
 ----------------------------------------
 ------------------------
 theory_abbreviation b97d
 ------------------------
 Symbolic Z-matrix:
 Charge =  0 Multiplicity = 6

 SCF Done:  E(UB97D) =  -3034.56793982     A.U. after   16 cycles

 ----------------------------------------------------------------
 #t pop=none jul-cc-pvdz guess=read ub97d empiricaldispersion=gd3
 ----------------------------------------------------------------
 -------------------------
 theory_abbreviation b97d3
 -------------------------
 Symbolic Z-matrix:
 Charge =  0 Multiplicity = 6

 SCF Done:  E(UB97D) =  -3034.56987566     A.U. after    1 cycles
 SCF Done:  E(UBHandHLYP) =  -3033.95653215     A.U. after   16 cycles
 SCF Done:  E(UBHandH) =  -3026.30300609     A.U. after   15 cycles
 SCF Done:  E(ULC-wPBE) =  -3033.44135733     A.U. after   19 cycles
 SCF Done:  E(UB-P86) =  -3034.62199744     A.U. after   16 cycles
 SCF Done:  E(UmPW1LYP) =  -3034.03277307     A.U. after   15 cycles
 SCF Done:  E(UmPW1PBE) =  -3033.87528240     A.U. after   15 cycles
 SCF Done:  E(UmPW3PBE) =  -3033.64784215     A.U. after   13 cycles
 SCF Done:  E(UM11) =  -3033.79817515     A.U. after   17 cycles
 SCF Done:  E(UN12SX) =  -3033.24024450     A.U. after   17 cycles
 SCF Done:  E(UMN12SX) =  -3033.64063379     A.U. after   16 cycles
 SCF Done:  E(UB1B95) =  -3034.37106565     A.U. after   15 cycles
 Normal termination of Gaussian 16 at Wed Feb 12 08:11:52 2020.
 SCF Done:  E(UB3PW91) =  -3033.96329039     A.U. after   15 cycles
 Normal termination of Gaussian 16 at Wed Feb 12 08:27:25 2020.
 SCF Done:  E(UM06L) =  -3034.18323927     A.U. after   17 cycles
 Normal termination of Gaussian 16 at Wed Feb 12 08:46:36 2020.
 Gaussian 16:  ES64L-G16RevA.03 25-Dec-2016

                         Standard orientation:
 ---------------------------------------------------------------------
 Center     Atomic      Atomic             Coordinates (Angstroms)
 Number     Number       Type             X           Y           Z
 ---------------------------------------------------------------------
      1          8           0       -0.352925   -0.074243   -0.515366
      2          6           0       -1.219179   -1.033330   -0.476761
      3          6           0       -3.153277    0.048379   -0.087316
      4          6           0       -2.224452    1.045191   -0.225026
      5          6           0       -2.018278    1.728675   -1.541926
      6         26           0        1.456933    0.057944    0.059407
      7         17           0        2.078008    1.979735   -0.793187
      8          6           0       -1.588369    1.716209    0.955614
      9         17           0        2.361352   -1.762129   -0.785593
     10         17           0        1.441306    0.029108    2.263036
     11          1           0       -3.683296   -0.255178   -0.987526
     12          1           0       -2.304558    2.454271    1.344116
     13          1           0       -1.349540    1.030416    1.769706
     14          1           0       -0.678218    2.247541    0.671470
     15          1           0       -2.503880    2.712668   -1.474794
     16          1           0       -0.958447    1.899685   -1.744264
     17          1           0       -2.478631    1.192137   -2.374951
     18          6           0       -3.775388   -0.402374    1.206493
     19          1           0       -4.704029    0.158052    1.380204
     20          1           0       -4.047417   -1.462429    1.178503
     21          1           0       -3.130658   -0.237937    2.072544
     22          6           0       -1.209837   -1.942628    0.717243
     23          1           0       -2.085946   -2.589893    0.763472
     24          1           0       -0.319300   -2.576541    0.590239
     25          1           0       -1.077608   -1.392172    1.649045
     26          6           0       -1.602447   -1.639373   -1.798589
     27          1           0       -0.738306   -2.251560   -2.096048
     28          1           0       -2.481622   -2.282662   -1.727619
     29          1           0       -1.739347   -0.877619   -2.566477
 ---------------------------------------------------------------------

 SCF Done:  E(UB97D3) =  -3034.60600493     A.U. after   16 cycles
 Normal termination of Gaussian 16 at Wed Feb 12 08:59:26 2020.
