 Gaussian 16, Revision A.03,

 --------------------------------
 #t pop=none jul-cc-pvdz upbe1pbe
 --------------------------------
 ------------------------
 theory_abbreviation pbe0
 ------------------------
 Symbolic Z-matrix:
 Charge =  0 Multiplicity = 6

 SCF Done:  E(UPBE1PBE) =  -3033.12420817     A.U. after   19 cycles
 Normal termination of Gaussian 16 at Tue Feb 11 14:47:08 2020.

 ---------------------------------------------------------------------
 #t pop=none jul-cc-pvdz guess=read upbe1pbe empiricaldispersion=gd3bj
 ---------------------------------------------------------------------
 -----------------------------
 theory_abbreviation pbe0_d3bj
 -----------------------------
 Symbolic Z-matrix:
 Charge =  0 Multiplicity = 6

 SCF Done:  E(UPBE1PBE) =  -3033.16150995     A.U. after    1 cycles
 Normal termination of Gaussian 16 at Tue Feb 11 14:48:24 2020.

 -----------------------------------------
 #t pop=none jul-cc-pvdz guess=read ub3lyp
 -----------------------------------------
 -------------------------
 theory_abbreviation b3lyp
 -------------------------
 Symbolic Z-matrix:
 Charge =  0 Multiplicity = 6

 SCF Done:  E(UB3LYP) =  -3034.34083949     A.U. after   13 cycles
 Normal termination of Gaussian 16 at Tue Feb 11 15:03:06 2020.

 -------------------------------------------------------------------
 #t pop=none jul-cc-pvdz guess=read ub3lyp empiricaldispersion=gd3bj
 -------------------------------------------------------------------
 ------------------------------
 theory_abbreviation b3lyp_d3bj
 ------------------------------
 Symbolic Z-matrix:
 Charge =  0 Multiplicity = 6

 SCF Done:  E(UB3LYP) =  -3034.41016339     A.U. after    1 cycles
 Normal termination of Gaussian 16 at Tue Feb 11 15:04:22 2020.

 ----------------------------------------
 #t pop=none jul-cc-pvdz guess=read ub97d
 ----------------------------------------
 ------------------------
 theory_abbreviation b97d
 ------------------------
 Symbolic Z-matrix:
 Charge =  0 Multiplicity = 6

 SCF Done:  E(UB97D) =  -3034.59277368     A.U. after   15 cycles

 ----------------------------------------------------------------
 #t pop=none jul-cc-pvdz guess=read ub97d empiricaldispersion=gd3
 ----------------------------------------------------------------
 -------------------------
 theory_abbreviation b97d3
 -------------------------
 Symbolic Z-matrix:
 Charge =  0 Multiplicity = 6

 SCF Done:  E(UB97D) =  -3034.59480647     A.U. after    1 cycles
 SCF Done:  E(UBHandHLYP) =  -3033.98273797     A.U. after   15 cycles
 SCF Done:  E(UBHandH) =  -3026.32342201     A.U. after   14 cycles
 SCF Done:  E(ULC-wPBE) =  -3033.46559631     A.U. after   17 cycles
 SCF Done:  E(UB-P86) =  -3034.64388886     A.U. after   18 cycles
 SCF Done:  E(UmPW1LYP) =  -3034.05909772     A.U. after   14 cycles
 SCF Done:  E(UmPW1PBE) =  -3033.89869722     A.U. after   14 cycles
 SCF Done:  E(UmPW3PBE) =  -3033.67152560     A.U. after   13 cycles
 SCF Done:  E(UM11) =  -3033.82276878     A.U. after   16 cycles
 SCF Done:  E(UN12SX) =  -3033.26296670     A.U. after   17 cycles
 SCF Done:  E(UMN12SX) =  -3033.66500619     A.U. after   16 cycles
 SCF Done:  E(UB1B95) =  -3034.39488434     A.U. after   14 cycles
 Normal termination of Gaussian 16 at Tue Feb 11 23:51:09 2020.
 SCF Done:  E(UB3PW91) =  -3033.98744344     A.U. after   15 cycles
 Normal termination of Gaussian 16 at Wed Feb 12 00:06:53 2020.
 SCF Done:  E(UM06L) =  -3034.21003023     A.U. after   17 cycles
 Normal termination of Gaussian 16 at Wed Feb 12 00:24:57 2020.
 Gaussian 16:  ES64L-G16RevA.03 25-Dec-2016

                         Standard orientation:
 ---------------------------------------------------------------------
 Center     Atomic      Atomic             Coordinates (Angstroms)
 Number     Number       Type             X           Y           Z
 ---------------------------------------------------------------------
      1          8           0       -0.296901   -0.207357   -0.710299
      2          6           0       -1.105278   -1.168892   -0.601558
      3          6           0       -3.219270    0.028318    0.173179
      4          6           0       -2.408403    1.036997   -0.217230
      5          6           0       -2.423454    1.554881   -1.626770
      6         26           0        1.472289    0.098954    0.055272
      7         17           0        2.104646    1.982599   -0.839951
      8          6           0       -1.560937    1.833602    0.731983
      9         17           0        2.515088   -1.704280   -0.632290
     10         17           0        1.310432    0.149815    2.244238
     11          1           0       -3.870367   -0.409406   -0.582603
     12          1           0       -2.128670    2.717174    1.055636
     13          1           0       -1.266934    1.284697    1.627329
     14          1           0       -0.657503    2.205026    0.239602
     15          1           0       -2.707356    2.615304   -1.618441
     16          1           0       -1.422346    1.503022   -2.070048
     17          1           0       -3.135785    1.023138   -2.263830
     18          6           0       -3.502337   -0.397051    1.587625
     19          1           0       -4.417630    0.092749    1.947325
     20          1           0       -3.676409   -1.475839    1.661800
     21          1           0       -2.700838   -0.132850    2.281937
     22          6           0       -1.049510   -2.068066    0.593593
     23          1           0       -1.945297   -2.680667    0.695660
     24          1           0       -0.190900   -2.735813    0.424255
     25          1           0       -0.848823   -1.511516    1.509481
     26          6           0       -1.752491   -1.683899   -1.852391
     27          1           0       -1.026982   -2.386720   -2.289098
     28          1           0       -2.675592   -2.229345   -1.652004
     29          1           0       -1.915618   -0.886540   -2.576216
 ---------------------------------------------------------------------

 SCF Done:  E(UB97D3) =  -3034.62993973     A.U. after   17 cycles
 Normal termination of Gaussian 16 at Wed Feb 12 00:37:51 2020.
