 Gaussian 16, Revision A.03,

 --------------------------------
 #t pop=none jul-cc-pvdz upbe1pbe
 --------------------------------
 ------------------------
 theory_abbreviation pbe0
 ------------------------
 Symbolic Z-matrix:
 Charge =  0 Multiplicity = 6

 SCF Done:  E(UPBE1PBE) =  -3033.10200556     A.U. after   20 cycles
 Normal termination of Gaussian 16 at Tue Feb 11 13:58:02 2020.

 ---------------------------------------------------------------------
 #t pop=none jul-cc-pvdz guess=read upbe1pbe empiricaldispersion=gd3bj
 ---------------------------------------------------------------------
 -----------------------------
 theory_abbreviation pbe0_d3bj
 -----------------------------
 Symbolic Z-matrix:
 Charge =  0 Multiplicity = 6

 SCF Done:  E(UPBE1PBE) =  -3033.13888592     A.U. after    1 cycles
 Normal termination of Gaussian 16 at Tue Feb 11 13:59:13 2020.

 -----------------------------------------
 #t pop=none jul-cc-pvdz guess=read ub3lyp
 -----------------------------------------
 -------------------------
 theory_abbreviation b3lyp
 -------------------------
 Symbolic Z-matrix:
 Charge =  0 Multiplicity = 6

 SCF Done:  E(UB3LYP) =  -3034.31593760     A.U. after   13 cycles
 Normal termination of Gaussian 16 at Tue Feb 11 14:13:13 2020.

 -------------------------------------------------------------------
 #t pop=none jul-cc-pvdz guess=read ub3lyp empiricaldispersion=gd3bj
 -------------------------------------------------------------------
 ------------------------------
 theory_abbreviation b3lyp_d3bj
 ------------------------------
 Symbolic Z-matrix:
 Charge =  0 Multiplicity = 6

 SCF Done:  E(UB3LYP) =  -3034.38451020     A.U. after    1 cycles
 Normal termination of Gaussian 16 at Tue Feb 11 14:14:25 2020.

 ----------------------------------------
 #t pop=none jul-cc-pvdz guess=read ub97d
 ----------------------------------------
 ------------------------
 theory_abbreviation b97d
 ------------------------
 Symbolic Z-matrix:
 Charge =  0 Multiplicity = 6

 SCF Done:  E(UB97D) =  -3034.56751156     A.U. after   16 cycles

 ----------------------------------------------------------------
 #t pop=none jul-cc-pvdz guess=read ub97d empiricaldispersion=gd3
 ----------------------------------------------------------------
 -------------------------
 theory_abbreviation b97d3
 -------------------------
 Symbolic Z-matrix:
 Charge =  0 Multiplicity = 6

 SCF Done:  E(UB97D) =  -3034.56849078     A.U. after    1 cycles
 SCF Done:  E(UBHandHLYP) =  -3033.95624092     A.U. after   17 cycles
 SCF Done:  E(UBHandH) =  -3026.30106100     A.U. after   14 cycles
 SCF Done:  E(ULC-wPBE) =  -3033.44466555     A.U. after   18 cycles
 SCF Done:  E(UB-P86) =  -3034.62338431     A.U. after   16 cycles
 SCF Done:  E(UmPW1LYP) =  -3034.03388971     A.U. after   14 cycles
 SCF Done:  E(UmPW1PBE) =  -3033.87655731     A.U. after   15 cycles
 SCF Done:  E(UmPW3PBE) =  -3033.64920090     A.U. after   14 cycles
 SCF Done:  E(UM11) =  -3033.79628281     A.U. after   16 cycles
 SCF Done:  E(UN12SX) =  -3033.24235291     A.U. after   16 cycles
 SCF Done:  E(UMN12SX) =  -3033.63714482     A.U. after   15 cycles
 SCF Done:  E(UB1B95) =  -3034.36802272     A.U. after   15 cycles
 Normal termination of Gaussian 16 at Tue Feb 11 22:45:04 2020.
 SCF Done:  E(UB3PW91) =  -3033.96464834     A.U. after   14 cycles
 Normal termination of Gaussian 16 at Tue Feb 11 23:01:32 2020.
 SCF Done:  E(UM06L) =  -3034.17894667     A.U. after   18 cycles
 Normal termination of Gaussian 16 at Tue Feb 11 23:21:32 2020.
 Gaussian 16:  ES64L-G16RevA.03 25-Dec-2016

                         Standard orientation:
 ---------------------------------------------------------------------
 Center     Atomic      Atomic             Coordinates (Angstroms)
 Number     Number       Type             X           Y           Z
 ---------------------------------------------------------------------
      1          8           0       -0.423676   -0.158071   -0.483306
      2          6           0       -1.370250   -1.230992   -0.367873
      3          6           0       -2.873907   -0.084374   -0.182718
      4          6           0       -1.967263    1.099498   -0.293969
      5          6           0       -1.856132    1.795551   -1.604065
      6         26           0        1.376547    0.053734    0.048663
      7         17           0        1.857284    2.012960   -0.850941
      8          6           0       -1.566491    1.865672    0.916162
      9         17           0        2.432610   -1.704529   -0.730159
     10         17           0        1.367567    0.154257    2.257683
     11          1           0       -3.466344   -0.217938   -1.089266
     12          1           0       -2.420611    2.508015    1.182892
     13          1           0       -1.350664    1.222827    1.769791
     14          1           0       -0.704523    2.505037    0.715345
     15          1           0       -2.646690    2.562856   -1.625906
     16          1           0       -0.889299    2.294154   -1.706104
     17          1           0       -2.021246    1.116744   -2.442528
     18          6           0       -3.681919   -0.284048    1.081462
     19          1           0       -4.459699    0.483395    1.185833
     20          1           0       -4.184885   -1.255312    1.048385
     21          1           0       -3.065472   -0.259755    1.983353
     22          6           0       -1.166925   -2.071157    0.863917
     23          1           0       -1.980205   -2.793448    0.983789
     24          1           0       -0.228187   -2.630184    0.753693
     25          1           0       -1.080809   -1.461581    1.765086
     26          6           0       -1.462987   -2.002274   -1.658854
     27          1           0       -0.499106   -2.496543   -1.836401
     28          1           0       -2.246089   -2.765578   -1.608246
     29          1           0       -1.658595   -1.338172   -2.504794
 ---------------------------------------------------------------------

 SCF Done:  E(UB97D3) =  -3034.60352505     A.U. after   16 cycles
 Normal termination of Gaussian 16 at Tue Feb 11 23:34:26 2020.
