 Gaussian 16, Revision A.03,

 --------------------------------
 #t pop=none jul-cc-pvdz upbe1pbe
 --------------------------------
 ------------------------
 theory_abbreviation pbe0
 ------------------------
 Symbolic Z-matrix:
 Charge =  0 Multiplicity = 6

 SCF Done:  E(UPBE1PBE) =  -3033.10455106     A.U. after   21 cycles
 Normal termination of Gaussian 16 at Tue Feb 11 14:46:20 2020.

 ---------------------------------------------------------------------
 #t pop=none jul-cc-pvdz guess=read upbe1pbe empiricaldispersion=gd3bj
 ---------------------------------------------------------------------
 -----------------------------
 theory_abbreviation pbe0_d3bj
 -----------------------------
 Symbolic Z-matrix:
 Charge =  0 Multiplicity = 6

 SCF Done:  E(UPBE1PBE) =  -3033.14179285     A.U. after    1 cycles
 Normal termination of Gaussian 16 at Tue Feb 11 14:47:31 2020.

 -----------------------------------------
 #t pop=none jul-cc-pvdz guess=read ub3lyp
 -----------------------------------------
 -------------------------
 theory_abbreviation b3lyp
 -------------------------
 Symbolic Z-matrix:
 Charge =  0 Multiplicity = 6

 SCF Done:  E(UB3LYP) =  -3034.31650431     A.U. after   14 cycles
 Normal termination of Gaussian 16 at Tue Feb 11 15:02:25 2020.

 -------------------------------------------------------------------
 #t pop=none jul-cc-pvdz guess=read ub3lyp empiricaldispersion=gd3bj
 -------------------------------------------------------------------
 ------------------------------
 theory_abbreviation b3lyp_d3bj
 ------------------------------
 Symbolic Z-matrix:
 Charge =  0 Multiplicity = 6

 SCF Done:  E(UB3LYP) =  -3034.38592282     A.U. after    1 cycles
 Normal termination of Gaussian 16 at Tue Feb 11 15:03:36 2020.

 ----------------------------------------
 #t pop=none jul-cc-pvdz guess=read ub97d
 ----------------------------------------
 ------------------------
 theory_abbreviation b97d
 ------------------------
 Symbolic Z-matrix:
 Charge =  0 Multiplicity = 6

 SCF Done:  E(UB97D) =  -3034.56777363     A.U. after   16 cycles

 ----------------------------------------------------------------
 #t pop=none jul-cc-pvdz guess=read ub97d empiricaldispersion=gd3
 ----------------------------------------------------------------
 -------------------------
 theory_abbreviation b97d3
 -------------------------
 Symbolic Z-matrix:
 Charge =  0 Multiplicity = 6

 SCF Done:  E(UB97D) =  -3034.56809618     A.U. after    1 cycles
 SCF Done:  E(UBHandHLYP) =  -3033.96136135     A.U. after   17 cycles
 SCF Done:  E(UBHandH) =  -3026.30987672     A.U. after   13 cycles
 SCF Done:  E(ULC-wPBE) =  -3033.44767819     A.U. after   18 cycles
 SCF Done:  E(UB-P86) =  -3034.62149706     A.U. after   16 cycles
 SCF Done:  E(UmPW1LYP) =  -3034.03517658     A.U. after   13 cycles
 SCF Done:  E(UmPW1PBE) =  -3033.87885811     A.U. after   13 cycles
 SCF Done:  E(UmPW3PBE) =  -3033.65076263     A.U. after   13 cycles
 SCF Done:  E(UM11) =  -3033.80292570     A.U. after   17 cycles
 SCF Done:  E(UN12SX) =  -3033.24473345     A.U. after   15 cycles
 SCF Done:  E(UMN12SX) =  -3033.64292928     A.U. after   16 cycles
 SCF Done:  E(UB1B95) =  -3034.37182162     A.U. after   15 cycles
 Normal termination of Gaussian 16 at Tue Feb 11 23:18:27 2020.
 SCF Done:  E(UB3PW91) =  -3033.96600046     A.U. after   13 cycles
 Normal termination of Gaussian 16 at Tue Feb 11 23:31:48 2020.
 SCF Done:  E(UM06L) =  -3034.18368640     A.U. after   18 cycles
 Normal termination of Gaussian 16 at Tue Feb 11 23:51:36 2020.
 Gaussian 16:  ES64L-G16RevA.03 25-Dec-2016

                         Standard orientation:
 ---------------------------------------------------------------------
 Center     Atomic      Atomic             Coordinates (Angstroms)
 Number     Number       Type             X           Y           Z
 ---------------------------------------------------------------------
      1          8           0       -0.329726   -0.192606   -0.688473
      2          6           0       -1.311381   -1.124190   -0.530595
      3          6           0       -2.702942   -0.301306    0.260871
      4          6           0       -2.330321    1.015519   -0.142492
      5          6           0       -2.670669    1.550316   -1.480416
      6         26           0        1.373779    0.095511   -0.014157
      7         17           0        1.824357    2.138269   -0.737361
      8          6           0       -1.576491    1.918593    0.746091
      9         17           0        2.691814   -1.512398   -0.729208
     10         17           0        1.152459    0.061527    2.216080
     11          1           0       -3.555474   -0.685059   -0.300973
     12          1           0       -2.338561    2.505006    1.290265
     13          1           0       -0.977430    1.395037    1.491522
     14          1           0       -0.951236    2.617449    0.184534
     15          1           0       -3.004084    2.591052   -1.387641
     16          1           0       -1.732905    1.582075   -2.054584
     17          1           0       -3.416810    0.963371   -2.015888
     18          6           0       -2.801335   -0.590801    1.754685
     19          1           0       -3.586145    0.025343    2.208318
     20          1           0       -3.068855   -1.636929    1.916691
     21          1           0       -1.865569   -0.397008    2.282890
     22          6           0       -0.921117   -2.291641    0.364308
     23          1           0       -1.735867   -3.010944    0.484897
     24          1           0       -0.084907   -2.793836   -0.137882
     25          1           0       -0.565579   -1.962255    1.340554
     26          6           0       -1.820676   -1.609843   -1.885410
     27          1           0       -0.987512   -2.131265   -2.368999
     28          1           0       -2.659081   -2.305405   -1.782690
     29          1           0       -2.107546   -0.784729   -2.539094
 ---------------------------------------------------------------------

 SCF Done:  E(UB97D3) =  -3034.60270479     A.U. after   14 cycles
 Normal termination of Gaussian 16 at Wed Feb 12 00:03:32 2020.
