 Gaussian 16, Revision A.03,

 --------------------------------
 #t pop=none jul-cc-pvdz upbe1pbe
 --------------------------------
 ------------------------
 theory_abbreviation pbe0
 ------------------------
 Symbolic Z-matrix:
 Charge =  0 Multiplicity = 6

 SCF Done:  E(UPBE1PBE) =  -3033.11742701     A.U. after   21 cycles
 Normal termination of Gaussian 16 at Tue Feb 11 14:01:04 2020.

 ---------------------------------------------------------------------
 #t pop=none jul-cc-pvdz guess=read upbe1pbe empiricaldispersion=gd3bj
 ---------------------------------------------------------------------
 -----------------------------
 theory_abbreviation pbe0_d3bj
 -----------------------------
 Symbolic Z-matrix:
 Charge =  0 Multiplicity = 6

 SCF Done:  E(UPBE1PBE) =  -3033.15370599     A.U. after    1 cycles
 Normal termination of Gaussian 16 at Tue Feb 11 14:02:14 2020.

 -----------------------------------------
 #t pop=none jul-cc-pvdz guess=read ub3lyp
 -----------------------------------------
 -------------------------
 theory_abbreviation b3lyp
 -------------------------
 Symbolic Z-matrix:
 Charge =  0 Multiplicity = 6

 SCF Done:  E(UB3LYP) =  -3034.33247776     A.U. after   15 cycles
 Normal termination of Gaussian 16 at Tue Feb 11 14:17:56 2020.

 -------------------------------------------------------------------
 #t pop=none jul-cc-pvdz guess=read ub3lyp empiricaldispersion=gd3bj
 -------------------------------------------------------------------
 ------------------------------
 theory_abbreviation b3lyp_d3bj
 ------------------------------
 Symbolic Z-matrix:
 Charge =  0 Multiplicity = 6

 SCF Done:  E(UB3LYP) =  -3034.40011371     A.U. after    1 cycles
 Normal termination of Gaussian 16 at Tue Feb 11 14:19:06 2020.

 ----------------------------------------
 #t pop=none jul-cc-pvdz guess=read ub97d
 ----------------------------------------
 ------------------------
 theory_abbreviation b97d
 ------------------------
 Symbolic Z-matrix:
 Charge =  0 Multiplicity = 6

 SCF Done:  E(UB97D) =  -3034.58513062     A.U. after   16 cycles

 ----------------------------------------------------------------
 #t pop=none jul-cc-pvdz guess=read ub97d empiricaldispersion=gd3
 ----------------------------------------------------------------
 -------------------------
 theory_abbreviation b97d3
 -------------------------
 Symbolic Z-matrix:
 Charge =  0 Multiplicity = 6

 SCF Done:  E(UB97D) =  -3034.58599202     A.U. after    3 cycles
 SCF Done:  E(UBHandHLYP) =  -3033.97172288     A.U. after   17 cycles
 SCF Done:  E(UBHandH) =  -3026.31592664     A.U. after   16 cycles
 SCF Done:  E(ULC-wPBE) =  -3033.45482012     A.U. after   18 cycles
 SCF Done:  E(UB-P86) =  -3034.63696005     A.U. after   17 cycles
 SCF Done:  E(UmPW1LYP) =  -3034.05014263     A.U. after   16 cycles
 SCF Done:  E(UmPW1PBE) =  -3033.89202646     A.U. after   16 cycles
 SCF Done:  E(UmPW3PBE) =  -3033.66497196     A.U. after   13 cycles
 SCF Done:  E(UM11) =  -3033.81312971     A.U. after   19 cycles
 SCF Done:  E(UN12SX) =  -3033.25671391     A.U. after   17 cycles
 SCF Done:  E(UMN12SX) =  -3033.65348976     A.U. after   17 cycles
 SCF Done:  E(UB1B95) =  -3034.38544846     A.U. after   16 cycles
 Normal termination of Gaussian 16 at Tue Feb 11 23:10:41 2020.
 SCF Done:  E(UB3PW91) =  -3033.98066835     A.U. after   15 cycles
 Normal termination of Gaussian 16 at Tue Feb 11 23:26:20 2020.
 SCF Done:  E(UM06L) =  -3034.19739047     A.U. after   16 cycles
 Normal termination of Gaussian 16 at Tue Feb 11 23:44:09 2020.
 Gaussian 16:  ES64L-G16RevA.03 25-Dec-2016

                         Standard orientation:
 ---------------------------------------------------------------------
 Center     Atomic      Atomic             Coordinates (Angstroms)
 Number     Number       Type             X           Y           Z
 ---------------------------------------------------------------------
      1          8           0       -0.315563   -0.173948   -0.481144
      2          6           0       -1.161755   -1.130811   -0.271518
      3          6           0       -2.661277   -0.280893    0.838246
      4          6           0       -2.995515    0.704441   -0.070244
      5          6           0       -4.052635    0.500137   -1.106011
      6         26           0        1.518572    0.177036   -0.090996
      7         17           0        1.837926    2.145443   -0.998331
      8          6           0       -2.254678    1.989604   -0.104813
      9         17           0        2.555364   -1.516754   -1.029410
     10         17           0        1.777169    0.201552    2.098182
     11          1           0       -3.320804   -1.148111    0.856326
     12          1           0       -2.719564    2.726501   -0.763359
     13          1           0       -2.109450    2.419067    0.890851
     14          1           0       -1.243409    1.764528   -0.490364
     15          1           0       -4.875771    1.198316   -0.897272
     16          1           0       -3.685352    0.755485   -2.107882
     17          1           0       -4.458291   -0.513425   -1.111080
     18          6           0       -1.989495    0.072815    2.151684
     19          1           0       -2.590846    0.814781    2.689974
     20          1           0       -1.898452   -0.803377    2.795494
     21          1           0       -0.990102    0.491077    2.010467
     22          6           0       -0.755254   -2.204759    0.725356
     23          1           0       -1.588314   -2.852172    1.008266
     24          1           0       -0.002182   -2.813348    0.207016
     25          1           0       -0.279632   -1.784712    1.610588
     26          6           0       -1.830778   -1.670480   -1.521350
     27          1           0       -1.093038   -2.321380   -2.006857
     28          1           0       -2.719221   -2.267219   -1.300550
     29          1           0       -2.073435   -0.871800   -2.222149
 ---------------------------------------------------------------------

 SCF Done:  E(UB97D3) =  -3034.62073358     A.U. after   15 cycles
 Normal termination of Gaussian 16 at Tue Feb 11 23:56:02 2020.
