 Gaussian 16, Revision A.03,

 --------------------------------
 #t pop=none jul-cc-pvdz upbe1pbe
 --------------------------------
 ------------------------
 theory_abbreviation pbe0
 ------------------------
 Symbolic Z-matrix:
 Charge =  0 Multiplicity = 6

 SCF Done:  E(UPBE1PBE) =  -3033.10935624     A.U. after   21 cycles
 Normal termination of Gaussian 16 at Tue Feb 11 13:56:25 2020.

 ---------------------------------------------------------------------
 #t pop=none jul-cc-pvdz guess=read upbe1pbe empiricaldispersion=gd3bj
 ---------------------------------------------------------------------
 -----------------------------
 theory_abbreviation pbe0_d3bj
 -----------------------------
 Symbolic Z-matrix:
 Charge =  0 Multiplicity = 6

 SCF Done:  E(UPBE1PBE) =  -3033.14582744     A.U. after    1 cycles
 Normal termination of Gaussian 16 at Tue Feb 11 13:57:35 2020.

 -----------------------------------------
 #t pop=none jul-cc-pvdz guess=read ub3lyp
 -----------------------------------------
 -------------------------
 theory_abbreviation b3lyp
 -------------------------
 Symbolic Z-matrix:
 Charge =  0 Multiplicity = 6

 SCF Done:  E(UB3LYP) =  -3034.31978614     A.U. after   15 cycles
 Normal termination of Gaussian 16 at Tue Feb 11 14:13:19 2020.

 -------------------------------------------------------------------
 #t pop=none jul-cc-pvdz guess=read ub3lyp empiricaldispersion=gd3bj
 -------------------------------------------------------------------
 ------------------------------
 theory_abbreviation b3lyp_d3bj
 ------------------------------
 Symbolic Z-matrix:
 Charge =  0 Multiplicity = 6

 SCF Done:  E(UB3LYP) =  -3034.38790164     A.U. after    1 cycles
 Normal termination of Gaussian 16 at Tue Feb 11 14:14:28 2020.

 ----------------------------------------
 #t pop=none jul-cc-pvdz guess=read ub97d
 ----------------------------------------
 ------------------------
 theory_abbreviation b97d
 ------------------------
 Symbolic Z-matrix:
 Charge =  0 Multiplicity = 6

 SCF Done:  E(UB97D) =  -3034.57162449     A.U. after   16 cycles

 ----------------------------------------------------------------
 #t pop=none jul-cc-pvdz guess=read ub97d empiricaldispersion=gd3
 ----------------------------------------------------------------
 -------------------------
 theory_abbreviation b97d3
 -------------------------
 Symbolic Z-matrix:
 Charge =  0 Multiplicity = 6

 SCF Done:  E(UB97D) =  -3034.57190185     A.U. after    1 cycles
 SCF Done:  E(UBHandHLYP) =  -3033.96208063     A.U. after   16 cycles
 SCF Done:  E(UBHandH) =  -3026.31419542     A.U. after   13 cycles
 SCF Done:  E(ULC-wPBE) =  -3033.45130541     A.U. after   17 cycles
 SCF Done:  E(UB-P86) =  -3034.62719756     A.U. after   17 cycles
 SCF Done:  E(UmPW1LYP) =  -3034.03753935     A.U. after   15 cycles
 SCF Done:  E(UmPW1PBE) =  -3033.88375369     A.U. after   15 cycles
 SCF Done:  E(UmPW3PBE) =  -3033.65594392     A.U. after   14 cycles
 SCF Done:  E(UM11) =  -3033.80285285     A.U. after   17 cycles
 SCF Done:  E(UN12SX) =  -3033.24853848     A.U. after   16 cycles
 SCF Done:  E(UMN12SX) =  -3033.64297065     A.U. after   16 cycles
 SCF Done:  E(UB1B95) =  -3034.37490116     A.U. after   16 cycles
 Normal termination of Gaussian 16 at Tue Feb 11 22:40:36 2020.
 SCF Done:  E(UB3PW91) =  -3033.97111644     A.U. after   14 cycles
 Normal termination of Gaussian 16 at Tue Feb 11 22:56:23 2020.
 SCF Done:  E(UM06L) =  -3034.18605400     A.U. after   17 cycles
 Normal termination of Gaussian 16 at Tue Feb 11 23:15:01 2020.
 Gaussian 16:  ES64L-G16RevA.03 25-Dec-2016

                         Standard orientation:
 ---------------------------------------------------------------------
 Center     Atomic      Atomic             Coordinates (Angstroms)
 Number     Number       Type             X           Y           Z
 ---------------------------------------------------------------------
      1          8           0       -0.335668   -0.063938   -0.403559
      2          6           0       -1.290664   -1.042019   -0.250820
      3          6           0       -2.475483   -0.465340    0.656731
      4          6           0       -2.940280    0.734759   -0.028644
      5          6           0       -4.118789    0.686758   -0.928172
      6         26           0        1.490007    0.171005   -0.077616
      7         17           0        1.764240    2.258775   -0.741896
      8          6           0       -2.127656    1.912698    0.021252
      9         17           0        2.547585   -1.369152   -1.239776
     10         17           0        1.800340   -0.036444    2.107948
     11          1           0       -3.257611   -1.230882    0.632004
     12          1           0       -2.480892    2.772837   -0.545669
     13          1           0       -1.737217    2.177887    1.006690
     14          1           0       -1.181838    1.438647   -0.446301
     15          1           0       -4.954123    1.150798   -0.377765
     16          1           0       -3.970236    1.293975   -1.827593
     17          1           0       -4.416743   -0.329065   -1.192068
     18          6           0       -2.001099   -0.215890    2.102268
     19          1           0       -2.711104    0.422760    2.636782
     20          1           0       -1.938299   -1.163486    2.639611
     21          1           0       -1.013072    0.247953    2.127561
     22          6           0       -0.726489   -2.274753    0.484532
     23          1           0       -1.514456   -3.005512    0.694189
     24          1           0        0.019648   -2.736820   -0.168127
     25          1           0       -0.229607   -1.995794    1.414221
     26          6           0       -1.797996   -1.463819   -1.641316
     27          1           0       -0.967958   -1.934612   -2.174428
     28          1           0       -2.624083   -2.181398   -1.580297
     29          1           0       -2.113310   -0.600325   -2.233996
 ---------------------------------------------------------------------

 SCF Done:  E(UB97D3) =  -3034.60695347     A.U. after   16 cycles
 Normal termination of Gaussian 16 at Tue Feb 11 23:27:47 2020.
