 Gaussian 16, Revision A.03,

 --------------------------------
 #t pop=none jul-cc-pvdz upbe1pbe
 --------------------------------
 ------------------------
 theory_abbreviation pbe0
 ------------------------
 Symbolic Z-matrix:
 Charge =  0 Multiplicity = 6

 SCF Done:  E(UPBE1PBE) =  -3033.11892569     A.U. after   21 cycles
 Normal termination of Gaussian 16 at Tue Feb 11 20:06:18 2020.

 ---------------------------------------------------------------------
 #t pop=none jul-cc-pvdz guess=read upbe1pbe empiricaldispersion=gd3bj
 ---------------------------------------------------------------------
 -----------------------------
 theory_abbreviation pbe0_d3bj
 -----------------------------
 Symbolic Z-matrix:
 Charge =  0 Multiplicity = 6

 SCF Done:  E(UPBE1PBE) =  -3033.15528474     A.U. after    1 cycles
 Normal termination of Gaussian 16 at Tue Feb 11 20:07:29 2020.

 -----------------------------------------
 #t pop=none jul-cc-pvdz guess=read ub3lyp
 -----------------------------------------
 -------------------------
 theory_abbreviation b3lyp
 -------------------------
 Symbolic Z-matrix:
 Charge =  0 Multiplicity = 6

 SCF Done:  E(UB3LYP) =  -3034.33451820     A.U. after   15 cycles
 Normal termination of Gaussian 16 at Tue Feb 11 20:23:03 2020.

 -------------------------------------------------------------------
 #t pop=none jul-cc-pvdz guess=read ub3lyp empiricaldispersion=gd3bj
 -------------------------------------------------------------------
 ------------------------------
 theory_abbreviation b3lyp_d3bj
 ------------------------------
 Symbolic Z-matrix:
 Charge =  0 Multiplicity = 6

 SCF Done:  E(UB3LYP) =  -3034.40230322     A.U. after    1 cycles
 Normal termination of Gaussian 16 at Tue Feb 11 20:24:13 2020.

 ----------------------------------------
 #t pop=none jul-cc-pvdz guess=read ub97d
 ----------------------------------------
 ------------------------
 theory_abbreviation b97d
 ------------------------
 Symbolic Z-matrix:
 Charge =  0 Multiplicity = 6

 SCF Done:  E(UB97D) =  -3034.58716863     A.U. after   17 cycles

 ----------------------------------------------------------------
 #t pop=none jul-cc-pvdz guess=read ub97d empiricaldispersion=gd3
 ----------------------------------------------------------------
 -------------------------
 theory_abbreviation b97d3
 -------------------------
 Symbolic Z-matrix:
 Charge =  0 Multiplicity = 6

 SCF Done:  E(UB97D) =  -3034.58825942     A.U. after    1 cycles
 SCF Done:  E(UBHandHLYP) =  -3033.97362251     A.U. after   17 cycles
 SCF Done:  E(UBHandH) =  -3026.31676828     A.U. after   16 cycles
 SCF Done:  E(ULC-wPBE) =  -3033.45635443     A.U. after   18 cycles
 SCF Done:  E(UB-P86) =  -3034.63877866     A.U. after   17 cycles
 SCF Done:  E(UmPW1LYP) =  -3034.05217978     A.U. after   15 cycles
 SCF Done:  E(UmPW1PBE) =  -3033.89356253     A.U. after   16 cycles
 SCF Done:  E(UmPW3PBE) =  -3033.66657394     A.U. after   12 cycles
 SCF Done:  E(UM11) =  -3033.81459620     A.U. after   19 cycles
 SCF Done:  E(UN12SX) =  -3033.25806920     A.U. after   17 cycles
 SCF Done:  E(UMN12SX) =  -3033.65530081     A.U. after   17 cycles
 SCF Done:  E(UB1B95) =  -3034.38720250     A.U. after   16 cycles
 Normal termination of Gaussian 16 at Wed Feb 12 05:15:51 2020.
 SCF Done:  E(UB3PW91) =  -3033.98235301     A.U. after   15 cycles
 Normal termination of Gaussian 16 at Wed Feb 12 05:31:25 2020.
 SCF Done:  E(UM06L) =  -3034.19927834     A.U. after   16 cycles
 Normal termination of Gaussian 16 at Wed Feb 12 05:49:14 2020.
 Gaussian 16:  ES64L-G16RevA.03 25-Dec-2016

                         Standard orientation:
 ---------------------------------------------------------------------
 Center     Atomic      Atomic             Coordinates (Angstroms)
 Number     Number       Type             X           Y           Z
 ---------------------------------------------------------------------
      1          8           0       -0.305764   -0.189974   -0.482584
      2          6           0       -1.144368   -1.140775   -0.250716
      3          6           0       -2.673249   -0.240021    0.872302
      4          6           0       -3.039802    0.687858   -0.077012
      5          6           0       -4.117474    0.417081   -1.077018
      6         26           0        1.532915    0.177339   -0.096337
      7         17           0        1.854658    2.121571   -1.047951
      8          6           0       -2.316571    1.982301   -0.192339
      9         17           0        2.556425   -1.541646   -1.001609
     10         17           0        1.799603    0.244046    2.088748
     11          1           0       -3.307078   -1.123159    0.944832
     12          1           0       -2.797779    2.671275   -0.890083
     13          1           0       -2.182622    2.473731    0.776303
     14          1           0       -1.301224    1.759315   -0.565528
     15          1           0       -4.944120    1.117523   -0.891871
     16          1           0       -3.774552    0.616147   -2.100087
     17          1           0       -4.512345   -0.599196   -1.015579
     18          6           0       -1.958999    0.179450    2.141491
     19          1           0       -2.543754    0.946506    2.662951
     20          1           0       -1.841314   -0.662435    2.825585
     21          1           0       -0.967097    0.593916    1.946405
     22          6           0       -0.752349   -2.179720    0.784294
     23          1           0       -1.590268   -2.812775    1.083759
     24          1           0        0.000365   -2.810178    0.291315
     25          1           0       -0.278393   -1.731898    1.656701
     26          6           0       -1.836081   -1.700839   -1.475995
     27          1           0       -1.112142   -2.372835   -1.954462
     28          1           0       -2.728162   -2.281064   -1.229100
     29          1           0       -2.077486   -0.915420   -2.191959
 ---------------------------------------------------------------------

 SCF Done:  E(UB97D3) =  -3034.62326527     A.U. after   15 cycles
 Normal termination of Gaussian 16 at Wed Feb 12 06:01:22 2020.
