 Gaussian 16, Revision A.03,

 --------------------------------
 #t pop=none jul-cc-pvdz upbe1pbe
 --------------------------------
 ------------------------
 theory_abbreviation pbe0
 ------------------------
 Symbolic Z-matrix:
 Charge =  0 Multiplicity = 6

 SCF Done:  E(UPBE1PBE) =  -3033.11625272     A.U. after   21 cycles
 Normal termination of Gaussian 16 at Tue Feb 11 14:48:39 2020.

 ---------------------------------------------------------------------
 #t pop=none jul-cc-pvdz guess=read upbe1pbe empiricaldispersion=gd3bj
 ---------------------------------------------------------------------
 -----------------------------
 theory_abbreviation pbe0_d3bj
 -----------------------------
 Symbolic Z-matrix:
 Charge =  0 Multiplicity = 6

 SCF Done:  E(UPBE1PBE) =  -3033.15279562     A.U. after    1 cycles
 Normal termination of Gaussian 16 at Tue Feb 11 14:49:51 2020.

 -----------------------------------------
 #t pop=none jul-cc-pvdz guess=read ub3lyp
 -----------------------------------------
 -------------------------
 theory_abbreviation b3lyp
 -------------------------
 Symbolic Z-matrix:
 Charge =  0 Multiplicity = 6

 SCF Done:  E(UB3LYP) =  -3034.33098051     A.U. after   15 cycles
 Normal termination of Gaussian 16 at Tue Feb 11 15:05:38 2020.

 -------------------------------------------------------------------
 #t pop=none jul-cc-pvdz guess=read ub3lyp empiricaldispersion=gd3bj
 -------------------------------------------------------------------
 ------------------------------
 theory_abbreviation b3lyp_d3bj
 ------------------------------
 Symbolic Z-matrix:
 Charge =  0 Multiplicity = 6

 SCF Done:  E(UB3LYP) =  -3034.39908283     A.U. after    1 cycles
 Normal termination of Gaussian 16 at Tue Feb 11 15:06:49 2020.

 ----------------------------------------
 #t pop=none jul-cc-pvdz guess=read ub97d
 ----------------------------------------
 ------------------------
 theory_abbreviation b97d
 ------------------------
 Symbolic Z-matrix:
 Charge =  0 Multiplicity = 6

 SCF Done:  E(UB97D) =  -3034.58369691     A.U. after   16 cycles

 ----------------------------------------------------------------
 #t pop=none jul-cc-pvdz guess=read ub97d empiricaldispersion=gd3
 ----------------------------------------------------------------
 -------------------------
 theory_abbreviation b97d3
 -------------------------
 Symbolic Z-matrix:
 Charge =  0 Multiplicity = 6

 SCF Done:  E(UB97D) =  -3034.58468330     A.U. after    3 cycles
 SCF Done:  E(UBHandHLYP) =  -3033.97064331     A.U. after   17 cycles
 SCF Done:  E(UBHandH) =  -3026.31559046     A.U. after   16 cycles
 SCF Done:  E(ULC-wPBE) =  -3033.45416263     A.U. after   18 cycles
 SCF Done:  E(UB-P86) =  -3034.63583979     A.U. after   17 cycles
 SCF Done:  E(UmPW1LYP) =  -3034.04873625     A.U. after   16 cycles
 SCF Done:  E(UmPW1PBE) =  -3033.89079055     A.U. after   16 cycles
 SCF Done:  E(UmPW3PBE) =  -3033.66366720     A.U. after   13 cycles
 SCF Done:  E(UM11) =  -3033.81230356     A.U. after   19 cycles
 SCF Done:  E(UN12SX) =  -3033.25558318     A.U. after   17 cycles
 SCF Done:  E(UMN12SX) =  -3033.65255097     A.U. after   17 cycles
 SCF Done:  E(UB1B95) =  -3034.38422135     A.U. after   16 cycles
 Normal termination of Gaussian 16 at Tue Feb 11 23:59:28 2020.
 SCF Done:  E(UB3PW91) =  -3033.97929286     A.U. after   15 cycles
 Normal termination of Gaussian 16 at Wed Feb 12 00:16:17 2020.
 SCF Done:  E(UM06L) =  -3034.19644321     A.U. after   17 cycles
 Normal termination of Gaussian 16 at Wed Feb 12 00:34:38 2020.
 Gaussian 16:  ES64L-G16RevA.03 25-Dec-2016

                         Standard orientation:
 ---------------------------------------------------------------------
 Center     Atomic      Atomic             Coordinates (Angstroms)
 Number     Number       Type             X           Y           Z
 ---------------------------------------------------------------------
      1          8           0       -0.326016   -0.175579   -0.545606
      2          6           0       -1.172160   -1.140369   -0.374307
      3          6           0       -2.691269   -0.337524    0.743838
      4          6           0       -2.863590    0.768256   -0.063545
      5          6           0       -3.809170    0.761267   -1.221076
      6         26           0        1.486948    0.173238   -0.069621
      7         17           0        1.841933    2.151443   -0.945078
      8          6           0       -2.068898    2.004485    0.131375
      9         17           0        2.593086   -1.501549   -0.959097
     10         17           0        1.621079    0.193911    2.132804
     11          1           0       -3.400334   -1.150511    0.590878
     12          1           0       -2.511806    2.866165   -0.373960
     13          1           0       -1.886673    2.238595    1.182674
     14          1           0       -1.080558    1.819899   -0.325406
     15          1           0       -4.603415    1.493502   -1.018970
     16          1           0       -3.312811    1.097355   -2.140419
     17          1           0       -4.276551   -0.210574   -1.389340
     18          6           0       -2.137250   -0.198578    2.149007
     19          1           0       -2.774266    0.477161    2.732016
     20          1           0       -2.126013   -1.160816    2.663668
     21          1           0       -1.121462    0.203629    2.163000
     22          6           0       -0.770843   -2.254498    0.578332
     23          1           0       -1.604622   -2.916243    0.823791
     24          1           0       -0.010347   -2.836803    0.041252
     25          1           0       -0.306637   -1.873119    1.486777
     26          6           0       -1.836213   -1.632689   -1.647204
     27          1           0       -1.097834   -2.271910   -2.146999
     28          1           0       -2.729835   -2.231552   -1.454784
     29          1           0       -2.066668   -0.811109   -2.324394
 ---------------------------------------------------------------------

 SCF Done:  E(UB97D3) =  -3034.61941664     A.U. after   15 cycles
 Normal termination of Gaussian 16 at Wed Feb 12 00:46:26 2020.
