 Gaussian 16, Revision A.03,

 --------------------------------
 #t pop=none jul-cc-pvdz upbe1pbe
 --------------------------------
 ------------------------
 theory_abbreviation pbe0
 ------------------------
 Symbolic Z-matrix:
 Charge =  0 Multiplicity = 6

 SCF Done:  E(UPBE1PBE) =  -3033.12604891     A.U. after   21 cycles
 Normal termination of Gaussian 16 at Tue Feb 11 14:47:28 2020.

 ---------------------------------------------------------------------
 #t pop=none jul-cc-pvdz guess=read upbe1pbe empiricaldispersion=gd3bj
 ---------------------------------------------------------------------
 -----------------------------
 theory_abbreviation pbe0_d3bj
 -----------------------------
 Symbolic Z-matrix:
 Charge =  0 Multiplicity = 6

 SCF Done:  E(UPBE1PBE) =  -3033.16265714     A.U. after    1 cycles
 Normal termination of Gaussian 16 at Tue Feb 11 14:48:38 2020.

 -----------------------------------------
 #t pop=none jul-cc-pvdz guess=read ub3lyp
 -----------------------------------------
 -------------------------
 theory_abbreviation b3lyp
 -------------------------
 Symbolic Z-matrix:
 Charge =  0 Multiplicity = 6

 SCF Done:  E(UB3LYP) =  -3034.34336304     A.U. after   13 cycles
 Normal termination of Gaussian 16 at Tue Feb 11 15:02:19 2020.

 -------------------------------------------------------------------
 #t pop=none jul-cc-pvdz guess=read ub3lyp empiricaldispersion=gd3bj
 -------------------------------------------------------------------
 ------------------------------
 theory_abbreviation b3lyp_d3bj
 ------------------------------
 Symbolic Z-matrix:
 Charge =  0 Multiplicity = 6

 SCF Done:  E(UB3LYP) =  -3034.41135235     A.U. after    1 cycles
 Normal termination of Gaussian 16 at Tue Feb 11 15:03:29 2020.

 ----------------------------------------
 #t pop=none jul-cc-pvdz guess=read ub97d
 ----------------------------------------
 ------------------------
 theory_abbreviation b97d
 ------------------------
 Symbolic Z-matrix:
 Charge =  0 Multiplicity = 6

 SCF Done:  E(UB97D) =  -3034.59569263     A.U. after   15 cycles

 ----------------------------------------------------------------
 #t pop=none jul-cc-pvdz guess=read ub97d empiricaldispersion=gd3
 ----------------------------------------------------------------
 -------------------------
 theory_abbreviation b97d3
 -------------------------
 Symbolic Z-matrix:
 Charge =  0 Multiplicity = 6

 SCF Done:  E(UB97D) =  -3034.59661414     A.U. after    1 cycles
 SCF Done:  E(UBHandHLYP) =  -3033.98342981     A.U. after   18 cycles
 SCF Done:  E(UBHandH) =  -3026.32285616     A.U. after   16 cycles
 SCF Done:  E(ULC-wPBE) =  -3033.46482417     A.U. after   19 cycles
 SCF Done:  E(UB-P86) =  -3034.64572511     A.U. after   16 cycles
 SCF Done:  E(UmPW1LYP) =  -3034.06135008     A.U. after   15 cycles
 SCF Done:  E(UmPW1PBE) =  -3033.90061639     A.U. after   16 cycles
 SCF Done:  E(UmPW3PBE) =  -3033.67370721     A.U. after   13 cycles
 SCF Done:  E(UM11) =  -3033.82228975     A.U. after   19 cycles
 SCF Done:  E(UN12SX) =  -3033.26484069     A.U. after   18 cycles
 SCF Done:  E(UMN12SX) =  -3033.66464435     A.U. after   16 cycles
 SCF Done:  E(UB1B95) =  -3034.39532303     A.U. after   14 cycles
 Normal termination of Gaussian 16 at Tue Feb 11 23:30:31 2020.
 SCF Done:  E(UB3PW91) =  -3033.98970964     A.U. after   16 cycles
 Normal termination of Gaussian 16 at Tue Feb 11 23:46:18 2020.
 SCF Done:  E(UM06L) =  -3034.20971653     A.U. after   18 cycles
 Normal termination of Gaussian 16 at Wed Feb 12 00:06:21 2020.
 Gaussian 16:  ES64L-G16RevA.03 25-Dec-2016

                         Standard orientation:
 ---------------------------------------------------------------------
 Center     Atomic      Atomic             Coordinates (Angstroms)
 Number     Number       Type             X           Y           Z
 ---------------------------------------------------------------------
      1          8           0        0.214742    0.321306   -0.778780
      2          6           0        1.074228    1.236081   -0.588792
      3          6           0        2.836521    0.308104    0.658483
      4          6           0        2.825821   -0.848197   -0.059749
      5          6           0        3.623682   -1.006992   -1.319963
      6         26           0       -1.505602   -0.175239   -0.034938
      7         17           0       -1.989093   -2.043088   -1.053172
      8          6           0        1.949230   -2.007320    0.294014
      9         17           0       -2.746047    1.555793   -0.543743
     10         17           0       -1.259838   -0.424449    2.136040
     11          1           0        3.534796    1.078329    0.333165
     12          1           0        2.477706   -2.957704    0.158128
     13          1           0        1.552150   -1.962236    1.308402
     14          1           0        1.093162   -2.023397   -0.398372
     15          1           0        4.339742   -1.829911   -1.194314
     16          1           0        2.979688   -1.288067   -2.164140
     17          1           0        4.186461   -0.107282   -1.579973
     18          6           0        2.384029    0.408700    2.098447
     19          1           0        3.069269   -0.162467    2.737523
     20          1           0        2.407888    1.442212    2.450511
     21          1           0        1.378099    0.018576    2.265013
     22          6           0        0.791577    2.294644    0.443548
     23          1           0        1.666702    2.903542    0.674415
     24          1           0        0.027028    2.940696   -0.011899
     25          1           0        0.361007    1.877220    1.353270
     26          6           0        1.874675    1.652595   -1.796276
     27          1           0        1.230246    2.344563   -2.356364
     28          1           0        2.792285    2.182126   -1.536173
     29          1           0        2.087533    0.803525   -2.443956
 ---------------------------------------------------------------------

 SCF Done:  E(UB97D3) =  -3034.63206931     A.U. after   15 cycles
 Normal termination of Gaussian 16 at Wed Feb 12 00:18:04 2020.
