 Gaussian 16, Revision A.03,

 --------------------------------
 #t pop=none jul-cc-pvdz upbe1pbe
 --------------------------------
 ------------------------
 theory_abbreviation pbe0
 ------------------------
 Symbolic Z-matrix:
 Charge =  0 Multiplicity = 6

 SCF Done:  E(UPBE1PBE) =  -3033.12216435     A.U. after   21 cycles
 Normal termination of Gaussian 16 at Tue Feb 11 14:00:05 2020.

 ---------------------------------------------------------------------
 #t pop=none jul-cc-pvdz guess=read upbe1pbe empiricaldispersion=gd3bj
 ---------------------------------------------------------------------
 -----------------------------
 theory_abbreviation pbe0_d3bj
 -----------------------------
 Symbolic Z-matrix:
 Charge =  0 Multiplicity = 6

 SCF Done:  E(UPBE1PBE) =  -3033.15963810     A.U. after    1 cycles
 Normal termination of Gaussian 16 at Tue Feb 11 14:01:16 2020.

 -----------------------------------------
 #t pop=none jul-cc-pvdz guess=read ub3lyp
 -----------------------------------------
 -------------------------
 theory_abbreviation b3lyp
 -------------------------
 Symbolic Z-matrix:
 Charge =  0 Multiplicity = 6

 SCF Done:  E(UB3LYP) =  -3034.33834076     A.U. after   13 cycles
 Normal termination of Gaussian 16 at Tue Feb 11 14:15:10 2020.

 -------------------------------------------------------------------
 #t pop=none jul-cc-pvdz guess=read ub3lyp empiricaldispersion=gd3bj
 -------------------------------------------------------------------
 ------------------------------
 theory_abbreviation b3lyp_d3bj
 ------------------------------
 Symbolic Z-matrix:
 Charge =  0 Multiplicity = 6

 SCF Done:  E(UB3LYP) =  -3034.40804414     A.U. after    1 cycles
 Normal termination of Gaussian 16 at Tue Feb 11 14:16:20 2020.

 ----------------------------------------
 #t pop=none jul-cc-pvdz guess=read ub97d
 ----------------------------------------
 ------------------------
 theory_abbreviation b97d
 ------------------------
 Symbolic Z-matrix:
 Charge =  0 Multiplicity = 6

 SCF Done:  E(UB97D) =  -3034.59094274     A.U. after   15 cycles

 ----------------------------------------------------------------
 #t pop=none jul-cc-pvdz guess=read ub97d empiricaldispersion=gd3
 ----------------------------------------------------------------
 -------------------------
 theory_abbreviation b97d3
 -------------------------
 Symbolic Z-matrix:
 Charge =  0 Multiplicity = 6

 SCF Done:  E(UB97D) =  -3034.59269461     A.U. after    1 cycles
 SCF Done:  E(UBHandHLYP) =  -3033.98003565     A.U. after   18 cycles
 SCF Done:  E(UBHandH) =  -3026.32185491     A.U. after   14 cycles
 SCF Done:  E(ULC-wPBE) =  -3033.46314015     A.U. after   19 cycles
 SCF Done:  E(UB-P86) =  -3034.64224889     A.U. after   16 cycles
 SCF Done:  E(UmPW1LYP) =  -3034.05655664     A.U. after   13 cycles
 SCF Done:  E(UmPW1PBE) =  -3033.89663905     A.U. after   14 cycles
 SCF Done:  E(UmPW3PBE) =  -3033.66944982     A.U. after   13 cycles
 SCF Done:  E(UM11) =  -3033.82019713     A.U. after   16 cycles
 SCF Done:  E(UN12SX) =  -3033.26100222     A.U. after   17 cycles
 SCF Done:  E(UMN12SX) =  -3033.66242007     A.U. after   16 cycles
 SCF Done:  E(UB1B95) =  -3034.39250921     A.U. after   14 cycles
 Normal termination of Gaussian 16 at Tue Feb 11 22:37:09 2020.
 SCF Done:  E(UB3PW91) =  -3033.98527816     A.U. after   13 cycles
 Normal termination of Gaussian 16 at Tue Feb 11 22:50:53 2020.
 SCF Done:  E(UM06L) =  -3034.20740175     A.U. after   17 cycles
 Normal termination of Gaussian 16 at Tue Feb 11 23:11:14 2020.
 Gaussian 16:  ES64L-G16RevA.03 25-Dec-2016

                         Standard orientation:
 ---------------------------------------------------------------------
 Center     Atomic      Atomic             Coordinates (Angstroms)
 Number     Number       Type             X           Y           Z
 ---------------------------------------------------------------------
      1          8           0       -0.294722   -0.192584   -0.717689
      2          6           0       -1.134855   -1.133962   -0.607713
      3          6           0       -3.164430   -0.014575    0.186200
      4          6           0       -2.407494    1.039764   -0.200446
      5          6           0       -2.453191    1.571328   -1.602432
      6         26           0        1.466466    0.093705    0.049701
      7         17           0        2.101317    1.993658   -0.814677
      8          6           0       -1.565908    1.843885    0.744626
      9         17           0        2.522096   -1.697781   -0.649541
     10         17           0        1.292108    0.125642    2.241343
     11          1           0       -3.820130   -0.457012   -0.562021
     12          1           0       -2.147649    2.715042    1.077527
     13          1           0       -1.254108    1.294727    1.633363
     14          1           0       -0.674191    2.233349    0.244509
     15          1           0       -2.745173    2.629076   -1.576531
     16          1           0       -1.457145    1.533229   -2.059109
     17          1           0       -3.169873    1.040063   -2.234298
     18          6           0       -3.432313   -0.440151    1.604653
     19          1           0       -4.338807    0.058893    1.973386
     20          1           0       -3.614781   -1.516717    1.679624
     21          1           0       -2.620844   -0.183159    2.289771
     22          6           0       -1.051342   -2.071937    0.558213
     23          1           0       -1.940221   -2.694623    0.658631
     24          1           0       -0.192353   -2.726686    0.346081
     25          1           0       -0.833481   -1.547601    1.488842
     26          6           0       -1.769049   -1.640519   -1.871978
     27          1           0       -1.025784   -2.318010   -2.317810
     28          1           0       -2.681189   -2.209221   -1.686465
     29          1           0       -1.946974   -0.835848   -2.584078
 ---------------------------------------------------------------------

 SCF Done:  E(UB97D3) =  -3034.62800284     A.U. after   17 cycles
 Normal termination of Gaussian 16 at Tue Feb 11 23:24:54 2020.
