 Gaussian 16, Revision A.03,

 --------------------------------
 #t pop=none jul-cc-pvdz upbe1pbe
 --------------------------------
 ------------------------
 theory_abbreviation pbe0
 ------------------------
 Symbolic Z-matrix:
 Charge =  0 Multiplicity = 6

 SCF Done:  E(UPBE1PBE) =  -3033.13292462     A.U. after   19 cycles
 Normal termination of Gaussian 16 at Tue Feb 11 23:37:24 2020.

 ---------------------------------------------------------------------
 #t pop=none jul-cc-pvdz guess=read upbe1pbe empiricaldispersion=gd3bj
 ---------------------------------------------------------------------
 -----------------------------
 theory_abbreviation pbe0_d3bj
 -----------------------------
 Symbolic Z-matrix:
 Charge =  0 Multiplicity = 6

 SCF Done:  E(UPBE1PBE) =  -3033.16976848     A.U. after    1 cycles
 Normal termination of Gaussian 16 at Tue Feb 11 23:38:32 2020.

 -----------------------------------------
 #t pop=none jul-cc-pvdz guess=read ub3lyp
 -----------------------------------------
 -------------------------
 theory_abbreviation b3lyp
 -------------------------
 Symbolic Z-matrix:
 Charge =  0 Multiplicity = 6

 SCF Done:  E(UB3LYP) =  -3034.35055926     A.U. after   13 cycles
 Normal termination of Gaussian 16 at Tue Feb 11 23:51:39 2020.

 -------------------------------------------------------------------
 #t pop=none jul-cc-pvdz guess=read ub3lyp empiricaldispersion=gd3bj
 -------------------------------------------------------------------
 ------------------------------
 theory_abbreviation b3lyp_d3bj
 ------------------------------
 Symbolic Z-matrix:
 Charge =  0 Multiplicity = 6

 SCF Done:  E(UB3LYP) =  -3034.41891385     A.U. after    1 cycles
 Normal termination of Gaussian 16 at Tue Feb 11 23:52:46 2020.

 ----------------------------------------
 #t pop=none jul-cc-pvdz guess=read ub97d
 ----------------------------------------
 ------------------------
 theory_abbreviation b97d
 ------------------------
 Symbolic Z-matrix:
 Charge =  0 Multiplicity = 6

 SCF Done:  E(UB97D) =  -3034.60231633     A.U. after   15 cycles

 ----------------------------------------------------------------
 #t pop=none jul-cc-pvdz guess=read ub97d empiricaldispersion=gd3
 ----------------------------------------------------------------
 -------------------------
 theory_abbreviation b97d3
 -------------------------
 Symbolic Z-matrix:
 Charge =  0 Multiplicity = 6

 SCF Done:  E(UB97D) =  -3034.60374552     A.U. after    1 cycles
 SCF Done:  E(UBHandHLYP) =  -3033.99216555     A.U. after   15 cycles
 SCF Done:  E(UBHandH) =  -3026.33051616     A.U. after   14 cycles
 SCF Done:  E(ULC-wPBE) =  -3033.47395895     A.U. after   19 cycles
 SCF Done:  E(UB-P86) =  -3034.65185880     A.U. after   16 cycles
 SCF Done:  E(UmPW1LYP) =  -3034.06887067     A.U. after   13 cycles
 SCF Done:  E(UmPW1PBE) =  -3033.90734243     A.U. after   13 cycles
 SCF Done:  E(UmPW3PBE) =  -3033.68030423     A.U. after   13 cycles
 SCF Done:  E(UM11) =  -3033.83155095     A.U. after   17 cycles
 SCF Done:  E(UN12SX) =  -3033.27179870     A.U. after   16 cycles
 SCF Done:  E(UMN12SX) =  -3033.67394422     A.U. after   16 cycles
 SCF Done:  E(UB1B95) =  -3034.40339921     A.U. after   14 cycles
 Normal termination of Gaussian 16 at Wed Feb 12 07:57:51 2020.
 SCF Done:  E(UB3PW91) =  -3033.99636466     A.U. after   13 cycles
 Normal termination of Gaussian 16 at Wed Feb 12 08:10:58 2020.
 SCF Done:  E(UM06L) =  -3034.21888201     A.U. after   17 cycles
 Normal termination of Gaussian 16 at Wed Feb 12 08:29:32 2020.
 Gaussian 16:  ES64L-G16RevA.03 25-Dec-2016

                         Standard orientation:
 ---------------------------------------------------------------------
 Center     Atomic      Atomic             Coordinates (Angstroms)
 Number     Number       Type             X           Y           Z
 ---------------------------------------------------------------------
      1          8           0        0.224822    0.335358   -0.853782
      2          6           0        1.027289    1.285615   -0.667454
      3          6           0        3.031163    0.130788    0.520347
      4          6           0        2.612545   -0.954903   -0.165296
      5          6           0        3.076896   -1.229596   -1.568452
      6         26           0       -1.470530   -0.151600    0.011972
      7         17           0       -2.068534   -2.000732   -0.966831
      8          6           0        1.689981   -1.996300    0.393151
      9         17           0       -2.687492    1.609570   -0.445563
     10         17           0       -1.104648   -0.358989    2.168589
     11          1           0        3.755932    0.780301    0.029613
     12          1           0        2.217997   -2.956802    0.464213
     13          1           0        1.294506   -1.751960    1.378366
     14          1           0        0.845006   -2.162624   -0.286909
     15          1           0        3.575758   -2.206487   -1.610231
     16          1           0        2.222487   -1.291288   -2.255678
     17          1           0        3.780608   -0.477042   -1.934605
     18          6           0        2.833348    0.380958    1.992986
     19          1           0        3.630944   -0.111374    2.565718
     20          1           0        2.890144    1.447298    2.230733
     21          1           0        1.879603    0.001714    2.368092
     22          6           0        0.846583    2.223807    0.485795
     23          1           0        1.732899    2.833280    0.664833
     24          1           0        0.017239    2.888656    0.200924
     25          1           0        0.544938    1.702202    1.393961
     26          6           0        1.830915    1.759889   -1.842415
     27          1           0        1.214165    2.526542   -2.334327
     28          1           0        2.769570    2.228550   -1.544189
     29          1           0        2.002550    0.958771   -2.558817
 ---------------------------------------------------------------------

 SCF Done:  E(UB97D3) =  -3034.63856262     A.U. after   16 cycles
 Normal termination of Gaussian 16 at Wed Feb 12 08:42:12 2020.
