 Gaussian 16, Revision A.03,

 --------------------------------
 #t pop=none jul-cc-pvdz upbe1pbe
 --------------------------------
 ------------------------
 theory_abbreviation pbe0
 ------------------------
 Symbolic Z-matrix:
 Charge =  0 Multiplicity = 6

 SCF Done:  E(UPBE1PBE) =  -3033.10908300     A.U. after   21 cycles
 Normal termination of Gaussian 16 at Tue Feb 11 13:56:25 2020.

 ---------------------------------------------------------------------
 #t pop=none jul-cc-pvdz guess=read upbe1pbe empiricaldispersion=gd3bj
 ---------------------------------------------------------------------
 -----------------------------
 theory_abbreviation pbe0_d3bj
 -----------------------------
 Symbolic Z-matrix:
 Charge =  0 Multiplicity = 6

 SCF Done:  E(UPBE1PBE) =  -3033.14542253     A.U. after    1 cycles
 Normal termination of Gaussian 16 at Tue Feb 11 13:57:50 2020.

 -----------------------------------------
 #t pop=none jul-cc-pvdz guess=read ub3lyp
 -----------------------------------------
 -------------------------
 theory_abbreviation b3lyp
 -------------------------
 Symbolic Z-matrix:
 Charge =  0 Multiplicity = 6

 SCF Done:  E(UB3LYP) =  -3034.31994371     A.U. after   15 cycles
 Normal termination of Gaussian 16 at Tue Feb 11 14:13:14 2020.

 -------------------------------------------------------------------
 #t pop=none jul-cc-pvdz guess=read ub3lyp empiricaldispersion=gd3bj
 -------------------------------------------------------------------
 ------------------------------
 theory_abbreviation b3lyp_d3bj
 ------------------------------
 Symbolic Z-matrix:
 Charge =  0 Multiplicity = 6

 SCF Done:  E(UB3LYP) =  -3034.38780498     A.U. after    1 cycles
 Normal termination of Gaussian 16 at Tue Feb 11 14:14:23 2020.

 ----------------------------------------
 #t pop=none jul-cc-pvdz guess=read ub97d
 ----------------------------------------
 ------------------------
 theory_abbreviation b97d
 ------------------------
 Symbolic Z-matrix:
 Charge =  0 Multiplicity = 6

 SCF Done:  E(UB97D) =  -3034.57183954     A.U. after   16 cycles

 ----------------------------------------------------------------
 #t pop=none jul-cc-pvdz guess=read ub97d empiricaldispersion=gd3
 ----------------------------------------------------------------
 -------------------------
 theory_abbreviation b97d3
 -------------------------
 Symbolic Z-matrix:
 Charge =  0 Multiplicity = 6

 SCF Done:  E(UB97D) =  -3034.57206253     A.U. after    1 cycles
 SCF Done:  E(UBHandHLYP) =  -3033.96220400     A.U. after   16 cycles
 SCF Done:  E(UBHandH) =  -3026.31336720     A.U. after   13 cycles
 SCF Done:  E(ULC-wPBE) =  -3033.45068074     A.U. after   17 cycles
 SCF Done:  E(UB-P86) =  -3034.62714466     A.U. after   17 cycles
 SCF Done:  E(UmPW1LYP) =  -3034.03769590     A.U. after   15 cycles
 SCF Done:  E(UmPW1PBE) =  -3033.88351097     A.U. after   15 cycles
 SCF Done:  E(UmPW3PBE) =  -3033.65575523     A.U. after   14 cycles
 SCF Done:  E(UM11) =  -3033.80244075     A.U. after   17 cycles
 SCF Done:  E(UN12SX) =  -3033.24833566     A.U. after   17 cycles
 SCF Done:  E(UMN12SX) =  -3033.64297740     A.U. after   16 cycles
 SCF Done:  E(UB1B95) =  -3034.37465407     A.U. after   16 cycles
 Normal termination of Gaussian 16 at Tue Feb 11 22:40:09 2020.
 SCF Done:  E(UB3PW91) =  -3033.97099195     A.U. after   15 cycles
 Normal termination of Gaussian 16 at Tue Feb 11 22:56:21 2020.
 SCF Done:  E(UM06L) =  -3034.18625417     A.U. after   17 cycles
 Normal termination of Gaussian 16 at Tue Feb 11 23:14:56 2020.
 Gaussian 16:  ES64L-G16RevA.03 25-Dec-2016

                         Standard orientation:
 ---------------------------------------------------------------------
 Center     Atomic      Atomic             Coordinates (Angstroms)
 Number     Number       Type             X           Y           Z
 ---------------------------------------------------------------------
      1          8           0       -0.320556   -0.077912   -0.410970
      2          6           0       -1.286517   -1.039568   -0.237627
      3          6           0       -2.463884   -0.451025    0.672002
      4          6           0       -2.979116    0.715833   -0.034126
      5          6           0       -4.192327    0.622779   -0.879348
      6         26           0        1.499277    0.171340   -0.081994
      7         17           0        1.773907    2.254526   -0.761499
      8          6           0       -2.176719    1.909418   -0.052023
      9         17           0        2.562985   -1.377309   -1.228817
     10         17           0        1.815489   -0.021420    2.104780
     11          1           0       -3.228257   -1.234474    0.692836
     12          1           0       -2.563862    2.740941   -0.639706
     13          1           0       -1.795943    2.223530    0.923755
     14          1           0       -1.223180    1.462625   -0.507852
     15          1           0       -5.010378    1.094887   -0.309510
     16          1           0       -4.090771    1.201962   -1.803527
     17          1           0       -4.486793   -0.405425   -1.095550
     18          6           0       -1.960069   -0.143623    2.097473
     19          1           0       -2.668461    0.499686    2.628467
     20          1           0       -1.866907   -1.071734    2.663462
     21          1           0       -0.980142    0.336865    2.081845
     22          6           0       -0.729389   -2.269880    0.508520
     23          1           0       -1.520878   -2.992955    0.730975
     24          1           0        0.009764   -2.743373   -0.144046
     25          1           0       -0.223937   -1.984009    1.431581
     26          6           0       -1.811498   -1.471268   -1.618886
     27          1           0       -0.991246   -1.953842   -2.156471
     28          1           0       -2.643233   -2.180939   -1.542810
     29          1           0       -2.125896   -0.609822   -2.215637
 ---------------------------------------------------------------------

 SCF Done:  E(UB97D3) =  -3034.60709205     A.U. after   16 cycles
 Normal termination of Gaussian 16 at Tue Feb 11 23:28:27 2020.
