 Gaussian 16, Revision A.03,

 --------------------------------
 #t pop=none jul-cc-pvdz upbe1pbe
 --------------------------------
 ------------------------
 theory_abbreviation pbe0
 ------------------------
 Symbolic Z-matrix:
 Charge =  0 Multiplicity = 6

 SCF Done:  E(UPBE1PBE) =  -3033.12176454     A.U. after   19 cycles
 Normal termination of Gaussian 16 at Tue Feb 11 13:55:21 2020.

 ---------------------------------------------------------------------
 #t pop=none jul-cc-pvdz guess=read upbe1pbe empiricaldispersion=gd3bj
 ---------------------------------------------------------------------
 -----------------------------
 theory_abbreviation pbe0_d3bj
 -----------------------------
 Symbolic Z-matrix:
 Charge =  0 Multiplicity = 6

 SCF Done:  E(UPBE1PBE) =  -3033.15869805     A.U. after    1 cycles
 Normal termination of Gaussian 16 at Tue Feb 11 13:56:32 2020.

 -----------------------------------------
 #t pop=none jul-cc-pvdz guess=read ub3lyp
 -----------------------------------------
 -------------------------
 theory_abbreviation b3lyp
 -------------------------
 Symbolic Z-matrix:
 Charge =  0 Multiplicity = 6

 SCF Done:  E(UB3LYP) =  -3034.33434251     A.U. after   13 cycles
 Normal termination of Gaussian 16 at Tue Feb 11 14:10:12 2020.

 -------------------------------------------------------------------
 #t pop=none jul-cc-pvdz guess=read ub3lyp empiricaldispersion=gd3bj
 -------------------------------------------------------------------
 ------------------------------
 theory_abbreviation b3lyp_d3bj
 ------------------------------
 Symbolic Z-matrix:
 Charge =  0 Multiplicity = 6

 SCF Done:  E(UB3LYP) =  -3034.40307027     A.U. after    1 cycles
 Normal termination of Gaussian 16 at Tue Feb 11 14:11:22 2020.

 ----------------------------------------
 #t pop=none jul-cc-pvdz guess=read ub97d
 ----------------------------------------
 ------------------------
 theory_abbreviation b97d
 ------------------------
 Symbolic Z-matrix:
 Charge =  0 Multiplicity = 6

 SCF Done:  E(UB97D) =  -3034.58423311     A.U. after   16 cycles

 ----------------------------------------------------------------
 #t pop=none jul-cc-pvdz guess=read ub97d empiricaldispersion=gd3
 ----------------------------------------------------------------
 -------------------------
 theory_abbreviation b97d3
 -------------------------
 Symbolic Z-matrix:
 Charge =  0 Multiplicity = 6

 SCF Done:  E(UB97D) =  -3034.58513683     A.U. after    1 cycles
 SCF Done:  E(UBHandHLYP) =  -3033.97692687     A.U. after   16 cycles
 SCF Done:  E(UBHandH) =  -3026.32289547     A.U. after   14 cycles
 SCF Done:  E(ULC-wPBE) =  -3033.46769928     A.U. after   17 cycles
 SCF Done:  E(UB-P86) =  -3034.64081555     A.U. after   16 cycles
 SCF Done:  E(UmPW1LYP) =  -3034.05258586     A.U. after   14 cycles
 SCF Done:  E(UmPW1PBE) =  -3033.89623249     A.U. after   14 cycles
 SCF Done:  E(UmPW3PBE) =  -3033.66839483     A.U. after   14 cycles
 SCF Done:  E(UM11) =  -3033.81663259     A.U. after   16 cycles
 SCF Done:  E(UN12SX) =  -3033.26211403     A.U. after   16 cycles
 SCF Done:  E(UMN12SX) =  -3033.65666422     A.U. after   16 cycles
 SCF Done:  E(UB1B95) =  -3034.38762958     A.U. after   15 cycles
 Normal termination of Gaussian 16 at Tue Feb 11 22:26:50 2020.
 SCF Done:  E(UB3PW91) =  -3033.98377383     A.U. after   14 cycles
 Normal termination of Gaussian 16 at Tue Feb 11 22:41:40 2020.
 SCF Done:  E(UM06L) =  -3034.19780645     A.U. after   18 cycles
 Normal termination of Gaussian 16 at Tue Feb 11 23:03:08 2020.
 Gaussian 16:  ES64L-G16RevA.03 25-Dec-2016

                         Standard orientation:
 ---------------------------------------------------------------------
 Center     Atomic      Atomic             Coordinates (Angstroms)
 Number     Number       Type             X           Y           Z
 ---------------------------------------------------------------------
      1          8           0       -0.424080   -0.168999   -0.515375
      2          6           0       -1.448892   -1.191992   -0.341448
      3          6           0       -2.767137   -0.124344   -0.230287
      4          6           0       -1.917975    1.137964   -0.270185
      5          6           0       -1.835101    1.907415   -1.538626
      6         26           0        1.374584    0.036266    0.033828
      7         17           0        1.862003    1.999071   -0.853835
      8          6           0       -1.559226    1.847983    0.985021
      9         17           0        2.429381   -1.720261   -0.741966
     10         17           0        1.380839    0.146938    2.241082
     11          1           0       -3.334764   -0.205280   -1.161525
     12          1           0       -2.429006    2.462124    1.266938
     13          1           0       -1.343995    1.168379    1.809631
     14          1           0       -0.707509    2.514489    0.831933
     15          1           0       -2.651919    2.647015   -1.525711
     16          1           0       -0.886813    2.446898   -1.607286
     17          1           0       -1.966573    1.267526   -2.412646
     18          6           0       -3.694062   -0.297851    0.964024
     19          1           0       -4.469819    0.476681    0.977234
     20          1           0       -4.199334   -1.266371    0.899809
     21          1           0       -3.162802   -0.261816    1.917928
     22          6           0       -1.210386   -2.007077    0.913250
     23          1           0       -2.027536   -2.717676    1.074224
     24          1           0       -0.282218   -2.578205    0.797623
     25          1           0       -1.102328   -1.377626    1.798585
     26          6           0       -1.510604   -2.043314   -1.593679
     27          1           0       -0.559448   -2.572375   -1.718158
     28          1           0       -2.316919   -2.781977   -1.523266
     29          1           0       -1.673066   -1.423143   -2.480045
 ---------------------------------------------------------------------

 SCF Done:  E(UB97D3) =  -3034.62046447     A.U. after   16 cycles
 Normal termination of Gaussian 16 at Tue Feb 11 23:16:13 2020.
