 Gaussian 16, Revision A.03,

 --------------------------------
 #t pop=none jul-cc-pvdz upbe1pbe
 --------------------------------
 ------------------------
 theory_abbreviation pbe0
 ------------------------
 Symbolic Z-matrix:
 Charge =  0 Multiplicity = 6

 SCF Done:  E(UPBE1PBE) =  -3033.10468150     A.U. after   21 cycles
 Normal termination of Gaussian 16 at Tue Feb 11 20:05:58 2020.

 ---------------------------------------------------------------------
 #t pop=none jul-cc-pvdz guess=read upbe1pbe empiricaldispersion=gd3bj
 ---------------------------------------------------------------------
 -----------------------------
 theory_abbreviation pbe0_d3bj
 -----------------------------
 Symbolic Z-matrix:
 Charge =  0 Multiplicity = 6

 SCF Done:  E(UPBE1PBE) =  -3033.14199416     A.U. after    1 cycles
 Normal termination of Gaussian 16 at Tue Feb 11 20:07:06 2020.

 -----------------------------------------
 #t pop=none jul-cc-pvdz guess=read ub3lyp
 -----------------------------------------
 -------------------------
 theory_abbreviation b3lyp
 -------------------------
 Symbolic Z-matrix:
 Charge =  0 Multiplicity = 6

 SCF Done:  E(UB3LYP) =  -3034.31772385     A.U. after   14 cycles
 Normal termination of Gaussian 16 at Tue Feb 11 20:21:23 2020.

 -------------------------------------------------------------------
 #t pop=none jul-cc-pvdz guess=read ub3lyp empiricaldispersion=gd3bj
 -------------------------------------------------------------------
 ------------------------------
 theory_abbreviation b3lyp_d3bj
 ------------------------------
 Symbolic Z-matrix:
 Charge =  0 Multiplicity = 6

 SCF Done:  E(UB3LYP) =  -3034.38724272     A.U. after    1 cycles
 Normal termination of Gaussian 16 at Tue Feb 11 20:22:31 2020.

 ----------------------------------------
 #t pop=none jul-cc-pvdz guess=read ub97d
 ----------------------------------------
 ------------------------
 theory_abbreviation b97d
 ------------------------
 Symbolic Z-matrix:
 Charge =  0 Multiplicity = 6

 SCF Done:  E(UB97D) =  -3034.57041199     A.U. after   15 cycles

 ----------------------------------------------------------------
 #t pop=none jul-cc-pvdz guess=read ub97d empiricaldispersion=gd3
 ----------------------------------------------------------------
 -------------------------
 theory_abbreviation b97d3
 -------------------------
 Symbolic Z-matrix:
 Charge =  0 Multiplicity = 6

 SCF Done:  E(UB97D) =  -3034.57079877     A.U. after    2 cycles
 SCF Done:  E(UBHandHLYP) =  -3033.96046869     A.U. after   17 cycles
 SCF Done:  E(UBHandH) =  -3026.30782780     A.U. after   16 cycles
 SCF Done:  E(ULC-wPBE) =  -3033.44510391     A.U. after   18 cycles
 SCF Done:  E(UB-P86) =  -3034.62329687     A.U. after   16 cycles
 SCF Done:  E(UmPW1LYP) =  -3034.03601993     A.U. after   13 cycles
 SCF Done:  E(UmPW1PBE) =  -3033.87909674     A.U. after   13 cycles
 SCF Done:  E(UmPW3PBE) =  -3033.65140282     A.U. after   14 cycles
 SCF Done:  E(UM11) =  -3033.80244966     A.U. after   19 cycles
 SCF Done:  E(UN12SX) =  -3033.24457481     A.U. after   17 cycles
 SCF Done:  E(UMN12SX) =  -3033.64291644     A.U. after   16 cycles
 SCF Done:  E(UB1B95) =  -3034.37295367     A.U. after   16 cycles
 Normal termination of Gaussian 16 at Wed Feb 12 04:50:35 2020.
 SCF Done:  E(UB3PW91) =  -3033.96676808     A.U. after   15 cycles
 Normal termination of Gaussian 16 at Wed Feb 12 05:05:42 2020.
 SCF Done:  E(UM06L) =  -3034.18490982     A.U. after   18 cycles
 Normal termination of Gaussian 16 at Wed Feb 12 05:25:23 2020.
 Gaussian 16:  ES64L-G16RevA.03 25-Dec-2016

                         Standard orientation:
 ---------------------------------------------------------------------
 Center     Atomic      Atomic             Coordinates (Angstroms)
 Number     Number       Type             X           Y           Z
 ---------------------------------------------------------------------
      1          8           0       -0.333589   -0.121735   -0.631882
      2          6           0       -1.273768   -1.045238   -0.552301
      3          6           0       -2.929360   -0.159167    0.136097
      4          6           0       -2.318565    1.048636   -0.170837
      5          6           0       -2.411865    1.661502   -1.524227
      6         26           0        1.415026    0.075101    0.030024
      7         17           0        1.978450    2.068102   -0.718020
      8          6           0       -1.561927    1.837482    0.837369
      9         17           0        2.542965   -1.635483   -0.769729
     10         17           0        1.272532    0.011918    2.245730
     11          1           0       -3.637763   -0.526018   -0.603678
     12          1           0       -2.280780    2.528978    1.305423
     13          1           0       -1.127043    1.228705    1.629930
     14          1           0       -0.775471    2.435828    0.370808
     15          1           0       -2.762898    2.695787   -1.412814
     16          1           0       -1.406599    1.718016   -1.959064
     17          1           0       -3.087939    1.131519   -2.196803
     18          6           0       -3.251343   -0.560100    1.560502
     19          1           0       -4.122090    0.007822    1.911151
     20          1           0       -3.508902   -1.619809    1.622386
     21          1           0       -2.430518   -0.369695    2.254774
     22          6           0       -1.047475   -2.136950    0.470816
     23          1           0       -1.888913   -2.828496    0.542496
     24          1           0       -0.171229   -2.693602    0.110228
     25          1           0       -0.793439   -1.736474    1.452168
     26          6           0       -1.736735   -1.552375   -1.905989
     27          1           0       -0.886983   -2.107713   -2.323002
     28          1           0       -2.593085   -2.226830   -1.829373
     29          1           0       -1.959179   -0.736637   -2.594449
 ---------------------------------------------------------------------

 SCF Done:  E(UB97D3) =  -3034.60571467     A.U. after   15 cycles
 Normal termination of Gaussian 16 at Wed Feb 12 05:37:18 2020.
