 Gaussian 16, Revision A.03,

 --------------------------------
 #t pop=none jul-cc-pvdz upbe1pbe
 --------------------------------
 ------------------------
 theory_abbreviation pbe0
 ------------------------
 Symbolic Z-matrix:
 Charge =  0 Multiplicity = 6

 SCF Done:  E(UPBE1PBE) =  -3033.11017140     A.U. after   20 cycles
 Normal termination of Gaussian 16 at Tue Feb 11 13:57:46 2020.

 ---------------------------------------------------------------------
 #t pop=none jul-cc-pvdz guess=read upbe1pbe empiricaldispersion=gd3bj
 ---------------------------------------------------------------------
 -----------------------------
 theory_abbreviation pbe0_d3bj
 -----------------------------
 Symbolic Z-matrix:
 Charge =  0 Multiplicity = 6

 SCF Done:  E(UPBE1PBE) =  -3033.14796351     A.U. after    1 cycles
 Normal termination of Gaussian 16 at Tue Feb 11 13:59:02 2020.

 -----------------------------------------
 #t pop=none jul-cc-pvdz guess=read ub3lyp
 -----------------------------------------
 -------------------------
 theory_abbreviation b3lyp
 -------------------------
 Symbolic Z-matrix:
 Charge =  0 Multiplicity = 6

 SCF Done:  E(UB3LYP) =  -3034.32429411     A.U. after   13 cycles
 Normal termination of Gaussian 16 at Tue Feb 11 14:12:42 2020.

 -------------------------------------------------------------------
 #t pop=none jul-cc-pvdz guess=read ub3lyp empiricaldispersion=gd3bj
 -------------------------------------------------------------------
 ------------------------------
 theory_abbreviation b3lyp_d3bj
 ------------------------------
 Symbolic Z-matrix:
 Charge =  0 Multiplicity = 6

 SCF Done:  E(UB3LYP) =  -3034.39472972     A.U. after    1 cycles
 Normal termination of Gaussian 16 at Tue Feb 11 14:13:59 2020.

 ----------------------------------------
 #t pop=none jul-cc-pvdz guess=read ub97d
 ----------------------------------------
 ------------------------
 theory_abbreviation b97d
 ------------------------
 Symbolic Z-matrix:
 Charge =  0 Multiplicity = 6

 SCF Done:  E(UB97D) =  -3034.57767532     A.U. after   15 cycles

 ----------------------------------------------------------------
 #t pop=none jul-cc-pvdz guess=read ub97d empiricaldispersion=gd3
 ----------------------------------------------------------------
 -------------------------
 theory_abbreviation b97d3
 -------------------------
 Symbolic Z-matrix:
 Charge =  0 Multiplicity = 6

 SCF Done:  E(UB97D) =  -3034.57886550     A.U. after    1 cycles
 SCF Done:  E(UBHandHLYP) =  -3033.96611027     A.U. after   17 cycles
 SCF Done:  E(UBHandH) =  -3026.31196242     A.U. after   14 cycles
 SCF Done:  E(ULC-wPBE) =  -3033.45048010     A.U. after   19 cycles
 SCF Done:  E(UB-P86) =  -3034.63047430     A.U. after   17 cycles
 SCF Done:  E(UmPW1LYP) =  -3034.04245988     A.U. after   13 cycles
 SCF Done:  E(UmPW1PBE) =  -3033.88461468     A.U. after   13 cycles
 SCF Done:  E(UmPW3PBE) =  -3033.65717834     A.U. after   13 cycles
 SCF Done:  E(UM11) =  -3033.80790961     A.U. after   19 cycles
 SCF Done:  E(UN12SX) =  -3033.24962913     A.U. after   17 cycles
 SCF Done:  E(UMN12SX) =  -3033.64896695     A.U. after   16 cycles
 SCF Done:  E(UB1B95) =  -3034.37932288     A.U. after   16 cycles
 Normal termination of Gaussian 16 at Tue Feb 11 22:46:56 2020.
 SCF Done:  E(UB3PW91) =  -3033.97268221     A.U. after   13 cycles
 Normal termination of Gaussian 16 at Tue Feb 11 23:01:31 2020.
 SCF Done:  E(UM06L) =  -3034.19203193     A.U. after   17 cycles
 Normal termination of Gaussian 16 at Tue Feb 11 23:20:29 2020.
 Gaussian 16:  ES64L-G16RevA.03 25-Dec-2016

                         Standard orientation:
 ---------------------------------------------------------------------
 Center     Atomic      Atomic             Coordinates (Angstroms)
 Number     Number       Type             X           Y           Z
 ---------------------------------------------------------------------
      1          8           0       -0.320450   -0.129753   -0.662083
      2          6           0       -1.229965   -1.047660   -0.577100
      3          6           0       -3.018748   -0.106546    0.155743
      4          6           0       -2.354647    1.046128   -0.172798
      5          6           0       -2.426941    1.641332   -1.540688
      6         26           0        1.437113    0.078013    0.037847
      7         17           0        2.046256    2.036685   -0.738422
      8          6           0       -1.561336    1.833291    0.816969
      9         17           0        2.515704   -1.668915   -0.745199
     10         17           0        1.290216    0.031426    2.244001
     11          1           0       -3.693861   -0.508722   -0.596259
     12          1           0       -2.225304    2.603591    1.237301
     13          1           0       -1.178751    1.237844    1.645703
     14          1           0       -0.725942    2.348775    0.335579
     15          1           0       -2.744613    2.688052   -1.450720
     16          1           0       -1.426185    1.655115   -1.988550
     17          1           0       -3.127411    1.124288   -2.199615
     18          6           0       -3.323198   -0.529615    1.572746
     19          1           0       -4.210589    0.010357    1.927794
     20          1           0       -3.552239   -1.596460    1.633599
     21          1           0       -2.509961   -0.315205    2.269322
     22          6           0       -1.064112   -2.095094    0.494721
     23          1           0       -1.925171   -2.759783    0.572863
     24          1           0       -0.195073   -2.690783    0.179399
     25          1           0       -0.820276   -1.659184    1.463401
     26          6           0       -1.756978   -1.549390   -1.903113
     27          1           0       -0.939713   -2.142894   -2.334999
     28          1           0       -2.632320   -2.192496   -1.792399
     29          1           0       -1.965378   -0.733824   -2.595111
 ---------------------------------------------------------------------

 SCF Done:  E(UB97D3) =  -3034.61449506     A.U. after   15 cycles
 Normal termination of Gaussian 16 at Tue Feb 11 23:32:44 2020.
