 Gaussian 16, Revision A.03,

 --------------------------------
 #t pop=none jul-cc-pvdz upbe1pbe
 --------------------------------
 ------------------------
 theory_abbreviation pbe0
 ------------------------
 Symbolic Z-matrix:
 Charge =  0 Multiplicity = 6

 SCF Done:  E(UPBE1PBE) =  -3033.12601936     A.U. after   21 cycles
 Normal termination of Gaussian 16 at Tue Feb 11 13:59:44 2020.

 ---------------------------------------------------------------------
 #t pop=none jul-cc-pvdz guess=read upbe1pbe empiricaldispersion=gd3bj
 ---------------------------------------------------------------------
 -----------------------------
 theory_abbreviation pbe0_d3bj
 -----------------------------
 Symbolic Z-matrix:
 Charge =  0 Multiplicity = 6

 SCF Done:  E(UPBE1PBE) =  -3033.16286522     A.U. after    1 cycles
 Normal termination of Gaussian 16 at Tue Feb 11 14:00:54 2020.

 -----------------------------------------
 #t pop=none jul-cc-pvdz guess=read ub3lyp
 -----------------------------------------
 -------------------------
 theory_abbreviation b3lyp
 -------------------------
 Symbolic Z-matrix:
 Charge =  0 Multiplicity = 6

 SCF Done:  E(UB3LYP) =  -3034.34307896     A.U. after   13 cycles
 Normal termination of Gaussian 16 at Tue Feb 11 14:14:36 2020.

 -------------------------------------------------------------------
 #t pop=none jul-cc-pvdz guess=read ub3lyp empiricaldispersion=gd3bj
 -------------------------------------------------------------------
 ------------------------------
 theory_abbreviation b3lyp_d3bj
 ------------------------------
 Symbolic Z-matrix:
 Charge =  0 Multiplicity = 6

 SCF Done:  E(UB3LYP) =  -3034.41153747     A.U. after    1 cycles
 Normal termination of Gaussian 16 at Tue Feb 11 14:15:46 2020.

 ----------------------------------------
 #t pop=none jul-cc-pvdz guess=read ub97d
 ----------------------------------------
 ------------------------
 theory_abbreviation b97d
 ------------------------
 Symbolic Z-matrix:
 Charge =  0 Multiplicity = 6

 SCF Done:  E(UB97D) =  -3034.59581918     A.U. after   15 cycles

 ----------------------------------------------------------------
 #t pop=none jul-cc-pvdz guess=read ub97d empiricaldispersion=gd3
 ----------------------------------------------------------------
 -------------------------
 theory_abbreviation b97d3
 -------------------------
 Symbolic Z-matrix:
 Charge =  0 Multiplicity = 6

 SCF Done:  E(UB97D) =  -3034.59677538     A.U. after    1 cycles
 SCF Done:  E(UBHandHLYP) =  -3033.98335073     A.U. after   18 cycles
 SCF Done:  E(UBHandH) =  -3026.32339070     A.U. after   16 cycles
 SCF Done:  E(ULC-wPBE) =  -3033.46516327     A.U. after   19 cycles
 SCF Done:  E(UB-P86) =  -3034.64596424     A.U. after   16 cycles
 SCF Done:  E(UmPW1LYP) =  -3034.06111618     A.U. after   15 cycles
 SCF Done:  E(UmPW1PBE) =  -3033.90052852     A.U. after   15 cycles
 SCF Done:  E(UmPW3PBE) =  -3033.67358381     A.U. after   12 cycles
 SCF Done:  E(UM11) =  -3033.82270657     A.U. after   19 cycles
 SCF Done:  E(UN12SX) =  -3033.26487178     A.U. after   18 cycles
 SCF Done:  E(UMN12SX) =  -3033.66502942     A.U. after   16 cycles
 SCF Done:  E(UB1B95) =  -3034.39544710     A.U. after   14 cycles
 Normal termination of Gaussian 16 at Tue Feb 11 22:54:45 2020.
 SCF Done:  E(UB3PW91) =  -3033.98952976     A.U. after   15 cycles
 Normal termination of Gaussian 16 at Tue Feb 11 23:10:17 2020.
 SCF Done:  E(UM06L) =  -3034.21004863     A.U. after   18 cycles
 Normal termination of Gaussian 16 at Tue Feb 11 23:30:07 2020.
 Gaussian 16:  ES64L-G16RevA.03 25-Dec-2016

                         Standard orientation:
 ---------------------------------------------------------------------
 Center     Atomic      Atomic             Coordinates (Angstroms)
 Number     Number       Type             X           Y           Z
 ---------------------------------------------------------------------
      1          8           0        0.219237    0.312681   -0.806049
      2          6           0        1.081706    1.226137   -0.620696
      3          6           0        2.848838    0.294054    0.616628
      4          6           0        2.757101   -0.879553   -0.065905
      5          6           0        3.490539   -1.105497   -1.354880
      6         26           0       -1.490072   -0.166767   -0.025639
      7         17           0       -2.004917   -2.044639   -1.009707
      8          6           0        1.861122   -1.998624    0.359372
      9         17           0       -2.735399    1.562125   -0.529426
     10         17           0       -1.199648   -0.386633    2.144483
     11          1           0        3.563695    1.023839    0.238675
     12          1           0        2.387922   -2.958980    0.309013
     13          1           0        1.446130   -1.873583    1.359242
     14          1           0        1.020543   -2.068783   -0.347251
     15          1           0        4.160553   -1.968342   -1.245516
     16          1           0        2.793822   -1.359487   -2.165119
     17          1           0        4.094250   -0.245460   -1.654270
     18          6           0        2.463358    0.461432    2.069347
     19          1           0        3.177371   -0.083276    2.700179
     20          1           0        2.505921    1.509436    2.373916
     21          1           0        1.465703    0.082788    2.299749
     22          6           0        0.807514    2.288255    0.409799
     23          1           0        1.682895    2.902606    0.624315
     24          1           0        0.033335    2.927949   -0.038314
     25          1           0        0.392278    1.874285    1.328166
     26          6           0        1.877875    1.639716   -1.832217
     27          1           0        1.230458    2.330569   -2.390251
     28          1           0        2.796123    2.170451   -1.576931
     29          1           0        2.088051    0.790458   -2.480245
 ---------------------------------------------------------------------

 SCF Done:  E(UB97D3) =  -3034.63214140     A.U. after   15 cycles
 Normal termination of Gaussian 16 at Tue Feb 11 23:41:42 2020.
