 Gaussian 16, Revision A.03,

 --------------------------------
 #t pop=none jul-cc-pvdz upbe1pbe
 --------------------------------
 ------------------------
 theory_abbreviation pbe0
 ------------------------
 Symbolic Z-matrix:
 Charge =  0 Multiplicity = 6

 SCF Done:  E(UPBE1PBE) =  -3033.10029945     A.U. after   21 cycles
 Normal termination of Gaussian 16 at Tue Feb 11 14:45:40 2020.

 ---------------------------------------------------------------------
 #t pop=none jul-cc-pvdz guess=read upbe1pbe empiricaldispersion=gd3bj
 ---------------------------------------------------------------------
 -----------------------------
 theory_abbreviation pbe0_d3bj
 -----------------------------
 Symbolic Z-matrix:
 Charge =  0 Multiplicity = 6

 SCF Done:  E(UPBE1PBE) =  -3033.13741127     A.U. after    1 cycles
 Normal termination of Gaussian 16 at Tue Feb 11 14:46:50 2020.

 -----------------------------------------
 #t pop=none jul-cc-pvdz guess=read ub3lyp
 -----------------------------------------
 -------------------------
 theory_abbreviation b3lyp
 -------------------------
 Symbolic Z-matrix:
 Charge =  0 Multiplicity = 6

 SCF Done:  E(UB3LYP) =  -3034.31324449     A.U. after   14 cycles
 Normal termination of Gaussian 16 at Tue Feb 11 15:01:12 2020.

 -------------------------------------------------------------------
 #t pop=none jul-cc-pvdz guess=read ub3lyp empiricaldispersion=gd3bj
 -------------------------------------------------------------------
 ------------------------------
 theory_abbreviation b3lyp_d3bj
 ------------------------------
 Symbolic Z-matrix:
 Charge =  0 Multiplicity = 6

 SCF Done:  E(UB3LYP) =  -3034.38232820     A.U. after    1 cycles
 Normal termination of Gaussian 16 at Tue Feb 11 15:02:26 2020.

 ----------------------------------------
 #t pop=none jul-cc-pvdz guess=read ub97d
 ----------------------------------------
 ------------------------
 theory_abbreviation b97d
 ------------------------
 Symbolic Z-matrix:
 Charge =  0 Multiplicity = 6

 SCF Done:  E(UB97D) =  -3034.56439832     A.U. after   16 cycles

 ----------------------------------------------------------------
 #t pop=none jul-cc-pvdz guess=read ub97d empiricaldispersion=gd3
 ----------------------------------------------------------------
 -------------------------
 theory_abbreviation b97d3
 -------------------------
 Symbolic Z-matrix:
 Charge =  0 Multiplicity = 6

 SCF Done:  E(UB97D) =  -3034.56517986     A.U. after    1 cycles
 SCF Done:  E(UBHandHLYP) =  -3033.95673028     A.U. after   17 cycles
 SCF Done:  E(UBHandH) =  -3026.30349018     A.U. after   13 cycles
 SCF Done:  E(ULC-wPBE) =  -3033.44211748     A.U. after   18 cycles
 SCF Done:  E(UB-P86) =  -3034.61865404     A.U. after   15 cycles
 SCF Done:  E(UmPW1LYP) =  -3034.03170321     A.U. after   15 cycles
 SCF Done:  E(UmPW1PBE) =  -3033.87476445     A.U. after   15 cycles
 SCF Done:  E(UmPW3PBE) =  -3033.64692727     A.U. after   13 cycles
 SCF Done:  E(UM11) =  -3033.79692225     A.U. after   17 cycles
 SCF Done:  E(UN12SX) =  -3033.24054727     A.U. after   15 cycles
 SCF Done:  E(UMN12SX) =  -3033.63821546     A.U. after   16 cycles
 SCF Done:  E(UB1B95) =  -3034.36763966     A.U. after   15 cycles
 Normal termination of Gaussian 16 at Tue Feb 11 23:14:47 2020.
 SCF Done:  E(UB3PW91) =  -3033.96227397     A.U. after   14 cycles
 Normal termination of Gaussian 16 at Tue Feb 11 23:29:12 2020.
 SCF Done:  E(UM06L) =  -3034.17873131     A.U. after   18 cycles
 Normal termination of Gaussian 16 at Tue Feb 11 23:49:10 2020.
 Gaussian 16:  ES64L-G16RevA.03 25-Dec-2016

                         Standard orientation:
 ---------------------------------------------------------------------
 Center     Atomic      Atomic             Coordinates (Angstroms)
 Number     Number       Type             X           Y           Z
 ---------------------------------------------------------------------
      1          8           0       -0.350549   -0.175414   -0.550400
      2          6           0       -1.340582   -1.123325   -0.442451
      3          6           0       -2.904351   -0.092221   -0.123941
      4          6           0       -2.117515    1.098504   -0.242292
      5          6           0       -1.960183    1.779772   -1.549620
      6         26           0        1.399273    0.045361    0.038051
      7         17           0        1.853818    2.054931   -0.783798
      8          6           0       -1.582121    1.798001    0.949789
      9         17           0        2.556041   -1.657677   -0.735479
     10         17           0        1.322957    0.079949    2.259887
     11          1           0       -3.510768   -0.290201   -1.007319
     12          1           0       -2.405879    2.416010    1.344142
     13          1           0       -1.280436    1.113495    1.743985
     14          1           0       -0.745335    2.450922    0.695868
     15          1           0       -2.617815    2.664215   -1.521479
     16          1           0       -0.933731    2.133960   -1.680982
     17          1           0       -2.265848    1.157070   -2.391496
     18          6           0       -3.611395   -0.426587    1.175042
     19          1           0       -4.467135    0.242125    1.329649
     20          1           0       -3.998036   -1.448744    1.142110
     21          1           0       -2.960203   -0.343464    2.047544
     22          6           0       -1.168327   -2.062367    0.727604
     23          1           0       -2.004743   -2.758236    0.828467
     24          1           0       -0.257854   -2.643789    0.527995
     25          1           0       -1.006226   -1.525919    1.663538
     26          6           0       -1.596778   -1.816997   -1.763322
     27          1           0       -0.688013   -2.380381   -2.010873
     28          1           0       -2.441968   -2.509338   -1.706225
     29          1           0       -1.763077   -1.094928   -2.566284
 ---------------------------------------------------------------------

 SCF Done:  E(UB97D3) =  -3034.60005529     A.U. after   14 cycles
 Normal termination of Gaussian 16 at Wed Feb 12 00:01:16 2020.
