 Gaussian 16, Revision A.03,

 --------------------------------
 #t pop=none jul-cc-pvdz upbe1pbe
 --------------------------------
 ------------------------
 theory_abbreviation pbe0
 ------------------------
 Symbolic Z-matrix:
 Charge =  0 Multiplicity = 6

 SCF Done:  E(UPBE1PBE) =  -3033.13513472     A.U. after   19 cycles
 Normal termination of Gaussian 16 at Tue Feb 11 14:42:38 2020.

 ---------------------------------------------------------------------
 #t pop=none jul-cc-pvdz guess=read upbe1pbe empiricaldispersion=gd3bj
 ---------------------------------------------------------------------
 -----------------------------
 theory_abbreviation pbe0_d3bj
 -----------------------------
 Symbolic Z-matrix:
 Charge =  0 Multiplicity = 6

 SCF Done:  E(UPBE1PBE) =  -3033.17205006     A.U. after    1 cycles
 Normal termination of Gaussian 16 at Tue Feb 11 14:43:47 2020.

 -----------------------------------------
 #t pop=none jul-cc-pvdz guess=read ub3lyp
 -----------------------------------------
 -------------------------
 theory_abbreviation b3lyp
 -------------------------
 Symbolic Z-matrix:
 Charge =  0 Multiplicity = 6

 SCF Done:  E(UB3LYP) =  -3034.34628972     A.U. after   13 cycles
 Normal termination of Gaussian 16 at Tue Feb 11 14:57:15 2020.

 -------------------------------------------------------------------
 #t pop=none jul-cc-pvdz guess=read ub3lyp empiricaldispersion=gd3bj
 -------------------------------------------------------------------
 ------------------------------
 theory_abbreviation b3lyp_d3bj
 ------------------------------
 Symbolic Z-matrix:
 Charge =  0 Multiplicity = 6

 SCF Done:  E(UB3LYP) =  -3034.41502862     A.U. after    1 cycles
 Normal termination of Gaussian 16 at Tue Feb 11 14:58:24 2020.

 ----------------------------------------
 #t pop=none jul-cc-pvdz guess=read ub97d
 ----------------------------------------
 ------------------------
 theory_abbreviation b97d
 ------------------------
 Symbolic Z-matrix:
 Charge =  0 Multiplicity = 6

 SCF Done:  E(UB97D) =  -3034.59545247     A.U. after   15 cycles

 ----------------------------------------------------------------
 #t pop=none jul-cc-pvdz guess=read ub97d empiricaldispersion=gd3
 ----------------------------------------------------------------
 -------------------------
 theory_abbreviation b97d3
 -------------------------
 Symbolic Z-matrix:
 Charge =  0 Multiplicity = 6

 SCF Done:  E(UB97D) =  -3034.59595124     A.U. after    1 cycles
 SCF Done:  E(UBHandHLYP) =  -3033.99003717     A.U. after   16 cycles
 SCF Done:  E(UBHandH) =  -3026.33775134     A.U. after   14 cycles
 SCF Done:  E(ULC-wPBE) =  -3033.48296856     A.U. after   17 cycles
 SCF Done:  E(UB-P86) =  -3034.65215866     A.U. after   16 cycles
 SCF Done:  E(UmPW1LYP) =  -3034.06463845     A.U. after   14 cycles
 SCF Done:  E(UmPW1PBE) =  -3033.90951825     A.U. after   14 cycles
 SCF Done:  E(UmPW3PBE) =  -3033.68133499     A.U. after   13 cycles
 SCF Done:  E(UM11) =  -3033.83036334     A.U. after   16 cycles
 SCF Done:  E(UN12SX) =  -3033.27576977     A.U. after   16 cycles
 SCF Done:  E(UMN12SX) =  -3033.66957928     A.U. after   16 cycles
 SCF Done:  E(UB1B95) =  -3034.40128316     A.U. after   14 cycles
 Normal termination of Gaussian 16 at Tue Feb 11 22:58:30 2020.
 SCF Done:  E(UB3PW91) =  -3033.99660634     A.U. after   14 cycles
 Normal termination of Gaussian 16 at Tue Feb 11 23:12:52 2020.
 SCF Done:  E(UM06L) =  -3034.21011952     A.U. after   17 cycles
 Normal termination of Gaussian 16 at Tue Feb 11 23:31:41 2020.
 Gaussian 16:  ES64L-G16RevA.03 25-Dec-2016

                         Standard orientation:
 ---------------------------------------------------------------------
 Center     Atomic      Atomic             Coordinates (Angstroms)
 Number     Number       Type             X           Y           Z
 ---------------------------------------------------------------------
      1          8           0       -0.456067   -0.130007   -0.495444
      2          6           0       -1.504078   -1.151900   -0.314075
      3          6           0       -2.722827   -0.116759   -0.258065
      4          6           0       -1.845911    1.144330   -0.262232
      5          6           0       -1.781948    1.960258   -1.508181
      6         26           0        1.372457    0.024803    0.031939
      7         17           0        1.913751    1.961694   -0.864895
      8          6           0       -1.530713    1.843373    1.017103
      9         17           0        2.337907   -1.767458   -0.771600
     10         17           0        1.423845    0.123293    2.233002
     11          1           0       -3.263187   -0.165218   -1.208967
     12          1           0       -2.397723    2.470320    1.272755
     13          1           0       -1.351002    1.155282    1.843000
     14          1           0       -0.663247    2.497447    0.900391
     15          1           0       -2.621921    2.671338   -1.484599
     16          1           0       -0.850244    2.529762   -1.555052
     17          1           0       -1.880869    1.341132   -2.401584
     18          6           0       -3.723735   -0.250873    0.884597
     19          1           0       -4.474889    0.545576    0.839788
     20          1           0       -4.252843   -1.205640    0.804121
     21          1           0       -3.248293   -0.214348    1.867535
     22          6           0       -1.261634   -1.945003    0.959114
     23          1           0       -2.080980   -2.650924    1.130377
     24          1           0       -0.335206   -2.519865    0.859167
     25          1           0       -1.160232   -1.300399    1.834314
     26          6           0       -1.523381   -2.042538   -1.544144
     27          1           0       -0.574720   -2.582005   -1.626791
     28          1           0       -2.337591   -2.773087   -1.474668
     29          1           0       -1.660569   -1.447505   -2.451954
 ---------------------------------------------------------------------

 SCF Done:  E(UB97D3) =  -3034.63118351     A.U. after   14 cycles
 Normal termination of Gaussian 16 at Tue Feb 11 23:43:02 2020.
