 Gaussian 16, Revision A.03,

 --------------------------------
 #t pop=none jul-cc-pvdz upbe1pbe
 --------------------------------
 ------------------------
 theory_abbreviation pbe0
 ------------------------
 Symbolic Z-matrix:
 Charge =  0 Multiplicity = 6

 SCF Done:  E(UPBE1PBE) =  -3033.11656267     A.U. after   20 cycles
 Normal termination of Gaussian 16 at Tue Feb 11 14:46:06 2020.

 ---------------------------------------------------------------------
 #t pop=none jul-cc-pvdz guess=read upbe1pbe empiricaldispersion=gd3bj
 ---------------------------------------------------------------------
 -----------------------------
 theory_abbreviation pbe0_d3bj
 -----------------------------
 Symbolic Z-matrix:
 Charge =  0 Multiplicity = 6

 SCF Done:  E(UPBE1PBE) =  -3033.15436577     A.U. after    1 cycles
 Normal termination of Gaussian 16 at Tue Feb 11 14:47:18 2020.

 -----------------------------------------
 #t pop=none jul-cc-pvdz guess=read ub3lyp
 -----------------------------------------
 -------------------------
 theory_abbreviation b3lyp
 -------------------------
 Symbolic Z-matrix:
 Charge =  0 Multiplicity = 6

 SCF Done:  E(UB3LYP) =  -3034.33140450     A.U. after   13 cycles
 Normal termination of Gaussian 16 at Tue Feb 11 15:01:16 2020.

 -------------------------------------------------------------------
 #t pop=none jul-cc-pvdz guess=read ub3lyp empiricaldispersion=gd3bj
 -------------------------------------------------------------------
 ------------------------------
 theory_abbreviation b3lyp_d3bj
 ------------------------------
 Symbolic Z-matrix:
 Charge =  0 Multiplicity = 6

 SCF Done:  E(UB3LYP) =  -3034.40186865     A.U. after    1 cycles
 Normal termination of Gaussian 16 at Tue Feb 11 15:02:27 2020.

 ----------------------------------------
 #t pop=none jul-cc-pvdz guess=read ub97d
 ----------------------------------------
 ------------------------
 theory_abbreviation b97d
 ------------------------
 Symbolic Z-matrix:
 Charge =  0 Multiplicity = 6

 SCF Done:  E(UB97D) =  -3034.58542342     A.U. after   15 cycles

 ----------------------------------------------------------------
 #t pop=none jul-cc-pvdz guess=read ub97d empiricaldispersion=gd3
 ----------------------------------------------------------------
 -------------------------
 theory_abbreviation b97d3
 -------------------------
 Symbolic Z-matrix:
 Charge =  0 Multiplicity = 6

 SCF Done:  E(UB97D) =  -3034.58651118     A.U. after    1 cycles
 SCF Done:  E(UBHandHLYP) =  -3033.97256886     A.U. after   18 cycles
 SCF Done:  E(UBHandH) =  -3026.31735990     A.U. after   16 cycles
 SCF Done:  E(ULC-wPBE) =  -3033.45677148     A.U. after   19 cycles
 SCF Done:  E(UB-P86) =  -3034.63741459     A.U. after   17 cycles
 SCF Done:  E(UmPW1LYP) =  -3034.04953851     A.U. after   14 cycles
 SCF Done:  E(UmPW1PBE) =  -3033.89093820     A.U. after   14 cycles
 SCF Done:  E(UmPW3PBE) =  -3033.66368303     A.U. after   13 cycles
 SCF Done:  E(UM11) =  -3033.81466502     A.U. after   19 cycles
 SCF Done:  E(UN12SX) =  -3033.25585609     A.U. after   17 cycles
 SCF Done:  E(UMN12SX) =  -3033.65580152     A.U. after   16 cycles
 SCF Done:  E(UB1B95) =  -3034.38604677     A.U. after   16 cycles
 Normal termination of Gaussian 16 at Tue Feb 11 23:51:33 2020.
 SCF Done:  E(UB3PW91) =  -3033.97925857     A.U. after   15 cycles
 Normal termination of Gaussian 16 at Wed Feb 12 00:08:24 2020.
 SCF Done:  E(UM06L) =  -3034.19973705     A.U. after   17 cycles
 Normal termination of Gaussian 16 at Wed Feb 12 00:27:36 2020.
 Gaussian 16:  ES64L-G16RevA.03 25-Dec-2016

                         Standard orientation:
 ---------------------------------------------------------------------
 Center     Atomic      Atomic             Coordinates (Angstroms)
 Number     Number       Type             X           Y           Z
 ---------------------------------------------------------------------
      1          8           0       -0.304363   -0.185130   -0.760484
      2          6           0       -1.184995   -1.110190   -0.620873
      3          6           0       -2.902117   -0.198016    0.408414
      4          6           0       -2.479359    0.985372   -0.126627
      5          6           0       -2.884382    1.431689   -1.495995
      6         26           0        1.429726    0.114429    0.006124
      7         17           0        2.041595    2.053138   -0.802186
      8          6           0       -1.591504    1.940312    0.599424
      9         17           0        2.595812   -1.615917   -0.670773
     10         17           0        1.184391    0.131432    2.204448
     11          1           0       -3.653741   -0.748151   -0.154298
     12          1           0       -2.194109    2.808995    0.901840
     13          1           0       -1.128397    1.522886    1.491896
     14          1           0       -0.805374    2.318183   -0.063358
     15          1           0       -3.297200    2.446498   -1.435721
     16          1           0       -1.999929    1.496765   -2.143148
     17          1           0       -3.632730    0.783061   -1.956080
     18          6           0       -2.837084   -0.522467    1.883084
     19          1           0       -3.631955    0.020999    2.409804
     20          1           0       -3.001705   -1.586964    2.065115
     21          1           0       -1.886706   -0.242336    2.342982
     22          6           0       -0.931315   -2.199422    0.391276
     23          1           0       -1.795291   -2.851287    0.528686
     24          1           0       -0.109799   -2.795687   -0.031245
     25          1           0       -0.587449   -1.807912    1.347734
     26          6           0       -1.860056   -1.565085   -1.895393
     27          1           0       -1.123188   -2.204268   -2.400468
     28          1           0       -2.756234   -2.159978   -1.710076
     29          1           0       -2.079866   -0.735179   -2.564186
 ---------------------------------------------------------------------

 SCF Done:  E(UB97D3) =  -3034.62199715     A.U. after   15 cycles
 Normal termination of Gaussian 16 at Wed Feb 12 00:39:57 2020.
