 Gaussian 16, Revision A.03,

 --------------------------------
 #t pop=none jul-cc-pvdz upbe1pbe
 --------------------------------
 ------------------------
 theory_abbreviation pbe0
 ------------------------
 Symbolic Z-matrix:
 Charge =  0 Multiplicity = 6

 SCF Done:  E(UPBE1PBE) =  -3033.11580991     A.U. after   20 cycles
 Normal termination of Gaussian 16 at Tue Feb 11 13:56:22 2020.

 ---------------------------------------------------------------------
 #t pop=none jul-cc-pvdz guess=read upbe1pbe empiricaldispersion=gd3bj
 ---------------------------------------------------------------------
 -----------------------------
 theory_abbreviation pbe0_d3bj
 -----------------------------
 Symbolic Z-matrix:
 Charge =  0 Multiplicity = 6

 SCF Done:  E(UPBE1PBE) =  -3033.15275440     A.U. after    1 cycles
 Normal termination of Gaussian 16 at Tue Feb 11 13:57:32 2020.

 -----------------------------------------
 #t pop=none jul-cc-pvdz guess=read ub3lyp
 -----------------------------------------
 -------------------------
 theory_abbreviation b3lyp
 -------------------------
 Symbolic Z-matrix:
 Charge =  0 Multiplicity = 6

 SCF Done:  E(UB3LYP) =  -3034.32876415     A.U. after   13 cycles
 Normal termination of Gaussian 16 at Tue Feb 11 14:11:16 2020.

 -------------------------------------------------------------------
 #t pop=none jul-cc-pvdz guess=read ub3lyp empiricaldispersion=gd3bj
 -------------------------------------------------------------------
 ------------------------------
 theory_abbreviation b3lyp_d3bj
 ------------------------------
 Symbolic Z-matrix:
 Charge =  0 Multiplicity = 6

 SCF Done:  E(UB3LYP) =  -3034.39751374     A.U. after    1 cycles
 Normal termination of Gaussian 16 at Tue Feb 11 14:12:27 2020.

 ----------------------------------------
 #t pop=none jul-cc-pvdz guess=read ub97d
 ----------------------------------------
 ------------------------
 theory_abbreviation b97d
 ------------------------
 Symbolic Z-matrix:
 Charge =  0 Multiplicity = 6

 SCF Done:  E(UB97D) =  -3034.57877011     A.U. after   16 cycles

 ----------------------------------------------------------------
 #t pop=none jul-cc-pvdz guess=read ub97d empiricaldispersion=gd3
 ----------------------------------------------------------------
 -------------------------
 theory_abbreviation b97d3
 -------------------------
 Symbolic Z-matrix:
 Charge =  0 Multiplicity = 6

 SCF Done:  E(UB97D) =  -3034.57977198     A.U. after    2 cycles
 SCF Done:  E(UBHandHLYP) =  -3033.97183087     A.U. after   16 cycles
 SCF Done:  E(UBHandH) =  -3026.31747212     A.U. after   14 cycles
 SCF Done:  E(ULC-wPBE) =  -3033.46105738     A.U. after   17 cycles
 SCF Done:  E(UB-P86) =  -3034.63499152     A.U. after   17 cycles
 SCF Done:  E(UmPW1LYP) =  -3034.04709889     A.U. after   14 cycles
 SCF Done:  E(UmPW1PBE) =  -3033.89029567     A.U. after   14 cycles
 SCF Done:  E(UmPW3PBE) =  -3033.66248004     A.U. after   14 cycles
 SCF Done:  E(UM11) =  -3033.81069465     A.U. after   16 cycles
 SCF Done:  E(UN12SX) =  -3033.25597249     A.U. after   16 cycles
 SCF Done:  E(UMN12SX) =  -3033.65142529     A.U. after   16 cycles
 SCF Done:  E(UB1B95) =  -3034.38167499     A.U. after   15 cycles
 Normal termination of Gaussian 16 at Tue Feb 11 22:33:20 2020.
 SCF Done:  E(UB3PW91) =  -3033.97788720     A.U. after   14 cycles
 Normal termination of Gaussian 16 at Tue Feb 11 22:48:09 2020.
 SCF Done:  E(UM06L) =  -3034.19274768     A.U. after   18 cycles
 Normal termination of Gaussian 16 at Tue Feb 11 23:09:52 2020.
 Gaussian 16:  ES64L-G16RevA.03 25-Dec-2016

                         Standard orientation:
 ---------------------------------------------------------------------
 Center     Atomic      Atomic             Coordinates (Angstroms)
 Number     Number       Type             X           Y           Z
 ---------------------------------------------------------------------
      1          8           0       -0.389238   -0.211819   -0.553617
      2          6           0       -1.435730   -1.193725   -0.360476
      3          6           0       -2.762617   -0.139570   -0.225843
      4          6           0       -1.965970    1.144191   -0.261804
      5          6           0       -1.865107    1.904638   -1.528783
      6         26           0        1.377399    0.034838    0.027333
      7         17           0        1.818320    2.027395   -0.836630
      8          6           0       -1.576622    1.832395    0.990276
      9         17           0        2.523941   -1.676651   -0.722315
     10         17           0        1.343450    0.148487    2.240578
     11          1           0       -3.337872   -0.227533   -1.151753
     12          1           0       -2.451406    2.422715    1.309872
     13          1           0       -1.329047    1.140571    1.795792
     14          1           0       -0.742855    2.518396    0.826181
     15          1           0       -2.650423    2.678659   -1.504801
     16          1           0       -0.897420    2.409637   -1.600981
     17          1           0       -2.030617    1.273283   -2.402770
     18          6           0       -3.674788   -0.344969    0.976974
     19          1           0       -4.470147    0.408992    1.002820
     20          1           0       -4.155106   -1.325576    0.908801
     21          1           0       -3.135791   -0.303537    1.926146
     22          6           0       -1.197428   -2.020653    0.888070
     23          1           0       -2.017526   -2.726252    1.054714
     24          1           0       -0.274830   -2.597311    0.755158
     25          1           0       -1.069633   -1.399031    1.776216
     26          6           0       -1.542196   -2.046544   -1.610638
     27          1           0       -0.605695   -2.598551   -1.746661
     28          1           0       -2.365924   -2.764654   -1.529375
     29          1           0       -1.698521   -1.422554   -2.495520
 ---------------------------------------------------------------------

 SCF Done:  E(UB97D3) =  -3034.61511812     A.U. after   15 cycles
 Normal termination of Gaussian 16 at Tue Feb 11 23:22:10 2020.
