 Gaussian 16, Revision A.03,

 --------------------------------
 #t pop=none jul-cc-pvdz upbe1pbe
 --------------------------------
 ------------------------
 theory_abbreviation pbe0
 ------------------------
 Symbolic Z-matrix:
 Charge =  0 Multiplicity = 6

 SCF Done:  E(UPBE1PBE) =  -3033.12779875     A.U. after   20 cycles
 Normal termination of Gaussian 16 at Tue Feb 11 13:59:10 2020.

 ---------------------------------------------------------------------
 #t pop=none jul-cc-pvdz guess=read upbe1pbe empiricaldispersion=gd3bj
 ---------------------------------------------------------------------
 -----------------------------
 theory_abbreviation pbe0_d3bj
 -----------------------------
 Symbolic Z-matrix:
 Charge =  0 Multiplicity = 6

 SCF Done:  E(UPBE1PBE) =  -3033.16482408     A.U. after    1 cycles
 Normal termination of Gaussian 16 at Tue Feb 11 14:00:20 2020.

 -----------------------------------------
 #t pop=none jul-cc-pvdz guess=read ub3lyp
 -----------------------------------------
 -------------------------
 theory_abbreviation b3lyp
 -------------------------
 Symbolic Z-matrix:
 Charge =  0 Multiplicity = 6

 SCF Done:  E(UB3LYP) =  -3034.34500454     A.U. after   13 cycles
 Normal termination of Gaussian 16 at Tue Feb 11 14:14:04 2020.

 -------------------------------------------------------------------
 #t pop=none jul-cc-pvdz guess=read ub3lyp empiricaldispersion=gd3bj
 -------------------------------------------------------------------
 ------------------------------
 theory_abbreviation b3lyp_d3bj
 ------------------------------
 Symbolic Z-matrix:
 Charge =  0 Multiplicity = 6

 SCF Done:  E(UB3LYP) =  -3034.41373313     A.U. after    1 cycles
 Normal termination of Gaussian 16 at Tue Feb 11 14:15:13 2020.

 ----------------------------------------
 #t pop=none jul-cc-pvdz guess=read ub97d
 ----------------------------------------
 ------------------------
 theory_abbreviation b97d
 ------------------------
 Symbolic Z-matrix:
 Charge =  0 Multiplicity = 6

 SCF Done:  E(UB97D) =  -3034.59625331     A.U. after   15 cycles

 ----------------------------------------------------------------
 #t pop=none jul-cc-pvdz guess=read ub97d empiricaldispersion=gd3
 ----------------------------------------------------------------
 -------------------------
 theory_abbreviation b97d3
 -------------------------
 Symbolic Z-matrix:
 Charge =  0 Multiplicity = 6

 SCF Done:  E(UB97D) =  -3034.59838822     A.U. after    1 cycles
 SCF Done:  E(UBHandHLYP) =  -3033.98703180     A.U. after   18 cycles
 SCF Done:  E(UBHandH) =  -3026.32622766     A.U. after   14 cycles
 SCF Done:  E(ULC-wPBE) =  -3033.46945163     A.U. after   17 cycles
 SCF Done:  E(UB-P86) =  -3034.64687279     A.U. after   17 cycles
 SCF Done:  E(UmPW1LYP) =  -3034.06330594     A.U. after   14 cycles
 SCF Done:  E(UmPW1PBE) =  -3033.90229547     A.U. after   14 cycles
 SCF Done:  E(UmPW3PBE) =  -3033.67515373     A.U. after   13 cycles
 SCF Done:  E(UM11) =  -3033.82676045     A.U. after   17 cycles
 SCF Done:  E(UN12SX) =  -3033.26655617     A.U. after   17 cycles
 SCF Done:  E(UMN12SX) =  -3033.66896129     A.U. after   16 cycles
 SCF Done:  E(UB1B95) =  -3034.39860145     A.U. after   14 cycles
 Normal termination of Gaussian 16 at Tue Feb 11 22:35:05 2020.
 SCF Done:  E(UB3PW91) =  -3033.99118413     A.U. after   15 cycles
 Normal termination of Gaussian 16 at Tue Feb 11 22:50:37 2020.
 SCF Done:  E(UM06L) =  -3034.21389057     A.U. after   17 cycles
 Normal termination of Gaussian 16 at Tue Feb 11 23:11:07 2020.
 Gaussian 16:  ES64L-G16RevA.03 25-Dec-2016

                         Standard orientation:
 ---------------------------------------------------------------------
 Center     Atomic      Atomic             Coordinates (Angstroms)
 Number     Number       Type             X           Y           Z
 ---------------------------------------------------------------------
      1          8           0        0.287690    0.243549   -0.733729
      2          6           0        1.066337    1.221684   -0.610898
      3          6           0        3.245091   -0.041495    0.213663
      4          6           0        2.439599   -1.028945   -0.231190
      5          6           0        2.487196   -1.494904   -1.659487
      6         26           0       -1.474225   -0.111768    0.056031
      7         17           0       -2.105050   -1.974662   -0.877024
      8          6           0        1.566642   -1.859718    0.665322
      9         17           0       -2.541374    1.695380   -0.579218
     10         17           0       -1.283293   -0.205937    2.239018
     11          1           0        3.912288    0.424056   -0.511580
     12          1           0        2.107989   -2.775637    0.940353
     13          1           0        1.277821   -1.357301    1.589098
     14          1           0        0.658709   -2.181354    0.146175
     15          1           0        2.774701   -2.554025   -1.688898
     16          1           0        1.496358   -1.428338   -2.124109
     17          1           0        3.210619   -0.935641   -2.259934
     18          6           0        3.471801    0.361653    1.644341
     19          1           0        4.385711   -0.111965    2.028541
     20          1           0        3.617087    1.443166    1.743483
     21          1           0        2.652853    0.067099    2.305534
     22          6           0        1.008627    2.094268    0.602355
     23          1           0        1.905122    2.704201    0.715802
     24          1           0        0.148999    2.765344    0.452982
     25          1           0        0.812944    1.514600    1.505105
     26          6           0        1.751520    1.739824   -1.837879
     27          1           0        1.059736    2.475690   -2.275222
     28          1           0        2.686516    2.251988   -1.606862
     29          1           0        1.905190    0.950220   -2.571986
 ---------------------------------------------------------------------

 SCF Done:  E(UB97D3) =  -3034.63326010     A.U. after   16 cycles
 Normal termination of Gaussian 16 at Tue Feb 11 23:23:48 2020.
