 Gaussian 16, Revision A.03,

 --------------------------------
 #t pop=none jul-cc-pvdz upbe1pbe
 --------------------------------
 ------------------------
 theory_abbreviation pbe0
 ------------------------
 Symbolic Z-matrix:
 Charge =  0 Multiplicity = 6

 SCF Done:  E(UPBE1PBE) =  -3033.09306896     A.U. after   21 cycles
 Normal termination of Gaussian 16 at Tue Feb 11 14:00:04 2020.

 ---------------------------------------------------------------------
 #t pop=none jul-cc-pvdz guess=read upbe1pbe empiricaldispersion=gd3bj
 ---------------------------------------------------------------------
 -----------------------------
 theory_abbreviation pbe0_d3bj
 -----------------------------
 Symbolic Z-matrix:
 Charge =  0 Multiplicity = 6

 SCF Done:  E(UPBE1PBE) =  -3033.13070422     A.U. after    1 cycles
 Normal termination of Gaussian 16 at Tue Feb 11 14:01:17 2020.

 -----------------------------------------
 #t pop=none jul-cc-pvdz guess=read ub3lyp
 -----------------------------------------
 -------------------------
 theory_abbreviation b3lyp
 -------------------------
 Symbolic Z-matrix:
 Charge =  0 Multiplicity = 6

 SCF Done:  E(UB3LYP) =  -3034.30604673     A.U. after   14 cycles
 Normal termination of Gaussian 16 at Tue Feb 11 14:16:30 2020.

 -------------------------------------------------------------------
 #t pop=none jul-cc-pvdz guess=read ub3lyp empiricaldispersion=gd3bj
 -------------------------------------------------------------------
 ------------------------------
 theory_abbreviation b3lyp_d3bj
 ------------------------------
 Symbolic Z-matrix:
 Charge =  0 Multiplicity = 6

 SCF Done:  E(UB3LYP) =  -3034.37616341     A.U. after    1 cycles
 Normal termination of Gaussian 16 at Tue Feb 11 14:17:41 2020.

 ----------------------------------------
 #t pop=none jul-cc-pvdz guess=read ub97d
 ----------------------------------------
 ------------------------
 theory_abbreviation b97d
 ------------------------
 Symbolic Z-matrix:
 Charge =  0 Multiplicity = 6

 SCF Done:  E(UB97D) =  -3034.55883172     A.U. after   16 cycles

 ----------------------------------------------------------------
 #t pop=none jul-cc-pvdz guess=read ub97d empiricaldispersion=gd3
 ----------------------------------------------------------------
 -------------------------
 theory_abbreviation b97d3
 -------------------------
 Symbolic Z-matrix:
 Charge =  0 Multiplicity = 6

 SCF Done:  E(UB97D) =  -3034.56010962     A.U. after    1 cycles
 SCF Done:  E(UBHandHLYP) =  -3033.94801360     A.U. after   18 cycles
 SCF Done:  E(UBHandH) =  -3026.29540575     A.U. after   16 cycles
 SCF Done:  E(ULC-wPBE) =  -3033.43323625     A.U. after   19 cycles
 SCF Done:  E(UB-P86) =  -3034.61351005     A.U. after   16 cycles
 SCF Done:  E(UmPW1LYP) =  -3034.02420062     A.U. after   15 cycles
 SCF Done:  E(UmPW1PBE) =  -3033.86754903     A.U. after   15 cycles
 SCF Done:  E(UmPW3PBE) =  -3033.63995375     A.U. after   12 cycles
 SCF Done:  E(UM11) =  -3033.78897208     A.U. after   19 cycles
 SCF Done:  E(UN12SX) =  -3033.23323169     A.U. after   16 cycles
 SCF Done:  E(UMN12SX) =  -3033.63148724     A.U. after   15 cycles
 SCF Done:  E(UB1B95) =  -3034.36165387     A.U. after   16 cycles
 Normal termination of Gaussian 16 at Tue Feb 11 23:06:50 2020.
 SCF Done:  E(UB3PW91) =  -3033.95527437     A.U. after   14 cycles
 Normal termination of Gaussian 16 at Tue Feb 11 23:21:57 2020.
 SCF Done:  E(UM06L) =  -3034.17251405     A.U. after   17 cycles
 Normal termination of Gaussian 16 at Tue Feb 11 23:41:14 2020.
 Gaussian 16:  ES64L-G16RevA.03 25-Dec-2016

                         Standard orientation:
 ---------------------------------------------------------------------
 Center     Atomic      Atomic             Coordinates (Angstroms)
 Number     Number       Type             X           Y           Z
 ---------------------------------------------------------------------
      1          8           0       -0.378459   -0.080995   -0.470546
      2          6           0       -1.289637   -1.073640   -0.421201
      3          6           0       -3.023293   -0.011684   -0.158180
      4          6           0       -2.123088    1.066946   -0.250320
      5          6           0       -1.906041    1.761247   -1.552020
      6         26           0        1.421163    0.049869    0.053132
      7         17           0        1.979827    2.003206   -0.805905
      8          6           0       -1.601925    1.759221    0.963999
      9         17           0        2.384663   -1.747510   -0.779466
     10         17           0        1.417843    0.061436    2.266506
     11          1           0       -3.555582   -0.246706   -1.077742
     12          1           0       -2.396792    2.439713    1.306734
     13          1           0       -1.377964    1.075584    1.783565
     14          1           0       -0.711620    2.348487    0.739603
     15          1           0       -2.570979    2.639265   -1.547542
     16          1           0       -0.877248    2.112839   -1.653110
     17          1           0       -2.182643    1.143725   -2.408686
     18          6           0       -3.753607   -0.383528    1.109429
     19          1           0       -4.642043    0.249136    1.234949
     20          1           0       -4.100185   -1.420609    1.068715
     21          1           0       -3.139804   -0.269408    2.005414
     22          6           0       -1.211673   -1.974018    0.779983
     23          1           0       -2.056331   -2.663219    0.840194
     24          1           0       -0.292105   -2.564599    0.656471
     25          1           0       -1.105296   -1.410855    1.707922
     26          6           0       -1.521830   -1.756518   -1.743557
     27          1           0       -0.596619   -2.305304   -1.969742
     28          1           0       -2.355678   -2.462022   -1.704379
     29          1           0       -1.674774   -1.034048   -2.547518
 ---------------------------------------------------------------------

 SCF Done:  E(UB97D3) =  -3034.59557304     A.U. after   16 cycles
 Normal termination of Gaussian 16 at Tue Feb 11 23:54:13 2020.
