 Gaussian 16, Revision A.03,

 --------------------------------
 #t pop=none jul-cc-pvdz upbe1pbe
 --------------------------------
 ------------------------
 theory_abbreviation pbe0
 ------------------------
 Symbolic Z-matrix:
 Charge =  0 Multiplicity = 6

 SCF Done:  E(UPBE1PBE) =  -3033.13648756     A.U. after   20 cycles
 Normal termination of Gaussian 16 at Wed Feb 12 14:11:39 2020.

 ---------------------------------------------------------------------
 #t pop=none jul-cc-pvdz guess=read upbe1pbe empiricaldispersion=gd3bj
 ---------------------------------------------------------------------
 -----------------------------
 theory_abbreviation pbe0_d3bj
 -----------------------------
 Symbolic Z-matrix:
 Charge =  0 Multiplicity = 6

 SCF Done:  E(UPBE1PBE) =  -3033.17292777     A.U. after    1 cycles
 Normal termination of Gaussian 16 at Wed Feb 12 14:12:49 2020.

 -----------------------------------------
 #t pop=none jul-cc-pvdz guess=read ub3lyp
 -----------------------------------------
 -------------------------
 theory_abbreviation b3lyp
 -------------------------
 Symbolic Z-matrix:
 Charge =  0 Multiplicity = 6

 SCF Done:  E(UB3LYP) =  -3034.35475781     A.U. after   13 cycles
 Normal termination of Gaussian 16 at Wed Feb 12 14:26:17 2020.

 -------------------------------------------------------------------
 #t pop=none jul-cc-pvdz guess=read ub3lyp empiricaldispersion=gd3bj
 -------------------------------------------------------------------
 ------------------------------
 theory_abbreviation b3lyp_d3bj
 ------------------------------
 Symbolic Z-matrix:
 Charge =  0 Multiplicity = 6

 SCF Done:  E(UB3LYP) =  -3034.42222886     A.U. after    1 cycles
 Normal termination of Gaussian 16 at Wed Feb 12 14:27:27 2020.

 ----------------------------------------
 #t pop=none jul-cc-pvdz guess=read ub97d
 ----------------------------------------
 ------------------------
 theory_abbreviation b97d
 ------------------------
 Symbolic Z-matrix:
 Charge =  0 Multiplicity = 6

 SCF Done:  E(UB97D) =  -3034.60504763     A.U. after   16 cycles

 ----------------------------------------------------------------
 #t pop=none jul-cc-pvdz guess=read ub97d empiricaldispersion=gd3
 ----------------------------------------------------------------
 -------------------------
 theory_abbreviation b97d3
 -------------------------
 Symbolic Z-matrix:
 Charge =  0 Multiplicity = 6

 SCF Done:  E(UB97D) =  -3034.60688201     A.U. after    1 cycles
 SCF Done:  E(UBHandHLYP) =  -3033.99679464     A.U. after   18 cycles
 SCF Done:  E(UBHandH) =  -3026.33309966     A.U. after   14 cycles
 SCF Done:  E(ULC-wPBE) =  -3033.47809622     A.U. after   17 cycles
 SCF Done:  E(UB-P86) =  -3034.65428837     A.U. after   17 cycles
 SCF Done:  E(UmPW1LYP) =  -3034.07314232     A.U. after   13 cycles
 SCF Done:  E(UmPW1PBE) =  -3033.91093544     A.U. after   14 cycles
 SCF Done:  E(UmPW3PBE) =  -3033.68387900     A.U. after   13 cycles
 SCF Done:  E(UM11) =  -3033.83567556     A.U. after   17 cycles
 SCF Done:  E(UN12SX) =  -3033.27542257     A.U. after   16 cycles
 SCF Done:  E(UMN12SX) =  -3033.67803988     A.U. after   16 cycles
 SCF Done:  E(UB1B95) =  -3034.40737877     A.U. after   14 cycles
 Normal termination of Gaussian 16 at Wed Feb 12 22:05:35 2020.
 SCF Done:  E(UB3PW91) =  -3034.00009643     A.U. after   14 cycles
 Normal termination of Gaussian 16 at Wed Feb 12 22:19:52 2020.
 SCF Done:  E(UM06L) =  -3034.22255586     A.U. after   17 cycles
 Normal termination of Gaussian 16 at Wed Feb 12 22:38:34 2020.
 Gaussian 16:  ES64L-G16RevA.03 25-Dec-2016

                         Standard orientation:
 ---------------------------------------------------------------------
 Center     Atomic      Atomic             Coordinates (Angstroms)
 Number     Number       Type             X           Y           Z
 ---------------------------------------------------------------------
      1          8           0        0.219151    0.382195   -0.849522
      2          6           0        0.968409    1.364533   -0.650479
      3          6           0        3.149343    0.032016    0.493163
      4          6           0        2.598221   -0.959642   -0.233451
      5          6           0        2.967902   -1.173716   -1.676813
      6         26           0       -1.472283   -0.158633    0.027474
      7         17           0       -2.084421   -1.961194   -1.020306
      8          6           0        1.658543   -1.992653    0.317908
      9         17           0       -2.686056    1.621521   -0.360755
     10         17           0       -1.091500   -0.432171    2.170038
     11          1           0        3.878897    0.670986   -0.006173
     12          1           0        2.166492   -2.966125    0.355668
     13          1           0        1.292204   -1.766246    1.318840
     14          1           0        0.795400   -2.127229   -0.344708
     15          1           0        3.415892   -2.167659   -1.806257
     16          1           0        2.074732   -1.153666   -2.314904
     17          1           0        3.685646   -0.432484   -2.040433
     18          6           0        3.006913    0.256068    1.973946
     19          1           0        3.848448   -0.202027    2.511693
     20          1           0        3.024623    1.323133    2.221359
     21          1           0        2.086706   -0.168935    2.382853
     22          6           0        0.834731    2.206800    0.577727
     23          1           0        1.718760    2.822220    0.749134
     24          1           0       -0.026302    2.870102    0.406144
     25          1           0        0.607502    1.602040    1.456298
     26          6           0        1.776651    1.889577   -1.795930
     27          1           0        1.205153    2.731227   -2.214745
     28          1           0        2.742683    2.277589   -1.468717
     29          1           0        1.898659    1.137408   -2.573248
 ---------------------------------------------------------------------

 SCF Done:  E(UB97D3) =  -3034.64137560     A.U. after   16 cycles
 Normal termination of Gaussian 16 at Wed Feb 12 22:51:15 2020.
