 Gaussian 16, Revision A.03,

 --------------------------------
 #t pop=none jul-cc-pvdz upbe1pbe
 --------------------------------
 ------------------------
 theory_abbreviation pbe0
 ------------------------
 Symbolic Z-matrix:
 Charge =  0 Multiplicity = 6

 SCF Done:  E(UPBE1PBE) =  -3033.10712263     A.U. after   20 cycles
 Normal termination of Gaussian 16 at Tue Feb 11 13:54:52 2020.

 ---------------------------------------------------------------------
 #t pop=none jul-cc-pvdz guess=read upbe1pbe empiricaldispersion=gd3bj
 ---------------------------------------------------------------------
 -----------------------------
 theory_abbreviation pbe0_d3bj
 -----------------------------
 Symbolic Z-matrix:
 Charge =  0 Multiplicity = 6

 SCF Done:  E(UPBE1PBE) =  -3033.14455223     A.U. after    1 cycles
 Normal termination of Gaussian 16 at Tue Feb 11 13:56:00 2020.

 -----------------------------------------
 #t pop=none jul-cc-pvdz guess=read ub3lyp
 -----------------------------------------
 -------------------------
 theory_abbreviation b3lyp
 -------------------------
 Symbolic Z-matrix:
 Charge =  0 Multiplicity = 6

 SCF Done:  E(UB3LYP) =  -3034.31878955     A.U. after   14 cycles
 Normal termination of Gaussian 16 at Tue Feb 11 14:10:14 2020.

 -------------------------------------------------------------------
 #t pop=none jul-cc-pvdz guess=read ub3lyp empiricaldispersion=gd3bj
 -------------------------------------------------------------------
 ------------------------------
 theory_abbreviation b3lyp_d3bj
 ------------------------------
 Symbolic Z-matrix:
 Charge =  0 Multiplicity = 6

 SCF Done:  E(UB3LYP) =  -3034.38854198     A.U. after    1 cycles
 Normal termination of Gaussian 16 at Tue Feb 11 14:11:22 2020.

 ----------------------------------------
 #t pop=none jul-cc-pvdz guess=read ub97d
 ----------------------------------------
 ------------------------
 theory_abbreviation b97d
 ------------------------
 Symbolic Z-matrix:
 Charge =  0 Multiplicity = 6

 SCF Done:  E(UB97D) =  -3034.56853161     A.U. after   16 cycles

 ----------------------------------------------------------------
 #t pop=none jul-cc-pvdz guess=read ub97d empiricaldispersion=gd3
 ----------------------------------------------------------------
 -------------------------
 theory_abbreviation b97d3
 -------------------------
 Symbolic Z-matrix:
 Charge =  0 Multiplicity = 6

 SCF Done:  E(UB97D) =  -3034.56969961     A.U. after    1 cycles
 SCF Done:  E(UBHandHLYP) =  -3033.96451150     A.U. after   15 cycles
 SCF Done:  E(UBHandH) =  -3026.31407492     A.U. after   14 cycles
 SCF Done:  E(ULC-wPBE) =  -3033.45327494     A.U. after   16 cycles
 SCF Done:  E(UB-P86) =  -3034.62489473     A.U. after   15 cycles
 SCF Done:  E(UmPW1LYP) =  -3034.03758206     A.U. after   13 cycles
 SCF Done:  E(UmPW1PBE) =  -3033.88135237     A.U. after   13 cycles
 SCF Done:  E(UmPW3PBE) =  -3033.65320083     A.U. after   13 cycles
 SCF Done:  E(UM11) =  -3033.80433376     A.U. after   16 cycles
 SCF Done:  E(UN12SX) =  -3033.24716656     A.U. after   15 cycles
 SCF Done:  E(UMN12SX) =  -3033.64423507     A.U. after   16 cycles
 SCF Done:  E(UB1B95) =  -3034.37309658     A.U. after   14 cycles
 Normal termination of Gaussian 16 at Tue Feb 11 22:08:32 2020.
 SCF Done:  E(UB3PW91) =  -3033.96834065     A.U. after   13 cycles
 Normal termination of Gaussian 16 at Tue Feb 11 22:21:48 2020.
 SCF Done:  E(UM06L) =  -3034.18527865     A.U. after   18 cycles
 Normal termination of Gaussian 16 at Tue Feb 11 22:41:30 2020.
 Gaussian 16:  ES64L-G16RevA.03 25-Dec-2016

                         Standard orientation:
 ---------------------------------------------------------------------
 Center     Atomic      Atomic             Coordinates (Angstroms)
 Number     Number       Type             X           Y           Z
 ---------------------------------------------------------------------
      1          8           0       -0.279694   -0.401438   -0.724623
      2          6           0       -1.427447   -1.211934   -0.496160
      3          6           0       -2.592177   -0.230272   -0.006521
      4          6           0       -2.044262    1.149005   -0.232252
      5          6           0       -1.975209    1.727657   -1.581334
      6         26           0        1.345922    0.024131   -0.001720
      7         17           0        1.629946    2.092201   -0.799199
      8          6           0       -1.617206    1.981644    0.889512
      9         17           0        2.869546   -1.462448   -0.517412
     10         17           0        1.001262    0.159019    2.225434
     11          1           0       -3.427283   -0.349508   -0.709833
     12          1           0       -2.439887    2.080897    1.610776
     13          1           0       -0.830403    1.439345    1.452045
     14          1           0       -1.235923    2.956094    0.585951
     15          1           0       -2.593505    2.639506   -1.591234
     16          1           0       -0.939267    2.065659   -1.745117
     17          1           0       -2.289119    1.051792   -2.374300
     18          6           0       -3.111746   -0.470796    1.414595
     19          1           0       -3.917319    0.230262    1.659715
     20          1           0       -3.524396   -1.479142    1.490847
     21          1           0       -2.324964   -0.372850    2.166152
     22          6           0       -1.097200   -2.303612    0.522156
     23          1           0       -1.936494   -2.988242    0.680147
     24          1           0       -0.257149   -2.879706    0.119999
     25          1           0       -0.783311   -1.886282    1.480189
     26          6           0       -1.814030   -1.854549   -1.831913
     27          1           0       -0.982625   -2.474490   -2.179135
     28          1           0       -2.704930   -2.484145   -1.725871
     29          1           0       -2.007026   -1.097074   -2.597107
 ---------------------------------------------------------------------

 SCF Done:  E(UB97D3) =  -3034.60489411     A.U. after   16 cycles
 Normal termination of Gaussian 16 at Tue Feb 11 22:55:42 2020.
