 Gaussian 16, Revision A.03,

 --------------------------------
 #t pop=none jul-cc-pvdz upbe1pbe
 --------------------------------
 ------------------------
 theory_abbreviation pbe0
 ------------------------
 Symbolic Z-matrix:
 Charge =  0 Multiplicity = 6

 SCF Done:  E(UPBE1PBE) =  -3033.13082372     A.U. after   20 cycles
 Normal termination of Gaussian 16 at Tue Feb 11 13:59:16 2020.

 ---------------------------------------------------------------------
 #t pop=none jul-cc-pvdz guess=read upbe1pbe empiricaldispersion=gd3bj
 ---------------------------------------------------------------------
 -----------------------------
 theory_abbreviation pbe0_d3bj
 -----------------------------
 Symbolic Z-matrix:
 Charge =  0 Multiplicity = 6

 SCF Done:  E(UPBE1PBE) =  -3033.16756126     A.U. after    1 cycles
 Normal termination of Gaussian 16 at Tue Feb 11 14:00:27 2020.

 -----------------------------------------
 #t pop=none jul-cc-pvdz guess=read ub3lyp
 -----------------------------------------
 -------------------------
 theory_abbreviation b3lyp
 -------------------------
 Symbolic Z-matrix:
 Charge =  0 Multiplicity = 6

 SCF Done:  E(UB3LYP) =  -3034.34852903     A.U. after   13 cycles
 Normal termination of Gaussian 16 at Tue Feb 11 14:14:11 2020.

 -------------------------------------------------------------------
 #t pop=none jul-cc-pvdz guess=read ub3lyp empiricaldispersion=gd3bj
 -------------------------------------------------------------------
 ------------------------------
 theory_abbreviation b3lyp_d3bj
 ------------------------------
 Symbolic Z-matrix:
 Charge =  0 Multiplicity = 6

 SCF Done:  E(UB3LYP) =  -3034.41663995     A.U. after    1 cycles
 Normal termination of Gaussian 16 at Tue Feb 11 14:15:21 2020.

 ----------------------------------------
 #t pop=none jul-cc-pvdz guess=read ub97d
 ----------------------------------------
 ------------------------
 theory_abbreviation b97d
 ------------------------
 Symbolic Z-matrix:
 Charge =  0 Multiplicity = 6

 SCF Done:  E(UB97D) =  -3034.59906791     A.U. after   15 cycles

 ----------------------------------------------------------------
 #t pop=none jul-cc-pvdz guess=read ub97d empiricaldispersion=gd3
 ----------------------------------------------------------------
 -------------------------
 theory_abbreviation b97d3
 -------------------------
 Symbolic Z-matrix:
 Charge =  0 Multiplicity = 6

 SCF Done:  E(UB97D) =  -3034.60127880     A.U. after    3 cycles
 SCF Done:  E(UBHandHLYP) =  -3033.99065847     A.U. after   18 cycles
 SCF Done:  E(UBHandH) =  -3026.32844390     A.U. after   14 cycles
 SCF Done:  E(ULC-wPBE) =  -3033.47265819     A.U. after   17 cycles
 SCF Done:  E(UB-P86) =  -3034.64925419     A.U. after   17 cycles
 SCF Done:  E(UmPW1LYP) =  -3034.06686334     A.U. after   14 cycles
 SCF Done:  E(UmPW1PBE) =  -3033.90533330     A.U. after   14 cycles
 SCF Done:  E(UmPW3PBE) =  -3033.67821196     A.U. after   13 cycles
 SCF Done:  E(UM11) =  -3033.83004021     A.U. after   17 cycles
 SCF Done:  E(UN12SX) =  -3033.26960081     A.U. after   17 cycles
 SCF Done:  E(UMN12SX) =  -3033.67223209     A.U. after   16 cycles
 SCF Done:  E(UB1B95) =  -3034.40172260     A.U. after   14 cycles
 Normal termination of Gaussian 16 at Tue Feb 11 22:35:36 2020.
 SCF Done:  E(UB3PW91) =  -3033.99434773     A.U. after   15 cycles
 Normal termination of Gaussian 16 at Tue Feb 11 22:51:05 2020.
 SCF Done:  E(UM06L) =  -3034.21698626     A.U. after   17 cycles
 Normal termination of Gaussian 16 at Tue Feb 11 23:11:06 2020.
 Gaussian 16:  ES64L-G16RevA.03 25-Dec-2016

                         Standard orientation:
 ---------------------------------------------------------------------
 Center     Atomic      Atomic             Coordinates (Angstroms)
 Number     Number       Type             X           Y           Z
 ---------------------------------------------------------------------
      1          8           0        0.277443    0.284302   -0.754424
      2          6           0        1.025386    1.279486   -0.614766
      3          6           0        3.266909   -0.053753    0.257327
      4          6           0        2.471408   -1.016638   -0.250356
      5          6           0        2.556356   -1.418764   -1.697446
      6         26           0       -1.474275   -0.126152    0.055953
      7         17           0       -2.101964   -1.965135   -0.920945
      8          6           0        1.575301   -1.888139    0.583481
      9         17           0       -2.571624    1.682849   -0.517131
     10         17           0       -1.249530   -0.272164    2.231133
     11          1           0        3.950911    0.444293   -0.430442
     12          1           0        2.095123   -2.831259    0.802290
     13          1           0        1.286553   -1.441874    1.535591
     14          1           0        0.666605   -2.159362    0.037055
     15          1           0        2.856602   -2.472276   -1.771057
     16          1           0        1.575929   -1.340889   -2.182490
     17          1           0        3.285810   -0.823841   -2.255241
     18          6           0        3.434172    0.313893    1.705416
     19          1           0        4.346377   -0.144617    2.111457
     20          1           0        3.546116    1.396310    1.837572
     21          1           0        2.599777   -0.018611    2.328363
     22          6           0        0.961912    2.122431    0.618137
     23          1           0        1.855344    2.735115    0.742932
     24          1           0        0.096552    2.790667    0.492203
     25          1           0        0.777020    1.516428    1.506004
     26          6           0        1.742832    1.808688   -1.816661
     27          1           0        1.087986    2.584723   -2.241244
     28          1           0        2.692051    2.278855   -1.555311
     29          1           0        1.880195    1.034310   -2.569822
 ---------------------------------------------------------------------

 SCF Done:  E(UB97D3) =  -3034.63591912     A.U. after   16 cycles
 Normal termination of Gaussian 16 at Tue Feb 11 23:23:50 2020.
