 Gaussian 16, Revision A.03,

 --------------------------------
 #t pop=none jul-cc-pvdz upbe1pbe
 --------------------------------
 ------------------------
 theory_abbreviation pbe0
 ------------------------
 Symbolic Z-matrix:
 Charge =  0 Multiplicity = 6

 SCF Done:  E(UPBE1PBE) =  -3033.09688967     A.U. after   21 cycles
 Normal termination of Gaussian 16 at Tue Feb 11 14:46:59 2020.

 ---------------------------------------------------------------------
 #t pop=none jul-cc-pvdz guess=read upbe1pbe empiricaldispersion=gd3bj
 ---------------------------------------------------------------------
 -----------------------------
 theory_abbreviation pbe0_d3bj
 -----------------------------
 Symbolic Z-matrix:
 Charge =  0 Multiplicity = 6

 SCF Done:  E(UPBE1PBE) =  -3033.13386971     A.U. after    1 cycles
 Normal termination of Gaussian 16 at Tue Feb 11 14:48:11 2020.

 -----------------------------------------
 #t pop=none jul-cc-pvdz guess=read ub3lyp
 -----------------------------------------
 -------------------------
 theory_abbreviation b3lyp
 -------------------------
 Symbolic Z-matrix:
 Charge =  0 Multiplicity = 6

 SCF Done:  E(UB3LYP) =  -3034.31104980     A.U. after   13 cycles
 Normal termination of Gaussian 16 at Tue Feb 11 15:02:20 2020.

 -------------------------------------------------------------------
 #t pop=none jul-cc-pvdz guess=read ub3lyp empiricaldispersion=gd3bj
 -------------------------------------------------------------------
 ------------------------------
 theory_abbreviation b3lyp_d3bj
 ------------------------------
 Symbolic Z-matrix:
 Charge =  0 Multiplicity = 6

 SCF Done:  E(UB3LYP) =  -3034.37980868     A.U. after    1 cycles
 Normal termination of Gaussian 16 at Tue Feb 11 15:03:32 2020.

 ----------------------------------------
 #t pop=none jul-cc-pvdz guess=read ub97d
 ----------------------------------------
 ------------------------
 theory_abbreviation b97d
 ------------------------
 Symbolic Z-matrix:
 Charge =  0 Multiplicity = 6

 SCF Done:  E(UB97D) =  -3034.56313087     A.U. after   15 cycles

 ----------------------------------------------------------------
 #t pop=none jul-cc-pvdz guess=read ub97d empiricaldispersion=gd3
 ----------------------------------------------------------------
 -------------------------
 theory_abbreviation b97d3
 -------------------------
 Symbolic Z-matrix:
 Charge =  0 Multiplicity = 6

 SCF Done:  E(UB97D) =  -3034.56425111     A.U. after    1 cycles
 SCF Done:  E(UBHandHLYP) =  -3033.95087540     A.U. after   17 cycles
 SCF Done:  E(UBHandH) =  -3026.29566431     A.U. after   15 cycles
 SCF Done:  E(ULC-wPBE) =  -3033.43856750     A.U. after   18 cycles
 SCF Done:  E(UB-P86) =  -3034.61891110     A.U. after   16 cycles
 SCF Done:  E(UmPW1LYP) =  -3034.02893022     A.U. after   15 cycles
 SCF Done:  E(UmPW1PBE) =  -3033.87145619     A.U. after   15 cycles
 SCF Done:  E(UmPW3PBE) =  -3033.64420589     A.U. after   14 cycles
 SCF Done:  E(UM11) =  -3033.79087857     A.U. after   16 cycles
 SCF Done:  E(UN12SX) =  -3033.23722762     A.U. after   16 cycles
 SCF Done:  E(UMN12SX) =  -3033.63226880     A.U. after   15 cycles
 SCF Done:  E(UB1B95) =  -3034.36310252     A.U. after   14 cycles
 Normal termination of Gaussian 16 at Tue Feb 11 23:46:26 2020.
 SCF Done:  E(UB3PW91) =  -3033.95965769     A.U. after   13 cycles
 Normal termination of Gaussian 16 at Wed Feb 12 00:01:16 2020.
 SCF Done:  E(UM06L) =  -3034.17431471     A.U. after   18 cycles
 Normal termination of Gaussian 16 at Wed Feb 12 00:21:46 2020.
 Gaussian 16:  ES64L-G16RevA.03 25-Dec-2016

                         Standard orientation:
 ---------------------------------------------------------------------
 Center     Atomic      Atomic             Coordinates (Angstroms)
 Number     Number       Type             X           Y           Z
 ---------------------------------------------------------------------
      1          8           0       -0.422917   -0.149188   -0.471738
      2          6           0       -1.348383   -1.229912   -0.373501
      3          6           0       -2.904360   -0.071004   -0.177632
      4          6           0       -1.984178    1.088428   -0.296222
      5          6           0       -1.858107    1.772902   -1.611922
      6         26           0        1.379842    0.057646    0.051751
      7         17           0        1.864253    2.014331   -0.850524
      8          6           0       -1.572879    1.859927    0.907885
      9         17           0        2.425551   -1.706682   -0.731222
     10         17           0        1.372597    0.151526    2.261311
     11          1           0       -3.492683   -0.219433   -1.083800
     12          1           0       -2.421620    2.510084    1.172742
     13          1           0       -1.360427    1.220983    1.765326
     14          1           0       -0.706004    2.490490    0.701199
     15          1           0       -2.638025    2.550698   -1.640815
     16          1           0       -0.884172    2.256684   -1.715893
     17          1           0       -2.032419    1.090976   -2.446062
     18          6           0       -3.692712   -0.284507    1.094709
     19          1           0       -4.474527    0.476835    1.215764
     20          1           0       -4.189793   -1.258900    1.063293
     21          1           0       -3.064482   -0.261012    1.988531
     22          6           0       -1.164051   -2.073551    0.856116
     23          1           0       -1.978114   -2.796603    0.963231
     24          1           0       -0.223143   -2.631535    0.753218
     25          1           0       -1.085815   -1.466848    1.759830
     26          6           0       -1.449136   -1.985024   -1.671028
     27          1           0       -0.483141   -2.473642   -1.856362
     28          1           0       -2.229075   -2.751437   -1.625707
     29          1           0       -1.647109   -1.312163   -2.509162
 ---------------------------------------------------------------------

 SCF Done:  E(UB97D3) =  -3034.59936165     A.U. after   16 cycles
 Normal termination of Gaussian 16 at Wed Feb 12 00:34:54 2020.
