 Gaussian 16, Revision A.03,

 --------------------------------
 #t pop=none jul-cc-pvdz upbe1pbe
 --------------------------------
 ------------------------
 theory_abbreviation pbe0
 ------------------------
 Symbolic Z-matrix:
 Charge =  0 Multiplicity = 6

 SCF Done:  E(UPBE1PBE) =  -3033.11523419     A.U. after   21 cycles
 Normal termination of Gaussian 16 at Tue Feb 11 13:58:42 2020.

 ---------------------------------------------------------------------
 #t pop=none jul-cc-pvdz guess=read upbe1pbe empiricaldispersion=gd3bj
 ---------------------------------------------------------------------
 -----------------------------
 theory_abbreviation pbe0_d3bj
 -----------------------------
 Symbolic Z-matrix:
 Charge =  0 Multiplicity = 6

 SCF Done:  E(UPBE1PBE) =  -3033.15115533     A.U. after    1 cycles
 Normal termination of Gaussian 16 at Tue Feb 11 13:59:52 2020.

 -----------------------------------------
 #t pop=none jul-cc-pvdz guess=read ub3lyp
 -----------------------------------------
 -------------------------
 theory_abbreviation b3lyp
 -------------------------
 Symbolic Z-matrix:
 Charge =  0 Multiplicity = 6

 SCF Done:  E(UB3LYP) =  -3034.32945085     A.U. after   14 cycles
 Normal termination of Gaussian 16 at Tue Feb 11 14:14:23 2020.

 -------------------------------------------------------------------
 #t pop=none jul-cc-pvdz guess=read ub3lyp empiricaldispersion=gd3bj
 -------------------------------------------------------------------
 ------------------------------
 theory_abbreviation b3lyp_d3bj
 ------------------------------
 Symbolic Z-matrix:
 Charge =  0 Multiplicity = 6

 SCF Done:  E(UB3LYP) =  -3034.39643300     A.U. after    1 cycles
 Normal termination of Gaussian 16 at Tue Feb 11 14:15:33 2020.

 ----------------------------------------
 #t pop=none jul-cc-pvdz guess=read ub97d
 ----------------------------------------
 ------------------------
 theory_abbreviation b97d
 ------------------------
 Symbolic Z-matrix:
 Charge =  0 Multiplicity = 6

 SCF Done:  E(UB97D) =  -3034.58204397     A.U. after   17 cycles

 ----------------------------------------------------------------
 #t pop=none jul-cc-pvdz guess=read ub97d empiricaldispersion=gd3
 ----------------------------------------------------------------
 -------------------------
 theory_abbreviation b97d3
 -------------------------
 Symbolic Z-matrix:
 Charge =  0 Multiplicity = 6

 SCF Done:  E(UB97D) =  -3034.58230273     A.U. after    1 cycles
 SCF Done:  E(UBHandHLYP) =  -3033.96885456     A.U. after   17 cycles
 SCF Done:  E(UBHandH) =  -3026.31441291     A.U. after   16 cycles
 SCF Done:  E(ULC-wPBE) =  -3033.45244256     A.U. after   18 cycles
 SCF Done:  E(UB-P86) =  -3034.63403607     A.U. after   16 cycles
 SCF Done:  E(UmPW1LYP) =  -3034.04707092     A.U. after   15 cycles
 SCF Done:  E(UmPW1PBE) =  -3033.88980665     A.U. after   16 cycles
 SCF Done:  E(UmPW3PBE) =  -3033.66265143     A.U. after   15 cycles
 SCF Done:  E(UM11) =  -3033.81051556     A.U. after   19 cycles
 SCF Done:  E(UN12SX) =  -3033.25474724     A.U. after   17 cycles
 SCF Done:  E(UMN12SX) =  -3033.65062960     A.U. after   17 cycles
 SCF Done:  E(UB1B95) =  -3034.38271116     A.U. after   16 cycles
 Normal termination of Gaussian 16 at Tue Feb 11 22:58:27 2020.
 SCF Done:  E(UB3PW91) =  -3033.97825271     A.U. after   15 cycles
 Normal termination of Gaussian 16 at Tue Feb 11 23:13:40 2020.
 SCF Done:  E(UM06L) =  -3034.19467475     A.U. after   16 cycles
 Normal termination of Gaussian 16 at Tue Feb 11 23:31:09 2020.
 Gaussian 16:  ES64L-G16RevA.03 25-Dec-2016

                         Standard orientation:
 ---------------------------------------------------------------------
 Center     Atomic      Atomic             Coordinates (Angstroms)
 Number     Number       Type             X           Y           Z
 ---------------------------------------------------------------------
      1          8           0       -0.317054   -0.143143   -0.448206
      2          6           0       -1.186627   -1.097511   -0.241520
      3          6           0       -2.615074   -0.303752    0.822430
      4          6           0       -3.014745    0.692352   -0.064945
      5          6           0       -4.103880    0.471085   -1.058713
      6         26           0        1.518040    0.174617   -0.093876
      7         17           0        1.839373    2.157668   -0.977254
      8          6           0       -2.286052    1.976570   -0.121898
      9         17           0        2.536642   -1.510520   -1.071697
     10         17           0        1.810340    0.170975    2.094503
     11          1           0       -3.282475   -1.164515    0.868025
     12          1           0       -2.746090    2.702633   -0.794917
     13          1           0       -2.133598    2.419608    0.867037
     14          1           0       -1.271451    1.730136   -0.494696
     15          1           0       -4.933112    1.148655   -0.807624
     16          1           0       -3.782722    0.748941   -2.070306
     17          1           0       -4.485008   -0.551608   -1.058983
     18          6           0       -1.958737    0.082476    2.139411
     19          1           0       -2.580749    0.814019    2.667312
     20          1           0       -1.851094   -0.786838    2.789579
     21          1           0       -0.967756    0.518584    1.995958
     22          6           0       -0.749769   -2.201632    0.717302
     23          1           0       -1.572931   -2.865336    0.993030
     24          1           0        0.002799   -2.785863    0.172711
     25          1           0       -0.268787   -1.802293    1.609426
     26          6           0       -1.818563   -1.634244   -1.517081
     27          1           0       -1.058664   -2.256954   -2.003334
     28          1           0       -2.697459   -2.255088   -1.322946
     29          1           0       -2.070856   -0.829127   -2.208156
 ---------------------------------------------------------------------

 SCF Done:  E(UB97D3) =  -3034.61656842     A.U. after   16 cycles
 Normal termination of Gaussian 16 at Tue Feb 11 23:43:45 2020.
