 Gaussian 16, Revision A.03,

 --------------------------------
 #t pop=none jul-cc-pvdz upbe1pbe
 --------------------------------
 ------------------------
 theory_abbreviation pbe0
 ------------------------
 Symbolic Z-matrix:
 Charge =  0 Multiplicity = 6

 SCF Done:  E(UPBE1PBE) =  -3033.10753611     A.U. after   21 cycles
 Normal termination of Gaussian 16 at Tue Feb 11 13:59:57 2020.

 ---------------------------------------------------------------------
 #t pop=none jul-cc-pvdz guess=read upbe1pbe empiricaldispersion=gd3bj
 ---------------------------------------------------------------------
 -----------------------------
 theory_abbreviation pbe0_d3bj
 -----------------------------
 Symbolic Z-matrix:
 Charge =  0 Multiplicity = 6

 SCF Done:  E(UPBE1PBE) =  -3033.14505457     A.U. after    1 cycles
 Normal termination of Gaussian 16 at Tue Feb 11 14:01:10 2020.

 -----------------------------------------
 #t pop=none jul-cc-pvdz guess=read ub3lyp
 -----------------------------------------
 -------------------------
 theory_abbreviation b3lyp
 -------------------------
 Symbolic Z-matrix:
 Charge =  0 Multiplicity = 6

 SCF Done:  E(UB3LYP) =  -3034.32097670     A.U. after   13 cycles
 Normal termination of Gaussian 16 at Tue Feb 11 14:15:17 2020.

 -------------------------------------------------------------------
 #t pop=none jul-cc-pvdz guess=read ub3lyp empiricaldispersion=gd3bj
 -------------------------------------------------------------------
 ------------------------------
 theory_abbreviation b3lyp_d3bj
 ------------------------------
 Symbolic Z-matrix:
 Charge =  0 Multiplicity = 6

 SCF Done:  E(UB3LYP) =  -3034.39090870     A.U. after    1 cycles
 Normal termination of Gaussian 16 at Tue Feb 11 14:16:29 2020.

 ----------------------------------------
 #t pop=none jul-cc-pvdz guess=read ub97d
 ----------------------------------------
 ------------------------
 theory_abbreviation b97d
 ------------------------
 Symbolic Z-matrix:
 Charge =  0 Multiplicity = 6

 SCF Done:  E(UB97D) =  -3034.57428566     A.U. after   15 cycles

 ----------------------------------------------------------------
 #t pop=none jul-cc-pvdz guess=read ub97d empiricaldispersion=gd3
 ----------------------------------------------------------------
 -------------------------
 theory_abbreviation b97d3
 -------------------------
 Symbolic Z-matrix:
 Charge =  0 Multiplicity = 6

 SCF Done:  E(UB97D) =  -3034.57485145     A.U. after    2 cycles
 SCF Done:  E(UBHandHLYP) =  -3033.96313095     A.U. after   17 cycles
 SCF Done:  E(UBHandH) =  -3026.31009541     A.U. after   16 cycles
 SCF Done:  E(ULC-wPBE) =  -3033.44776453     A.U. after   18 cycles
 SCF Done:  E(UB-P86) =  -3034.62699397     A.U. after   17 cycles
 SCF Done:  E(UmPW1LYP) =  -3034.03919392     A.U. after   14 cycles
 SCF Done:  E(UmPW1PBE) =  -3033.88193554     A.U. after   13 cycles
 SCF Done:  E(UmPW3PBE) =  -3033.65437634     A.U. after   14 cycles
 SCF Done:  E(UM11) =  -3033.80550584     A.U. after   19 cycles
 SCF Done:  E(UN12SX) =  -3033.24727139     A.U. after   17 cycles
 SCF Done:  E(UMN12SX) =  -3033.64598543     A.U. after   16 cycles
 SCF Done:  E(UB1B95) =  -3034.37616174     A.U. after   16 cycles
 Normal termination of Gaussian 16 at Tue Feb 11 23:10:58 2020.
 SCF Done:  E(UB3PW91) =  -3033.96978172     A.U. after   15 cycles
 Normal termination of Gaussian 16 at Tue Feb 11 23:26:55 2020.
 SCF Done:  E(UM06L) =  -3034.18852395     A.U. after   18 cycles
 Normal termination of Gaussian 16 at Tue Feb 11 23:47:07 2020.
 Gaussian 16:  ES64L-G16RevA.03 25-Dec-2016

                         Standard orientation:
 ---------------------------------------------------------------------
 Center     Atomic      Atomic             Coordinates (Angstroms)
 Number     Number       Type             X           Y           Z
 ---------------------------------------------------------------------
      1          8           0       -0.329450   -0.127720   -0.671278
      2          6           0       -1.251211   -1.051831   -0.577003
      3          6           0       -2.921043   -0.175057    0.226382
      4          6           0       -2.367636    1.029988   -0.156002
      5          6           0       -2.560983    1.596558   -1.521374
      6         26           0        1.417083    0.086270    0.022765
      7         17           0        2.009452    2.065667   -0.724480
      8          6           0       -1.558520    1.871170    0.768005
      9         17           0        2.550822   -1.629079   -0.754013
     10         17           0        1.242013    0.027755    2.234478
     11          1           0       -3.653382   -0.600792   -0.456321
     12          1           0       -2.242014    2.611015    1.213434
     13          1           0       -1.099971    1.311732    1.582539
     14          1           0       -0.782696    2.421981    0.229258
     15          1           0       -2.892636    2.638306   -1.426877
     16          1           0       -1.592363    1.624626   -2.036225
     17          1           0       -3.290959    1.049164   -2.120051
     18          6           0       -3.111857   -0.559598    1.677718
     19          1           0       -3.962573   -0.003878    2.091789
     20          1           0       -3.340027   -1.622967    1.779048
     21          1           0       -2.240216   -0.338894    2.297383
     22          6           0       -1.009715   -2.157253    0.426673
     23          1           0       -1.857508   -2.839110    0.512642
     24          1           0       -0.151036   -2.719408    0.033338
     25          1           0       -0.723157   -1.773180    1.405300
     26          6           0       -1.784051   -1.532623   -1.913576
     27          1           0       -0.963754   -2.101632   -2.369891
     28          1           0       -2.648014   -2.192641   -1.807710
     29          1           0       -2.017005   -0.707541   -2.586017
 ---------------------------------------------------------------------

 SCF Done:  E(UB97D3) =  -3034.60997212     A.U. after   15 cycles
 Normal termination of Gaussian 16 at Tue Feb 11 23:59:10 2020.
