 Gaussian 16, Revision A.03,

 --------------------------------
 #t pop=none jul-cc-pvdz upbe1pbe
 --------------------------------
 ------------------------
 theory_abbreviation pbe0
 ------------------------
 Symbolic Z-matrix:
 Charge =  0 Multiplicity = 6

 SCF Done:  E(UPBE1PBE) =  -3033.12490749     A.U. after   21 cycles
 Normal termination of Gaussian 16 at Tue Feb 11 13:59:23 2020.

 ---------------------------------------------------------------------
 #t pop=none jul-cc-pvdz guess=read upbe1pbe empiricaldispersion=gd3bj
 ---------------------------------------------------------------------
 -----------------------------
 theory_abbreviation pbe0_d3bj
 -----------------------------
 Symbolic Z-matrix:
 Charge =  0 Multiplicity = 6

 SCF Done:  E(UPBE1PBE) =  -3033.16114641     A.U. after    1 cycles
 Normal termination of Gaussian 16 at Tue Feb 11 14:00:32 2020.

 -----------------------------------------
 #t pop=none jul-cc-pvdz guess=read ub3lyp
 -----------------------------------------
 -------------------------
 theory_abbreviation b3lyp
 -------------------------
 Symbolic Z-matrix:
 Charge =  0 Multiplicity = 6

 SCF Done:  E(UB3LYP) =  -3034.34208380     A.U. after   14 cycles
 Normal termination of Gaussian 16 at Tue Feb 11 14:15:01 2020.

 -------------------------------------------------------------------
 #t pop=none jul-cc-pvdz guess=read ub3lyp empiricaldispersion=gd3bj
 -------------------------------------------------------------------
 ------------------------------
 theory_abbreviation b3lyp_d3bj
 ------------------------------
 Symbolic Z-matrix:
 Charge =  0 Multiplicity = 6

 SCF Done:  E(UB3LYP) =  -3034.40955404     A.U. after    1 cycles
 Normal termination of Gaussian 16 at Tue Feb 11 14:16:10 2020.

 ----------------------------------------
 #t pop=none jul-cc-pvdz guess=read ub97d
 ----------------------------------------
 ------------------------
 theory_abbreviation b97d
 ------------------------
 Symbolic Z-matrix:
 Charge =  0 Multiplicity = 6

 SCF Done:  E(UB97D) =  -3034.59409434     A.U. after   15 cycles

 ----------------------------------------------------------------
 #t pop=none jul-cc-pvdz guess=read ub97d empiricaldispersion=gd3
 ----------------------------------------------------------------
 -------------------------
 theory_abbreviation b97d3
 -------------------------
 Symbolic Z-matrix:
 Charge =  0 Multiplicity = 6

 SCF Done:  E(UB97D) =  -3034.59538675     A.U. after    1 cycles
 SCF Done:  E(UBHandHLYP) =  -3033.98165406     A.U. after   18 cycles
 SCF Done:  E(UBHandH) =  -3026.32142778     A.U. after   16 cycles
 SCF Done:  E(ULC-wPBE) =  -3033.46308075     A.U. after   19 cycles
 SCF Done:  E(UB-P86) =  -3034.64433014     A.U. after   16 cycles
 SCF Done:  E(UmPW1LYP) =  -3034.05989138     A.U. after   16 cycles
 SCF Done:  E(UmPW1PBE) =  -3033.89961142     A.U. after   16 cycles
 SCF Done:  E(UmPW3PBE) =  -3033.67271439     A.U. after   13 cycles
 SCF Done:  E(UM11) =  -3033.82074127     A.U. after   16 cycles
 SCF Done:  E(UN12SX) =  -3033.26360352     A.U. after   15 cycles
 SCF Done:  E(UMN12SX) =  -3033.66264548     A.U. after   17 cycles
 SCF Done:  E(UB1B95) =  -3034.39412993     A.U. after   14 cycles
 Normal termination of Gaussian 16 at Tue Feb 11 22:45:40 2020.
 SCF Done:  E(UB3PW91) =  -3033.98875035     A.U. after   15 cycles
 Normal termination of Gaussian 16 at Tue Feb 11 23:02:24 2020.
 SCF Done:  E(UM06L) =  -3034.20739263     A.U. after   16 cycles
 Normal termination of Gaussian 16 at Tue Feb 11 23:19:58 2020.
 Gaussian 16:  ES64L-G16RevA.03 25-Dec-2016

                         Standard orientation:
 ---------------------------------------------------------------------
 Center     Atomic      Atomic             Coordinates (Angstroms)
 Number     Number       Type             X           Y           Z
 ---------------------------------------------------------------------
      1          8           0        0.281412    0.257586   -0.522673
      2          6           0        1.081134    1.206829   -0.248701
      3          6           0        2.744608    0.146938    0.934296
      4          6           0        3.101023   -0.673276   -0.094584
      5          6           0        4.180021   -0.308803   -1.068548
      6         26           0       -1.558059   -0.182337   -0.100883
      7         17           0       -1.876966   -2.063564   -1.158502
      8          6           0        2.393125   -1.971170   -0.325419
      9         17           0       -2.595678    1.581082   -0.890908
     10         17           0       -1.787626   -0.363857    2.075449
     11          1           0        3.335726    1.050969    1.074024
     12          1           0        2.912204   -2.599487   -1.053723
     13          1           0        2.254255   -2.538569    0.600155
     14          1           0        1.385070   -1.758934   -0.716610
     15          1           0        5.009920   -1.020839   -0.961902
     16          1           0        3.834727   -0.397463   -2.106527
     17          1           0        4.575345    0.697102   -0.906396
     18          6           0        1.954358   -0.342633    2.124810
     19          1           0        2.493798   -1.156459    2.625278
     20          1           0        1.806746    0.449308    2.861454
     21          1           0        0.970284   -0.729362    1.848263
     22          6           0        0.738357    2.144759    0.881897
     23          1           0        1.593000    2.738257    1.211043
     24          1           0       -0.018461    2.828036    0.469440
     25          1           0        0.279894    1.624590    1.721920
     26          6           0        1.847870    1.796056   -1.403405
     27          1           0        1.173374    2.527466   -1.870161
     28          1           0        2.750136    2.321886   -1.086282
     29          1           0        2.083826    1.039156   -2.150401
 ---------------------------------------------------------------------

 SCF Done:  E(UB97D3) =  -3034.63057304     A.U. after   15 cycles
 Normal termination of Gaussian 16 at Tue Feb 11 23:31:54 2020.
