 Gaussian 16, Revision A.03,

 --------------------------------
 #t pop=none jul-cc-pvdz upbe1pbe
 --------------------------------
 ------------------------
 theory_abbreviation pbe0
 ------------------------
 Symbolic Z-matrix:
 Charge =  0 Multiplicity = 6

 SCF Done:  E(UPBE1PBE) =  -3033.10863577     A.U. after   21 cycles
 Normal termination of Gaussian 16 at Tue Feb 11 14:45:55 2020.

 ---------------------------------------------------------------------
 #t pop=none jul-cc-pvdz guess=read upbe1pbe empiricaldispersion=gd3bj
 ---------------------------------------------------------------------
 -----------------------------
 theory_abbreviation pbe0_d3bj
 -----------------------------
 Symbolic Z-matrix:
 Charge =  0 Multiplicity = 6

 SCF Done:  E(UPBE1PBE) =  -3033.14548597     A.U. after    1 cycles
 Normal termination of Gaussian 16 at Tue Feb 11 14:47:07 2020.

 -----------------------------------------
 #t pop=none jul-cc-pvdz guess=read ub3lyp
 -----------------------------------------
 -------------------------
 theory_abbreviation b3lyp
 -------------------------
 Symbolic Z-matrix:
 Charge =  0 Multiplicity = 6

 SCF Done:  E(UB3LYP) =  -3034.32073094     A.U. after   14 cycles
 Normal termination of Gaussian 16 at Tue Feb 11 15:02:10 2020.

 -------------------------------------------------------------------
 #t pop=none jul-cc-pvdz guess=read ub3lyp empiricaldispersion=gd3bj
 -------------------------------------------------------------------
 ------------------------------
 theory_abbreviation b3lyp_d3bj
 ------------------------------
 Symbolic Z-matrix:
 Charge =  0 Multiplicity = 6

 SCF Done:  E(UB3LYP) =  -3034.38934586     A.U. after    1 cycles
 Normal termination of Gaussian 16 at Tue Feb 11 15:03:21 2020.

 ----------------------------------------
 #t pop=none jul-cc-pvdz guess=read ub97d
 ----------------------------------------
 ------------------------
 theory_abbreviation b97d
 ------------------------
 Symbolic Z-matrix:
 Charge =  0 Multiplicity = 6

 SCF Done:  E(UB97D) =  -3034.57030253     A.U. after   16 cycles

 ----------------------------------------------------------------
 #t pop=none jul-cc-pvdz guess=read ub97d empiricaldispersion=gd3
 ----------------------------------------------------------------
 -------------------------
 theory_abbreviation b97d3
 -------------------------
 Symbolic Z-matrix:
 Charge =  0 Multiplicity = 6

 SCF Done:  E(UB97D) =  -3034.57120263     A.U. after    1 cycles
 SCF Done:  E(UBHandHLYP) =  -3033.96519624     A.U. after   17 cycles
 SCF Done:  E(UBHandH) =  -3026.31337163     A.U. after   13 cycles
 SCF Done:  E(ULC-wPBE) =  -3033.45227945     A.U. after   16 cycles
 SCF Done:  E(UB-P86) =  -3034.62630930     A.U. after   18 cycles
 SCF Done:  E(UmPW1LYP) =  -3034.03917775     A.U. after   13 cycles
 SCF Done:  E(UmPW1PBE) =  -3033.88306715     A.U. after   13 cycles
 SCF Done:  E(UmPW3PBE) =  -3033.65507490     A.U. after   13 cycles
 SCF Done:  E(UM11) =  -3033.80432762     A.U. after   17 cycles
 SCF Done:  E(UN12SX) =  -3033.24843068     A.U. after   15 cycles
 SCF Done:  E(UMN12SX) =  -3033.64490547     A.U. after   16 cycles
 SCF Done:  E(UB1B95) =  -3034.37465333     A.U. after   14 cycles
 Normal termination of Gaussian 16 at Tue Feb 11 23:11:57 2020.
 SCF Done:  E(UB3PW91) =  -3033.97037854     A.U. after   13 cycles
 Normal termination of Gaussian 16 at Tue Feb 11 23:25:05 2020.
 SCF Done:  E(UM06L) =  -3034.18613543     A.U. after   17 cycles
 Normal termination of Gaussian 16 at Tue Feb 11 23:43:38 2020.
 Gaussian 16:  ES64L-G16RevA.03 25-Dec-2016

                         Standard orientation:
 ---------------------------------------------------------------------
 Center     Atomic      Atomic             Coordinates (Angstroms)
 Number     Number       Type             X           Y           Z
 ---------------------------------------------------------------------
      1          8           0        0.291660    0.239246   -0.612183
      2          6           0        1.362440    1.088540   -0.335699
      3          6           0        2.732411    0.099255   -0.521427
      4          6           0        2.159071   -1.208204   -0.190682
      5          6           0        1.640294   -2.069252   -1.271259
      6         26           0       -1.425578   -0.003751   -0.008454
      7         17           0       -2.258752   -1.537095   -1.359006
      8          6           0        2.059714   -1.704271    1.176503
      9         17           0       -2.445524    1.944055    0.070954
     10         17           0       -1.146353   -0.892214    2.054939
     11          1           0        2.933593    0.131383   -1.595585
     12          1           0        2.758518   -1.255547    1.881334
     13          1           0        1.022423   -1.432885    1.504534
     14          1           0        2.080085   -2.797332    1.221531
     15          1           0        2.444531   -2.793088   -1.495743
     16          1           0        0.764103   -2.641386   -0.950865
     17          1           0        1.411811   -1.507296   -2.175984
     18          6           0        3.951567    0.571532    0.267066
     19          1           0        4.816611   -0.071775    0.072597
     20          1           0        4.216150    1.584749   -0.048914
     21          1           0        3.776446    0.594900    1.344308
     22          6           0        1.301199    1.655597    1.080338
     23          1           0        2.138815    2.326309    1.288708
     24          1           0        0.374563    2.234016    1.160708
     25          1           0        1.261497    0.875182    1.842854
     26          6           0        1.439881    2.195146   -1.380704
     27          1           0        0.547451    2.822012   -1.275725
     28          1           0        2.327313    2.824099   -1.250520
     29          1           0        1.439039    1.769488   -2.387877
 ---------------------------------------------------------------------

 SCF Done:  E(UB97D3) =  -3034.60672918     A.U. after   16 cycles
 Normal termination of Gaussian 16 at Tue Feb 11 23:56:17 2020.
