 Gaussian 16, Revision A.03,

 --------------------------------
 #t pop=none jul-cc-pvdz upbe1pbe
 --------------------------------
 ------------------------
 theory_abbreviation pbe0
 ------------------------
 Symbolic Z-matrix:
 Charge =  0 Multiplicity = 6

 SCF Done:  E(UPBE1PBE) =  -3033.13662523     A.U. after   20 cycles
 Normal termination of Gaussian 16 at Wed Feb 12 14:12:13 2020.

 ---------------------------------------------------------------------
 #t pop=none jul-cc-pvdz guess=read upbe1pbe empiricaldispersion=gd3bj
 ---------------------------------------------------------------------
 -----------------------------
 theory_abbreviation pbe0_d3bj
 -----------------------------
 Symbolic Z-matrix:
 Charge =  0 Multiplicity = 6

 SCF Done:  E(UPBE1PBE) =  -3033.17279380     A.U. after    1 cycles
 Normal termination of Gaussian 16 at Wed Feb 12 14:13:23 2020.

 -----------------------------------------
 #t pop=none jul-cc-pvdz guess=read ub3lyp
 -----------------------------------------
 -------------------------
 theory_abbreviation b3lyp
 -------------------------
 Symbolic Z-matrix:
 Charge =  0 Multiplicity = 6

 SCF Done:  E(UB3LYP) =  -3034.35517186     A.U. after   13 cycles
 Normal termination of Gaussian 16 at Wed Feb 12 14:26:55 2020.

 -------------------------------------------------------------------
 #t pop=none jul-cc-pvdz guess=read ub3lyp empiricaldispersion=gd3bj
 -------------------------------------------------------------------
 ------------------------------
 theory_abbreviation b3lyp_d3bj
 ------------------------------
 Symbolic Z-matrix:
 Charge =  0 Multiplicity = 6

 SCF Done:  E(UB3LYP) =  -3034.42206559     A.U. after    1 cycles
 Normal termination of Gaussian 16 at Wed Feb 12 14:28:05 2020.

 ----------------------------------------
 #t pop=none jul-cc-pvdz guess=read ub97d
 ----------------------------------------
 ------------------------
 theory_abbreviation b97d
 ------------------------
 Symbolic Z-matrix:
 Charge =  0 Multiplicity = 6

 SCF Done:  E(UB97D) =  -3034.60440174     A.U. after   16 cycles

 ----------------------------------------------------------------
 #t pop=none jul-cc-pvdz guess=read ub97d empiricaldispersion=gd3
 ----------------------------------------------------------------
 -------------------------
 theory_abbreviation b97d3
 -------------------------
 Symbolic Z-matrix:
 Charge =  0 Multiplicity = 6

 SCF Done:  E(UB97D) =  -3034.60665438     A.U. after    3 cycles
 SCF Done:  E(UBHandHLYP) =  -3033.99737303     A.U. after   18 cycles
 SCF Done:  E(UBHandH) =  -3026.33254799     A.U. after   14 cycles
 SCF Done:  E(ULC-wPBE) =  -3033.47857815     A.U. after   17 cycles
 SCF Done:  E(UB-P86) =  -3034.65375198     A.U. after   18 cycles
 SCF Done:  E(UmPW1LYP) =  -3034.07356228     A.U. after   13 cycles
 SCF Done:  E(UmPW1PBE) =  -3033.91112859     A.U. after   14 cycles
 SCF Done:  E(UmPW3PBE) =  -3033.68404828     A.U. after   13 cycles
 SCF Done:  E(UM11) =  -3033.83606846     A.U. after   17 cycles
 SCF Done:  E(UN12SX) =  -3033.27552779     A.U. after   17 cycles
 SCF Done:  E(UMN12SX) =  -3033.67829892     A.U. after   16 cycles
 SCF Done:  E(UB1B95) =  -3034.40770060     A.U. after   14 cycles
 Normal termination of Gaussian 16 at Wed Feb 12 22:00:55 2020.
 SCF Done:  E(UB3PW91) =  -3034.00036022     A.U. after   15 cycles
 Normal termination of Gaussian 16 at Wed Feb 12 22:15:21 2020.
 SCF Done:  E(UM06L) =  -3034.22247384     A.U. after   17 cycles
 Normal termination of Gaussian 16 at Wed Feb 12 22:33:23 2020.
 Gaussian 16:  ES64L-G16RevA.03 25-Dec-2016

                         Standard orientation:
 ---------------------------------------------------------------------
 Center     Atomic      Atomic             Coordinates (Angstroms)
 Number     Number       Type             X           Y           Z
 ---------------------------------------------------------------------
      1          8           0        0.240139    0.421115   -0.812795
      2          6           0        0.925213    1.441730   -0.596926
      3          6           0        3.232115   -0.063980    0.458316
      4          6           0        2.568714   -0.951250   -0.306016
      5          6           0        2.860226   -1.086421   -1.777827
      6         26           0       -1.461076   -0.168799    0.037900
      7         17           0       -2.081034   -1.919289   -1.087324
      8          6           0        1.617692   -1.985559    0.227564
      9         17           0       -2.670970    1.626179   -0.296718
     10         17           0       -1.100838   -0.510654    2.171054
     11          1           0        3.969592    0.570145   -0.036690
     12          1           0        2.114485   -2.965735    0.233533
     13          1           0        1.269226   -1.784125    1.240495
     14          1           0        0.744928   -2.094684   -0.425349
     15          1           0        3.262369   -2.085483   -1.992318
     16          1           0        1.940704   -0.991355   -2.368963
     17          1           0        3.589435   -0.349692   -2.128719
     18          6           0        3.145969    0.099271    1.950284
     19          1           0        4.014011   -0.361365    2.441853
     20          1           0        3.154310    1.157981    2.236496
     21          1           0        2.248129   -0.356290    2.375989
     22          6           0        0.812622    2.201143    0.685378
     23          1           0        1.679071    2.842585    0.854086
     24          1           0       -0.082933    2.834830    0.604598
     25          1           0        0.658966    1.527483    1.529893
     26          6           0        1.721351    2.031576   -1.716468
     27          1           0        1.201139    2.948162   -2.030448
     28          1           0        2.718872    2.322588   -1.379381
     29          1           0        1.779466    1.349748   -2.563155
 ---------------------------------------------------------------------

 SCF Done:  E(UB97D3) =  -3034.64092935     A.U. after   17 cycles
 Normal termination of Gaussian 16 at Wed Feb 12 22:46:25 2020.
