 Gaussian 16, Revision A.03,

 --------------------------------
 #t pop=none jul-cc-pvdz upbe1pbe
 --------------------------------
 ------------------------
 theory_abbreviation pbe0
 ------------------------
 Symbolic Z-matrix:
 Charge =  0 Multiplicity = 6

 SCF Done:  E(UPBE1PBE) =  -3033.13169630     A.U. after   20 cycles
 Normal termination of Gaussian 16 at Tue Feb 11 20:17:27 2020.

 ---------------------------------------------------------------------
 #t pop=none jul-cc-pvdz guess=read upbe1pbe empiricaldispersion=gd3bj
 ---------------------------------------------------------------------
 -----------------------------
 theory_abbreviation pbe0_d3bj
 -----------------------------
 Symbolic Z-matrix:
 Charge =  0 Multiplicity = 6

 SCF Done:  E(UPBE1PBE) =  -3033.16862714     A.U. after    1 cycles
 Normal termination of Gaussian 16 at Tue Feb 11 20:18:39 2020.

 -----------------------------------------
 #t pop=none jul-cc-pvdz guess=read ub3lyp
 -----------------------------------------
 -------------------------
 theory_abbreviation b3lyp
 -------------------------
 Symbolic Z-matrix:
 Charge =  0 Multiplicity = 6

 SCF Done:  E(UB3LYP) =  -3034.34914839     A.U. after   13 cycles
 Normal termination of Gaussian 16 at Tue Feb 11 20:32:06 2020.

 -------------------------------------------------------------------
 #t pop=none jul-cc-pvdz guess=read ub3lyp empiricaldispersion=gd3bj
 -------------------------------------------------------------------
 ------------------------------
 theory_abbreviation b3lyp_d3bj
 ------------------------------
 Symbolic Z-matrix:
 Charge =  0 Multiplicity = 6

 SCF Done:  E(UB3LYP) =  -3034.41769746     A.U. after    1 cycles
 Normal termination of Gaussian 16 at Tue Feb 11 20:33:23 2020.

 ----------------------------------------
 #t pop=none jul-cc-pvdz guess=read ub97d
 ----------------------------------------
 ------------------------
 theory_abbreviation b97d
 ------------------------
 Symbolic Z-matrix:
 Charge =  0 Multiplicity = 6

 SCF Done:  E(UB97D) =  -3034.60126109     A.U. after   15 cycles

 ----------------------------------------------------------------
 #t pop=none jul-cc-pvdz guess=read ub97d empiricaldispersion=gd3
 ----------------------------------------------------------------
 -------------------------
 theory_abbreviation b97d3
 -------------------------
 Symbolic Z-matrix:
 Charge =  0 Multiplicity = 6

 SCF Done:  E(UB97D) =  -3034.60259186     A.U. after    1 cycles
 SCF Done:  E(UBHandHLYP) =  -3033.99059539     A.U. after   15 cycles
 SCF Done:  E(UBHandH) =  -3026.32947977     A.U. after   14 cycles
 SCF Done:  E(ULC-wPBE) =  -3033.47251928     A.U. after   19 cycles
 SCF Done:  E(UB-P86) =  -3034.65091658     A.U. after   17 cycles
 SCF Done:  E(UmPW1LYP) =  -3034.06742888     A.U. after   13 cycles
 SCF Done:  E(UmPW1PBE) =  -3033.90611362     A.U. after   13 cycles
 SCF Done:  E(UmPW3PBE) =  -3033.67908084     A.U. after   13 cycles
 SCF Done:  E(UM11) =  -3033.83009510     A.U. after   17 cycles
 SCF Done:  E(UN12SX) =  -3033.27055750     A.U. after   16 cycles
 SCF Done:  E(UMN12SX) =  -3033.67249127     A.U. after   16 cycles
 SCF Done:  E(UB1B95) =  -3034.40203268     A.U. after   14 cycles
 Normal termination of Gaussian 16 at Wed Feb 12 04:46:27 2020.
 SCF Done:  E(UB3PW91) =  -3033.99510090     A.U. after   13 cycles
 Normal termination of Gaussian 16 at Wed Feb 12 05:00:10 2020.
 SCF Done:  E(UM06L) =  -3034.21750515     A.U. after   17 cycles
 Normal termination of Gaussian 16 at Wed Feb 12 05:18:55 2020.
 Gaussian 16:  ES64L-G16RevA.03 25-Dec-2016

                         Standard orientation:
 ---------------------------------------------------------------------
 Center     Atomic      Atomic             Coordinates (Angstroms)
 Number     Number       Type             X           Y           Z
 ---------------------------------------------------------------------
      1          8           0        0.227041    0.325753   -0.851185
      2          6           0        1.041497    1.268775   -0.666522
      3          6           0        3.000325    0.155126    0.527331
      4          6           0        2.618387   -0.950804   -0.149816
      5          6           0        3.109676   -1.234347   -1.541396
      6         26           0       -1.469634   -0.150941    0.007541
      7         17           0       -2.061724   -2.009726   -0.958635
      8          6           0        1.699858   -1.996461    0.405531
      9         17           0       -2.689345    1.604570   -0.464387
     10         17           0       -1.109967   -0.346792    2.167344
     11          1           0        3.725134    0.808827    0.042749
     12          1           0        2.231521   -2.954683    0.478383
     13          1           0        1.298289   -1.753152    1.388469
     14          1           0        0.858644   -2.165401   -0.278939
     15          1           0        3.623899   -2.203872   -1.562372
     16          1           0        2.267487   -1.318129   -2.241343
     17          1           0        3.807541   -0.475608   -1.905480
     18          6           0        2.786855    0.405755    1.998459
     19          1           0        3.573763   -0.094959    2.578435
     20          1           0        2.850539    1.470963    2.237966
     21          1           0        1.825803    0.034506    2.362392
     22          6           0        0.846738    2.230228    0.466345
     23          1           0        1.731738    2.840871    0.647868
     24          1           0        0.024711    2.891440    0.153366
     25          1           0        0.527778    1.728934    1.379866
     26          6           0        1.841885    1.733037   -1.849109
     27          1           0        1.216042    2.484042   -2.353247
     28          1           0        2.775591    2.216734   -1.559613
     29          1           0        2.021955    0.923186   -2.553480
 ---------------------------------------------------------------------

 SCF Done:  E(UB97D3) =  -3034.63749445     A.U. after   16 cycles
 Normal termination of Gaussian 16 at Wed Feb 12 05:34:48 2020.
