 Gaussian 16, Revision A.03,

 --------------------------------
 #t pop=none jul-cc-pvdz upbe1pbe
 --------------------------------
 ------------------------
 theory_abbreviation pbe0
 ------------------------
 Symbolic Z-matrix:
 Charge =  0 Multiplicity = 6

 SCF Done:  E(UPBE1PBE) =  -3033.09912681     A.U. after   20 cycles
 Normal termination of Gaussian 16 at Tue Feb 11 14:00:32 2020.

 ---------------------------------------------------------------------
 #t pop=none jul-cc-pvdz guess=read upbe1pbe empiricaldispersion=gd3bj
 ---------------------------------------------------------------------
 -----------------------------
 theory_abbreviation pbe0_d3bj
 -----------------------------
 Symbolic Z-matrix:
 Charge =  0 Multiplicity = 6

 SCF Done:  E(UPBE1PBE) =  -3033.13695621     A.U. after    1 cycles
 Normal termination of Gaussian 16 at Tue Feb 11 14:01:43 2020.

 -----------------------------------------
 #t pop=none jul-cc-pvdz guess=read ub3lyp
 -----------------------------------------
 -------------------------
 theory_abbreviation b3lyp
 -------------------------
 Symbolic Z-matrix:
 Charge =  0 Multiplicity = 6

 SCF Done:  E(UB3LYP) =  -3034.31223722     A.U. after   15 cycles
 Normal termination of Gaussian 16 at Tue Feb 11 14:17:51 2020.

 -------------------------------------------------------------------
 #t pop=none jul-cc-pvdz guess=read ub3lyp empiricaldispersion=gd3bj
 -------------------------------------------------------------------
 ------------------------------
 theory_abbreviation b3lyp_d3bj
 ------------------------------
 Symbolic Z-matrix:
 Charge =  0 Multiplicity = 6

 SCF Done:  E(UB3LYP) =  -3034.38275166     A.U. after    1 cycles
 Normal termination of Gaussian 16 at Tue Feb 11 14:19:03 2020.

 ----------------------------------------
 #t pop=none jul-cc-pvdz guess=read ub97d
 ----------------------------------------
 ------------------------
 theory_abbreviation b97d
 ------------------------
 Symbolic Z-matrix:
 Charge =  0 Multiplicity = 6

 SCF Done:  E(UB97D) =  -3034.56506185     A.U. after   16 cycles

 ----------------------------------------------------------------
 #t pop=none jul-cc-pvdz guess=read ub97d empiricaldispersion=gd3
 ----------------------------------------------------------------
 -------------------------
 theory_abbreviation b97d3
 -------------------------
 Symbolic Z-matrix:
 Charge =  0 Multiplicity = 6

 SCF Done:  E(UB97D) =  -3034.56643678     A.U. after    1 cycles
 SCF Done:  E(UBHandHLYP) =  -3033.95466260     A.U. after   18 cycles
 SCF Done:  E(UBHandH) =  -3026.30199907     A.U. after   14 cycles
 SCF Done:  E(ULC-wPBE) =  -3033.43961070     A.U. after   18 cycles
 SCF Done:  E(UB-P86) =  -3034.61917588     A.U. after   17 cycles
 SCF Done:  E(UmPW1LYP) =  -3034.03045629     A.U. after   15 cycles
 SCF Done:  E(UmPW1PBE) =  -3033.87358220     A.U. after   15 cycles
 SCF Done:  E(UmPW3PBE) =  -3033.64595474     A.U. after   13 cycles
 SCF Done:  E(UM11) =  -3033.79664254     A.U. after   19 cycles
 SCF Done:  E(UN12SX) =  -3033.23898711     A.U. after   17 cycles
 SCF Done:  E(UMN12SX) =  -3033.63826941     A.U. after   15 cycles
 SCF Done:  E(UB1B95) =  -3034.36859062     A.U. after   16 cycles
 Normal termination of Gaussian 16 at Tue Feb 11 23:02:44 2020.
 SCF Done:  E(UB3PW91) =  -3033.96131481     A.U. after   15 cycles
 Normal termination of Gaussian 16 at Tue Feb 11 23:18:47 2020.
 SCF Done:  E(UM06L) =  -3034.17965106     A.U. after   17 cycles
 Normal termination of Gaussian 16 at Tue Feb 11 23:38:07 2020.
 Gaussian 16:  ES64L-G16RevA.03 25-Dec-2016

                         Standard orientation:
 ---------------------------------------------------------------------
 Center     Atomic      Atomic             Coordinates (Angstroms)
 Number     Number       Type             X           Y           Z
 ---------------------------------------------------------------------
      1          8           0       -0.351306   -0.086816   -0.515556
      2          6           0       -1.268365   -1.029686   -0.462496
      3          6           0       -3.067426   -0.005588   -0.109509
      4          6           0       -2.201301    1.067134   -0.222403
      5          6           0       -1.994104    1.760147   -1.528175
      6         26           0        1.440165    0.050724    0.051565
      7         17           0        2.025016    1.999446   -0.787477
      8          6           0       -1.600570    1.734333    0.971958
      9         17           0        2.404335   -1.746088   -0.779215
     10         17           0        1.414248    0.037679    2.262433
     11          1           0       -3.605693   -0.279726   -1.014037
     12          1           0       -2.353001    2.433602    1.366537
     13          1           0       -1.346840    1.038943    1.773012
     14          1           0       -0.708944    2.304798    0.706358
     15          1           0       -2.542058    2.712616   -1.471741
     16          1           0       -0.939107    1.994545   -1.689164
     17          1           0       -2.392408    1.198743   -2.375745
     18          6           0       -3.729523   -0.436035    1.175659
     19          1           0       -4.642900    0.152767    1.332148
     20          1           0       -4.029645   -1.487223    1.136545
     21          1           0       -3.095374   -0.295735    2.053347
     22          6           0       -1.205356   -1.961334    0.718517
     23          1           0       -2.063534   -2.632144    0.776637
     24          1           0       -0.302342   -2.568996    0.560608
     25          1           0       -1.065862   -1.424432    1.657362
     26          6           0       -1.596329   -1.665410   -1.791130
     27          1           0       -0.708140   -2.252359   -2.064298
     28          1           0       -2.459561   -2.332577   -1.735193
     29          1           0       -1.741758   -0.916128   -2.570739
 ---------------------------------------------------------------------

 SCF Done:  E(UB97D3) =  -3034.60215799     A.U. after   15 cycles
 Normal termination of Gaussian 16 at Tue Feb 11 23:50:27 2020.
