 Gaussian 16, Revision A.03,

 --------------------------------
 #t pop=none jul-cc-pvdz upbe1pbe
 --------------------------------
 ------------------------
 theory_abbreviation pbe0
 ------------------------
 Symbolic Z-matrix:
 Charge =  0 Multiplicity = 6

 SCF Done:  E(UPBE1PBE) =  -3033.12656002     A.U. after   21 cycles
 Normal termination of Gaussian 16 at Tue Feb 11 14:00:02 2020.

 ---------------------------------------------------------------------
 #t pop=none jul-cc-pvdz guess=read upbe1pbe empiricaldispersion=gd3bj
 ---------------------------------------------------------------------
 -----------------------------
 theory_abbreviation pbe0_d3bj
 -----------------------------
 Symbolic Z-matrix:
 Charge =  0 Multiplicity = 6

 SCF Done:  E(UPBE1PBE) =  -3033.16394018     A.U. after    1 cycles
 Normal termination of Gaussian 16 at Tue Feb 11 14:01:13 2020.

 -----------------------------------------
 #t pop=none jul-cc-pvdz guess=read ub3lyp
 -----------------------------------------
 -------------------------
 theory_abbreviation b3lyp
 -------------------------
 Symbolic Z-matrix:
 Charge =  0 Multiplicity = 6

 SCF Done:  E(UB3LYP) =  -3034.34311353     A.U. after   13 cycles
 Normal termination of Gaussian 16 at Tue Feb 11 14:15:03 2020.

 -------------------------------------------------------------------
 #t pop=none jul-cc-pvdz guess=read ub3lyp empiricaldispersion=gd3bj
 -------------------------------------------------------------------
 ------------------------------
 theory_abbreviation b3lyp_d3bj
 ------------------------------
 Symbolic Z-matrix:
 Charge =  0 Multiplicity = 6

 SCF Done:  E(UB3LYP) =  -3034.41262313     A.U. after    1 cycles
 Normal termination of Gaussian 16 at Tue Feb 11 14:16:14 2020.

 ----------------------------------------
 #t pop=none jul-cc-pvdz guess=read ub97d
 ----------------------------------------
 ------------------------
 theory_abbreviation b97d
 ------------------------
 Symbolic Z-matrix:
 Charge =  0 Multiplicity = 6

 SCF Done:  E(UB97D) =  -3034.59608669     A.U. after   15 cycles

 ----------------------------------------------------------------
 #t pop=none jul-cc-pvdz guess=read ub97d empiricaldispersion=gd3
 ----------------------------------------------------------------
 -------------------------
 theory_abbreviation b97d3
 -------------------------
 Symbolic Z-matrix:
 Charge =  0 Multiplicity = 6

 SCF Done:  E(UB97D) =  -3034.59748036     A.U. after    1 cycles
 SCF Done:  E(UBHandHLYP) =  -3033.98454306     A.U. after   18 cycles
 SCF Done:  E(UBHandH) =  -3026.32567545     A.U. after   14 cycles
 SCF Done:  E(ULC-wPBE) =  -3033.46742934     A.U. after   19 cycles
 SCF Done:  E(UB-P86) =  -3034.64661584     A.U. after   16 cycles
 SCF Done:  E(UmPW1LYP) =  -3034.06135739     A.U. after   13 cycles
 SCF Done:  E(UmPW1PBE) =  -3033.90095487     A.U. after   13 cycles
 SCF Done:  E(UmPW3PBE) =  -3033.67384941     A.U. after   13 cycles
 SCF Done:  E(UM11) =  -3033.82488793     A.U. after   16 cycles
 SCF Done:  E(UN12SX) =  -3033.26544308     A.U. after   17 cycles
 SCF Done:  E(UMN12SX) =  -3033.66703868     A.U. after   16 cycles
 SCF Done:  E(UB1B95) =  -3034.39684606     A.U. after   14 cycles
 Normal termination of Gaussian 16 at Tue Feb 11 22:44:18 2020.
 SCF Done:  E(UB3PW91) =  -3033.98970620     A.U. after   13 cycles
 Normal termination of Gaussian 16 at Tue Feb 11 22:59:30 2020.
 SCF Done:  E(UM06L) =  -3034.21215636     A.U. after   17 cycles
 Normal termination of Gaussian 16 at Tue Feb 11 23:18:19 2020.
 Gaussian 16:  ES64L-G16RevA.03 25-Dec-2016

                         Standard orientation:
 ---------------------------------------------------------------------
 Center     Atomic      Atomic             Coordinates (Angstroms)
 Number     Number       Type             X           Y           Z
 ---------------------------------------------------------------------
      1          8           0       -0.271139   -0.256643   -0.810590
      2          6           0       -1.098609   -1.200068   -0.651115
      3          6           0       -3.010328   -0.124441    0.440150
      4          6           0       -2.521730    0.984246   -0.164381
      5          6           0       -2.899813    1.353741   -1.569240
      6         26           0        1.451708    0.127948    0.018829
      7         17           0        2.083424    2.006929   -0.887296
      8          6           0       -1.613291    1.967540    0.506170
      9         17           0        2.614523   -1.640937   -0.546803
     10         17           0        1.150643    0.247476    2.196344
     11          1           0       -3.738559   -0.713733   -0.115353
     12          1           0       -2.163287    2.903041    0.678599
     13          1           0       -1.219479    1.625805    1.462343
     14          1           0       -0.771023    2.222388   -0.147562
     15          1           0       -3.328905    2.363777   -1.579261
     16          1           0       -2.008331    1.390894   -2.208922
     17          1           0       -3.633660    0.671039   -2.005109
     18          6           0       -2.922962   -0.428085    1.914124
     19          1           0       -3.735756    0.084576    2.445807
     20          1           0       -3.041313   -1.496905    2.112990
     21          1           0       -1.982109   -0.101963    2.364224
     22          6           0       -0.912152   -2.186520    0.463500
     23          1           0       -1.794105   -2.808840    0.618246
     24          1           0       -0.081526   -2.833736    0.144160
     25          1           0       -0.608076   -1.706268    1.392995
     26          6           0       -1.842799   -1.674440   -1.868547
     27          1           0       -1.169262   -2.391832   -2.359654
     28          1           0       -2.766753   -2.198001   -1.619466
     29          1           0       -2.029070   -0.864531   -2.570997
 ---------------------------------------------------------------------

 SCF Done:  E(UB97D3) =  -3034.63256735     A.U. after   17 cycles
 Normal termination of Gaussian 16 at Tue Feb 11 23:31:44 2020.
