 Gaussian 16, Revision A.03,

 --------------------------------
 #t pop=none jul-cc-pvdz upbe1pbe
 --------------------------------
 ------------------------
 theory_abbreviation pbe0
 ------------------------
 Symbolic Z-matrix:
 Charge =  0 Multiplicity = 6

 SCF Done:  E(UPBE1PBE) =  -3033.12117942     A.U. after   21 cycles
 Normal termination of Gaussian 16 at Tue Feb 11 23:38:57 2020.

 ---------------------------------------------------------------------
 #t pop=none jul-cc-pvdz guess=read upbe1pbe empiricaldispersion=gd3bj
 ---------------------------------------------------------------------
 -----------------------------
 theory_abbreviation pbe0_d3bj
 -----------------------------
 Symbolic Z-matrix:
 Charge =  0 Multiplicity = 6

 SCF Done:  E(UPBE1PBE) =  -3033.15879378     A.U. after    1 cycles
 Normal termination of Gaussian 16 at Tue Feb 11 23:40:04 2020.

 -----------------------------------------
 #t pop=none jul-cc-pvdz guess=read ub3lyp
 -----------------------------------------
 -------------------------
 theory_abbreviation b3lyp
 -------------------------
 Symbolic Z-matrix:
 Charge =  0 Multiplicity = 6

 SCF Done:  E(UB3LYP) =  -3034.33697305     A.U. after   13 cycles
 Normal termination of Gaussian 16 at Tue Feb 11 23:53:16 2020.

 -------------------------------------------------------------------
 #t pop=none jul-cc-pvdz guess=read ub3lyp empiricaldispersion=gd3bj
 -------------------------------------------------------------------
 ------------------------------
 theory_abbreviation b3lyp_d3bj
 ------------------------------
 Symbolic Z-matrix:
 Charge =  0 Multiplicity = 6

 SCF Done:  E(UB3LYP) =  -3034.40699171     A.U. after    1 cycles
 Normal termination of Gaussian 16 at Tue Feb 11 23:54:24 2020.

 ----------------------------------------
 #t pop=none jul-cc-pvdz guess=read ub97d
 ----------------------------------------
 ------------------------
 theory_abbreviation b97d
 ------------------------
 Symbolic Z-matrix:
 Charge =  0 Multiplicity = 6

 SCF Done:  E(UB97D) =  -3034.59036065     A.U. after   15 cycles

 ----------------------------------------------------------------
 #t pop=none jul-cc-pvdz guess=read ub97d empiricaldispersion=gd3
 ----------------------------------------------------------------
 -------------------------
 theory_abbreviation b97d3
 -------------------------
 Symbolic Z-matrix:
 Charge =  0 Multiplicity = 6

 SCF Done:  E(UB97D) =  -3034.59170160     A.U. after    1 cycles
 SCF Done:  E(UBHandHLYP) =  -3033.97834347     A.U. after   18 cycles
 SCF Done:  E(UBHandH) =  -3026.32115661     A.U. after   14 cycles
 SCF Done:  E(ULC-wPBE) =  -3033.46174720     A.U. after   19 cycles
 SCF Done:  E(UB-P86) =  -3034.64167170     A.U. after   16 cycles
 SCF Done:  E(UmPW1LYP) =  -3034.05515449     A.U. after   13 cycles
 SCF Done:  E(UmPW1PBE) =  -3033.89560098     A.U. after   13 cycles
 SCF Done:  E(UmPW3PBE) =  -3033.66842014     A.U. after   13 cycles
 SCF Done:  E(UM11) =  -3033.81900630     A.U. after   17 cycles
 SCF Done:  E(UN12SX) =  -3033.26015382     A.U. after   17 cycles
 SCF Done:  E(UMN12SX) =  -3033.66096278     A.U. after   16 cycles
 SCF Done:  E(UB1B95) =  -3034.39112439     A.U. after   14 cycles
 Normal termination of Gaussian 16 at Wed Feb 12 08:11:25 2020.
 SCF Done:  E(UB3PW91) =  -3033.98415955     A.U. after   13 cycles
 Normal termination of Gaussian 16 at Wed Feb 12 08:24:34 2020.
 SCF Done:  E(UM06L) =  -3034.20581498     A.U. after   17 cycles
 Normal termination of Gaussian 16 at Wed Feb 12 08:43:04 2020.
 Gaussian 16:  ES64L-G16RevA.03 25-Dec-2016

                         Standard orientation:
 ---------------------------------------------------------------------
 Center     Atomic      Atomic             Coordinates (Angstroms)
 Number     Number       Type             X           Y           Z
 ---------------------------------------------------------------------
      1          8           0       -0.291658   -0.198267   -0.762294
      2          6           0       -1.148008   -1.130712   -0.633260
      3          6           0       -3.036563   -0.109000    0.321710
      4          6           0       -2.454237    1.015360   -0.168257
      5          6           0       -2.693182    1.488020   -1.570249
      6         26           0        1.448400    0.106325    0.030484
      7         17           0        2.086269    2.017260   -0.811162
      8          6           0       -1.577575    1.914041    0.645722
      9         17           0        2.566887   -1.659141   -0.634423
     10         17           0        1.209192    0.143144    2.221432
     11          1           0       -3.744672   -0.622729   -0.325909
     12          1           0       -2.159941    2.800034    0.936243
     13          1           0       -1.193545    1.452591    1.554641
     14          1           0       -0.732104    2.276432    0.051577
     15          1           0       -3.041911    2.528167   -1.546803
     16          1           0       -1.751099    1.489392   -2.133200
     17          1           0       -3.439443    0.891597   -2.100640
     18          6           0       -3.112939   -0.480816    1.780726
     19          1           0       -3.967337    0.030301    2.244101
     20          1           0       -3.274187   -1.553626    1.916958
     21          1           0       -2.220335   -0.196980    2.343237
     22          6           0       -0.979167   -2.141505    0.465004
     23          1           0       -1.855740   -2.778860    0.584035
     24          1           0       -0.133126   -2.770623    0.150184
     25          1           0       -0.702129   -1.680103    1.412425
     26          6           0       -1.820451   -1.608199   -1.893740
     27          1           0       -1.089830   -2.273705   -2.375545
     28          1           0       -2.725911   -2.183941   -1.696747
     29          1           0       -2.021010   -0.790894   -2.584137
 ---------------------------------------------------------------------

 SCF Done:  E(UB97D3) =  -3034.62708970     A.U. after   17 cycles
 Normal termination of Gaussian 16 at Wed Feb 12 08:56:19 2020.
