 Gaussian 16, Revision A.03,

 --------------------------------
 #t pop=none jul-cc-pvdz upbe1pbe
 --------------------------------
 ------------------------
 theory_abbreviation pbe0
 ------------------------
 Symbolic Z-matrix:
 Charge =  0 Multiplicity = 6

 SCF Done:  E(UPBE1PBE) =  -3033.10851451     A.U. after   21 cycles
 Normal termination of Gaussian 16 at Tue Feb 11 13:57:38 2020.

 ---------------------------------------------------------------------
 #t pop=none jul-cc-pvdz guess=read upbe1pbe empiricaldispersion=gd3bj
 ---------------------------------------------------------------------
 -----------------------------
 theory_abbreviation pbe0_d3bj
 -----------------------------
 Symbolic Z-matrix:
 Charge =  0 Multiplicity = 6

 SCF Done:  E(UPBE1PBE) =  -3033.14503374     A.U. after    1 cycles
 Normal termination of Gaussian 16 at Tue Feb 11 13:58:48 2020.

 -----------------------------------------
 #t pop=none jul-cc-pvdz guess=read ub3lyp
 -----------------------------------------
 -------------------------
 theory_abbreviation b3lyp
 -------------------------
 Symbolic Z-matrix:
 Charge =  0 Multiplicity = 6

 SCF Done:  E(UB3LYP) =  -3034.32016157     A.U. after   15 cycles
 Normal termination of Gaussian 16 at Tue Feb 11 14:14:12 2020.

 -------------------------------------------------------------------
 #t pop=none jul-cc-pvdz guess=read ub3lyp empiricaldispersion=gd3bj
 -------------------------------------------------------------------
 ------------------------------
 theory_abbreviation b3lyp_d3bj
 ------------------------------
 Symbolic Z-matrix:
 Charge =  0 Multiplicity = 6

 SCF Done:  E(UB3LYP) =  -3034.38829151     A.U. after    1 cycles
 Normal termination of Gaussian 16 at Tue Feb 11 14:15:25 2020.

 ----------------------------------------
 #t pop=none jul-cc-pvdz guess=read ub97d
 ----------------------------------------
 ------------------------
 theory_abbreviation b97d
 ------------------------
 Symbolic Z-matrix:
 Charge =  0 Multiplicity = 6

 SCF Done:  E(UB97D) =  -3034.57165260     A.U. after   16 cycles

 ----------------------------------------------------------------
 #t pop=none jul-cc-pvdz guess=read ub97d empiricaldispersion=gd3
 ----------------------------------------------------------------
 -------------------------
 theory_abbreviation b97d3
 -------------------------
 Symbolic Z-matrix:
 Charge =  0 Multiplicity = 6

 SCF Done:  E(UB97D) =  -3034.57221050     A.U. after    1 cycles
 SCF Done:  E(UBHandHLYP) =  -3033.96279584     A.U. after   17 cycles
 SCF Done:  E(UBHandH) =  -3026.31251604     A.U. after   15 cycles
 SCF Done:  E(ULC-wPBE) =  -3033.44944445     A.U. after   17 cycles
 SCF Done:  E(UB-P86) =  -3034.62591539     A.U. after   17 cycles
 SCF Done:  E(UmPW1LYP) =  -3034.03820426     A.U. after   15 cycles
 SCF Done:  E(UmPW1PBE) =  -3033.88289412     A.U. after   15 cycles
 SCF Done:  E(UmPW3PBE) =  -3033.65511693     A.U. after   15 cycles
 SCF Done:  E(UM11) =  -3033.80395970     A.U. after   19 cycles
 SCF Done:  E(UN12SX) =  -3033.24828501     A.U. after   17 cycles
 SCF Done:  E(UMN12SX) =  -3033.64421849     A.U. after   16 cycles
 SCF Done:  E(UB1B95) =  -3034.37520548     A.U. after   16 cycles
 Normal termination of Gaussian 16 at Tue Feb 11 23:25:59 2020.
 SCF Done:  E(UB3PW91) =  -3033.97038881     A.U. after   15 cycles
 Normal termination of Gaussian 16 at Tue Feb 11 23:41:43 2020.
 SCF Done:  E(UM06L) =  -3034.18708562     A.U. after   17 cycles
 Normal termination of Gaussian 16 at Wed Feb 12 00:01:19 2020.
 Gaussian 16:  ES64L-G16RevA.03 25-Dec-2016

                         Standard orientation:
 ---------------------------------------------------------------------
 Center     Atomic      Atomic             Coordinates (Angstroms)
 Number     Number       Type             X           Y           Z
 ---------------------------------------------------------------------
      1          8           0       -0.356472   -0.121805   -0.475393
      2          6           0       -1.245722   -1.115276   -0.328050
      3          6           0       -2.560092   -0.450656    0.617048
      4          6           0       -2.759308    0.780853   -0.061193
      5          6           0       -3.686464    0.879544   -1.218029
      6         26           0        1.443371    0.167618   -0.069751
      7         17           0        1.700917    2.245374   -0.781758
      8          6           0       -1.998968    1.978417    0.285658
      9         17           0        2.601511   -1.384725   -1.111846
     10         17           0        1.629924    0.046070    2.138736
     11          1           0       -3.364409   -1.163668    0.422723
     12          1           0       -2.381859    2.890012   -0.176275
     13          1           0       -1.837044    2.104775    1.358183
     14          1           0       -0.990856    1.767306   -0.137221
     15          1           0       -4.493597    1.571783   -0.934713
     16          1           0       -3.183877    1.342421   -2.077291
     17          1           0       -4.129594   -0.073341   -1.506992
     18          6           0       -2.158161   -0.373963    2.090355
     19          1           0       -2.861382    0.260469    2.640393
     20          1           0       -2.186745   -1.366572    2.542291
     21          1           0       -1.150099    0.027001    2.219082
     22          6           0       -0.737308   -2.306220    0.494017
     23          1           0       -1.530142   -3.033866    0.691783
     24          1           0        0.039611   -2.789675   -0.108577
     25          1           0       -0.279126   -1.991138    1.430978
     26          6           0       -1.777695   -1.590726   -1.683712
     27          1           0       -0.963354   -2.134813   -2.172269
     28          1           0       -2.633756   -2.266197   -1.585542
     29          1           0       -2.037321   -0.754175   -2.333668
 ---------------------------------------------------------------------

 SCF Done:  E(UB97D3) =  -3034.60663870     A.U. after   16 cycles
 Normal termination of Gaussian 16 at Wed Feb 12 00:13:49 2020.
