 Gaussian 16, Revision A.03,

 --------------------------------
 #t pop=none jul-cc-pvdz upbe1pbe
 --------------------------------
 ------------------------
 theory_abbreviation pbe0
 ------------------------
 Symbolic Z-matrix:
 Charge =  0 Multiplicity = 6

 SCF Done:  E(UPBE1PBE) =  -3033.12921515     A.U. after   21 cycles
 Normal termination of Gaussian 16 at Tue Feb 11 13:58:35 2020.

 ---------------------------------------------------------------------
 #t pop=none jul-cc-pvdz guess=read upbe1pbe empiricaldispersion=gd3bj
 ---------------------------------------------------------------------
 -----------------------------
 theory_abbreviation pbe0_d3bj
 -----------------------------
 Symbolic Z-matrix:
 Charge =  0 Multiplicity = 6

 SCF Done:  E(UPBE1PBE) =  -3033.16615830     A.U. after    1 cycles
 Normal termination of Gaussian 16 at Tue Feb 11 13:59:54 2020.

 -----------------------------------------
 #t pop=none jul-cc-pvdz guess=read ub3lyp
 -----------------------------------------
 -------------------------
 theory_abbreviation b3lyp
 -------------------------
 Symbolic Z-matrix:
 Charge =  0 Multiplicity = 6

 SCF Done:  E(UB3LYP) =  -3034.34646065     A.U. after   13 cycles
 Normal termination of Gaussian 16 at Tue Feb 11 14:12:54 2020.

 -------------------------------------------------------------------
 #t pop=none jul-cc-pvdz guess=read ub3lyp empiricaldispersion=gd3bj
 -------------------------------------------------------------------
 ------------------------------
 theory_abbreviation b3lyp_d3bj
 ------------------------------
 Symbolic Z-matrix:
 Charge =  0 Multiplicity = 6

 SCF Done:  E(UB3LYP) =  -3034.41507072     A.U. after    1 cycles
 Normal termination of Gaussian 16 at Tue Feb 11 14:14:12 2020.

 ----------------------------------------
 #t pop=none jul-cc-pvdz guess=read ub97d
 ----------------------------------------
 ------------------------
 theory_abbreviation b97d
 ------------------------
 Symbolic Z-matrix:
 Charge =  0 Multiplicity = 6

 SCF Done:  E(UB97D) =  -3034.59903403     A.U. after   15 cycles

 ----------------------------------------------------------------
 #t pop=none jul-cc-pvdz guess=read ub97d empiricaldispersion=gd3
 ----------------------------------------------------------------
 -------------------------
 theory_abbreviation b97d3
 -------------------------
 Symbolic Z-matrix:
 Charge =  0 Multiplicity = 6

 SCF Done:  E(UB97D) =  -3034.60011577     A.U. after    1 cycles
 SCF Done:  E(UBHandHLYP) =  -3033.98739532     A.U. after   18 cycles
 SCF Done:  E(UBHandH) =  -3026.32691467     A.U. after   14 cycles
 SCF Done:  E(ULC-wPBE) =  -3033.46929326     A.U. after   19 cycles
 SCF Done:  E(UB-P86) =  -3034.64884785     A.U. after   16 cycles
 SCF Done:  E(UmPW1LYP) =  -3034.06464065     A.U. after   14 cycles
 SCF Done:  E(UmPW1PBE) =  -3033.90366386     A.U. after   14 cycles
 SCF Done:  E(UmPW3PBE) =  -3033.67666966     A.U. after   13 cycles
 SCF Done:  E(UM11) =  -3033.82681424     A.U. after   17 cycles
 SCF Done:  E(UN12SX) =  -3033.26805595     A.U. after   17 cycles
 SCF Done:  E(UMN12SX) =  -3033.66925155     A.U. after   16 cycles
 SCF Done:  E(UB1B95) =  -3034.39913588     A.U. after   14 cycles
 Normal termination of Gaussian 16 at Tue Feb 11 22:25:27 2020.
 SCF Done:  E(UB3PW91) =  -3033.99264455     A.U. after   13 cycles
 Normal termination of Gaussian 16 at Tue Feb 11 22:38:11 2020.
 SCF Done:  E(UM06L) =  -3034.21436117     A.U. after   17 cycles
 Normal termination of Gaussian 16 at Tue Feb 11 22:57:27 2020.
 Gaussian 16:  ES64L-G16RevA.03 25-Dec-2016

                         Standard orientation:
 ---------------------------------------------------------------------
 Center     Atomic      Atomic             Coordinates (Angstroms)
 Number     Number       Type             X           Y           Z
 ---------------------------------------------------------------------
      1          8           0        0.219388    0.320156   -0.843072
      2          6           0        1.060683    1.245511   -0.657161
      3          6           0        2.922363    0.228415    0.568469
      4          6           0        2.675979   -0.921974   -0.105031
      5          6           0        3.279892   -1.194450   -1.452589
      6         26           0       -1.477025   -0.157854   -0.008188
      7         17           0       -2.034172   -2.033478   -0.967488
      8          6           0        1.766176   -1.998126    0.400391
      9         17           0       -2.717715    1.578599   -0.495158
     10         17           0       -1.132344   -0.351450    2.155793
     11          1           0        3.644105    0.914052    0.126013
     12          1           0        2.300388   -2.956136    0.440299
     13          1           0        1.346622   -1.793289    1.384659
     14          1           0        0.934210   -2.139866   -0.303172
     15          1           0        3.865159   -2.122230   -1.412572
     16          1           0        2.497028   -1.357855   -2.205523
     17          1           0        3.942153   -0.392685   -1.788891
     18          6           0        2.630897    0.454972    2.032287
     19          1           0        3.387102   -0.058937    2.640217
     20          1           0        2.684847    1.515108    2.292133
     21          1           0        1.652368    0.080641    2.340745
     22          6           0        0.826609    2.260118    0.424404
     23          1           0        1.707704    2.872081    0.620269
     24          1           0        0.027383    2.911788    0.041126
     25          1           0        0.458992    1.805646    1.343950
     26          6           0        1.863297    1.680956   -1.852710
     27          1           0        1.226681    2.399255   -2.389115
     28          1           0        2.787387    2.191366   -1.578642
     29          1           0        2.061958    0.849066   -2.525880
 ---------------------------------------------------------------------

 SCF Done:  E(UB97D3) =  -3034.63524120     A.U. after   16 cycles
 Normal termination of Gaussian 16 at Tue Feb 11 23:09:47 2020.
