 Gaussian 16, Revision A.03,

 --------------------------------
 #t pop=none jul-cc-pvdz upbe1pbe
 --------------------------------
 ------------------------
 theory_abbreviation pbe0
 ------------------------
 Symbolic Z-matrix:
 Charge =  0 Multiplicity = 6

 SCF Done:  E(UPBE1PBE) =  -3033.10968825     A.U. after   21 cycles
 Normal termination of Gaussian 16 at Tue Feb 11 14:45:32 2020.

 ---------------------------------------------------------------------
 #t pop=none jul-cc-pvdz guess=read upbe1pbe empiricaldispersion=gd3bj
 ---------------------------------------------------------------------
 -----------------------------
 theory_abbreviation pbe0_d3bj
 -----------------------------
 Symbolic Z-matrix:
 Charge =  0 Multiplicity = 6

 SCF Done:  E(UPBE1PBE) =  -3033.14637888     A.U. after    1 cycles
 Normal termination of Gaussian 16 at Tue Feb 11 14:46:46 2020.

 -----------------------------------------
 #t pop=none jul-cc-pvdz guess=read ub3lyp
 -----------------------------------------
 -------------------------
 theory_abbreviation b3lyp
 -------------------------
 Symbolic Z-matrix:
 Charge =  0 Multiplicity = 6

 SCF Done:  E(UB3LYP) =  -3034.32257779     A.U. after   13 cycles
 Normal termination of Gaussian 16 at Tue Feb 11 15:03:26 2020.

 -------------------------------------------------------------------
 #t pop=none jul-cc-pvdz guess=read ub3lyp empiricaldispersion=gd3bj
 -------------------------------------------------------------------
 ------------------------------
 theory_abbreviation b3lyp_d3bj
 ------------------------------
 Symbolic Z-matrix:
 Charge =  0 Multiplicity = 6

 SCF Done:  E(UB3LYP) =  -3034.39096406     A.U. after    1 cycles
 Normal termination of Gaussian 16 at Tue Feb 11 15:04:36 2020.

 ----------------------------------------
 #t pop=none jul-cc-pvdz guess=read ub97d
 ----------------------------------------
 ------------------------
 theory_abbreviation b97d
 ------------------------
 Symbolic Z-matrix:
 Charge =  0 Multiplicity = 6

 SCF Done:  E(UB97D) =  -3034.57535940     A.U. after   17 cycles

 ----------------------------------------------------------------
 #t pop=none jul-cc-pvdz guess=read ub97d empiricaldispersion=gd3
 ----------------------------------------------------------------
 -------------------------
 theory_abbreviation b97d3
 -------------------------
 Symbolic Z-matrix:
 Charge =  0 Multiplicity = 6

 SCF Done:  E(UB97D) =  -3034.57572650     A.U. after    1 cycles
 SCF Done:  E(UBHandHLYP) =  -3033.96383235     A.U. after   17 cycles
 SCF Done:  E(UBHandH) =  -3026.31181441     A.U. after   16 cycles
 SCF Done:  E(ULC-wPBE) =  -3033.44905281     A.U. after   18 cycles
 SCF Done:  E(UB-P86) =  -3034.62825448     A.U. after   16 cycles
 SCF Done:  E(UmPW1LYP) =  -3034.04055157     A.U. after   15 cycles
 SCF Done:  E(UmPW1PBE) =  -3033.88406891     A.U. after   16 cycles
 SCF Done:  E(UmPW3PBE) =  -3033.65658485     A.U. after   15 cycles
 SCF Done:  E(UM11) =  -3033.80646392     A.U. after   19 cycles
 SCF Done:  E(UN12SX) =  -3033.24953018     A.U. after   17 cycles
 SCF Done:  E(UMN12SX) =  -3033.64636172     A.U. after   17 cycles
 SCF Done:  E(UB1B95) =  -3034.37737371     A.U. after   16 cycles
 Normal termination of Gaussian 16 at Tue Feb 11 23:50:55 2020.
 SCF Done:  E(UB3PW91) =  -3033.97194879     A.U. after   15 cycles
 Normal termination of Gaussian 16 at Wed Feb 12 00:06:57 2020.
 SCF Done:  E(UM06L) =  -3034.18983163     A.U. after   17 cycles
 Normal termination of Gaussian 16 at Wed Feb 12 00:25:27 2020.
 Gaussian 16:  ES64L-G16RevA.03 25-Dec-2016

                         Standard orientation:
 ---------------------------------------------------------------------
 Center     Atomic      Atomic             Coordinates (Angstroms)
 Number     Number       Type             X           Y           Z
 ---------------------------------------------------------------------
      1          8           0       -0.331970   -0.168266   -0.627685
      2          6           0       -1.229311   -1.121165   -0.475077
      3          6           0       -2.653067   -0.394989    0.552341
      4          6           0       -2.648734    0.863005   -0.054003
      5          6           0       -3.429937    1.132738   -1.294209
      6         26           0        1.431009    0.147424   -0.045993
      7         17           0        1.845812    2.143635   -0.880261
      8          6           0       -1.807631    1.971121    0.434572
      9         17           0        2.655941   -1.502916   -0.818779
     10         17           0        1.358082    0.197245    2.170628
     11          1           0       -3.452792   -1.052200    0.210988
     12          1           0       -2.240581    2.946824    0.196421
     13          1           0       -1.553526    1.907026    1.492348
     14          1           0       -0.859664    1.900339   -0.128659
     15          1           0       -4.140207    1.943933   -1.083499
     16          1           0       -2.768821    1.505319   -2.088022
     17          1           0       -3.989203    0.267311   -1.650855
     18          6           0       -2.333501   -0.516181    2.035801
     19          1           0       -3.045103    0.083367    2.614782
     20          1           0       -2.432693   -1.551386    2.366497
     21          1           0       -1.324136   -0.177718    2.277958
     22          6           0       -0.799643   -2.306129    0.383721
     23          1           0       -1.619852   -3.004540    0.568426
     24          1           0       -0.021997   -2.823283   -0.191571
     25          1           0       -0.354257   -1.991373    1.326911
     26          6           0       -1.844752   -1.564937   -1.798667
     27          1           0       -1.077004   -2.155156   -2.311567
     28          1           0       -2.728936   -2.194370   -1.665078
     29          1           0       -2.079460   -0.717175   -2.441640
 ---------------------------------------------------------------------

 SCF Done:  E(UB97D3) =  -3034.60987872     A.U. after   16 cycles
 Normal termination of Gaussian 16 at Wed Feb 12 00:38:03 2020.
