 Gaussian 16, Revision A.03,

 --------------------------------
 #t pop=none jul-cc-pvdz upbe1pbe
 --------------------------------
 ------------------------
 theory_abbreviation pbe0
 ------------------------
 Symbolic Z-matrix:
 Charge =  0 Multiplicity = 6

 SCF Done:  E(UPBE1PBE) =  -3033.11171415     A.U. after   20 cycles
 Normal termination of Gaussian 16 at Tue Feb 11 23:39:05 2020.

 ---------------------------------------------------------------------
 #t pop=none jul-cc-pvdz guess=read upbe1pbe empiricaldispersion=gd3bj
 ---------------------------------------------------------------------
 -----------------------------
 theory_abbreviation pbe0_d3bj
 -----------------------------
 Symbolic Z-matrix:
 Charge =  0 Multiplicity = 6

 SCF Done:  E(UPBE1PBE) =  -3033.14961284     A.U. after    1 cycles
 Normal termination of Gaussian 16 at Tue Feb 11 23:40:16 2020.

 -----------------------------------------
 #t pop=none jul-cc-pvdz guess=read ub3lyp
 -----------------------------------------
 -------------------------
 theory_abbreviation b3lyp
 -------------------------
 Symbolic Z-matrix:
 Charge =  0 Multiplicity = 6

 SCF Done:  E(UB3LYP) =  -3034.32648695     A.U. after   13 cycles
 Normal termination of Gaussian 16 at Tue Feb 11 23:53:19 2020.

 -------------------------------------------------------------------
 #t pop=none jul-cc-pvdz guess=read ub3lyp empiricaldispersion=gd3bj
 -------------------------------------------------------------------
 ------------------------------
 theory_abbreviation b3lyp_d3bj
 ------------------------------
 Symbolic Z-matrix:
 Charge =  0 Multiplicity = 6

 SCF Done:  E(UB3LYP) =  -3034.39709521     A.U. after    1 cycles
 Normal termination of Gaussian 16 at Tue Feb 11 23:55:16 2020.

 ----------------------------------------
 #t pop=none jul-cc-pvdz guess=read ub97d
 ----------------------------------------
 ------------------------
 theory_abbreviation b97d
 ------------------------
 Symbolic Z-matrix:
 Charge =  0 Multiplicity = 6

 SCF Done:  E(UB97D) =  -3034.57956868     A.U. after   15 cycles

 ----------------------------------------------------------------
 #t pop=none jul-cc-pvdz guess=read ub97d empiricaldispersion=gd3
 ----------------------------------------------------------------
 -------------------------
 theory_abbreviation b97d3
 -------------------------
 Symbolic Z-matrix:
 Charge =  0 Multiplicity = 6

 SCF Done:  E(UB97D) =  -3034.58138504     A.U. after    1 cycles
 SCF Done:  E(UBHandHLYP) =  -3033.96831229     A.U. after   18 cycles
 SCF Done:  E(UBHandH) =  -3026.31299645     A.U. after   15 cycles
 SCF Done:  E(ULC-wPBE) =  -3033.45245536     A.U. after   19 cycles
 SCF Done:  E(UB-P86) =  -3034.63240383     A.U. after   16 cycles
 SCF Done:  E(UmPW1LYP) =  -3034.04465416     A.U. after   14 cycles
 SCF Done:  E(UmPW1PBE) =  -3033.88619223     A.U. after   14 cycles
 SCF Done:  E(UmPW3PBE) =  -3033.65884308     A.U. after   13 cycles
 SCF Done:  E(UM11) =  -3033.80956075     A.U. after   17 cycles
 SCF Done:  E(UN12SX) =  -3033.25083116     A.U. after   17 cycles
 SCF Done:  E(UMN12SX) =  -3033.65146123     A.U. after   16 cycles
 SCF Done:  E(UB1B95) =  -3034.38186825     A.U. after   15 cycles
 Normal termination of Gaussian 16 at Wed Feb 12 08:05:11 2020.
 SCF Done:  E(UB3PW91) =  -3033.97444600     A.U. after   15 cycles
 Normal termination of Gaussian 16 at Wed Feb 12 08:21:57 2020.
 SCF Done:  E(UM06L) =  -3034.19530915     A.U. after   17 cycles
 Normal termination of Gaussian 16 at Wed Feb 12 08:41:55 2020.
 Gaussian 16:  ES64L-G16RevA.03 25-Dec-2016

                         Standard orientation:
 ---------------------------------------------------------------------
 Center     Atomic      Atomic             Coordinates (Angstroms)
 Number     Number       Type             X           Y           Z
 ---------------------------------------------------------------------
      1          8           0       -0.323755   -0.123991   -0.620218
      2          6           0       -1.196418   -1.058299   -0.549610
      3          6           0       -3.147623    0.001039    0.050889
      4          6           0       -2.316801    1.049269   -0.203368
      5          6           0       -2.237074    1.675292   -1.561461
      6         26           0        1.460116    0.070811    0.053879
      7         17           0        2.084294    1.996562   -0.776877
      8          6           0       -1.564136    1.770296    0.873131
      9         17           0        2.450240   -1.722642   -0.740695
     10         17           0        1.369772    0.047017    2.254726
     11          1           0       -3.750893   -0.362371   -0.778417
     12          1           0       -2.217642    2.557801    1.275017
     13          1           0       -1.269776    1.130395    1.705787
     14          1           0       -0.671107    2.258523    0.475530
     15          1           0       -2.576645    2.716473   -1.480021
     16          1           0       -1.200712    1.706046   -1.912720
     17          1           0       -2.868282    1.173824   -2.299095
     18          6           0       -3.596922   -0.451678    1.414433
     19          1           0       -4.516525    0.082341    1.689436
     20          1           0       -3.835490   -1.519462    1.430964
     21          1           0       -2.861051   -0.253234    2.196848
     22          6           0       -1.135354   -2.009976    0.610288
     23          1           0       -2.015260   -2.649539    0.679519
     24          1           0       -0.260177   -2.647519    0.413750
     25          1           0       -0.949885   -1.494519    1.552829
     26          6           0       -1.704417   -1.600471   -1.858860
     27          1           0       -0.892141   -2.234734   -2.242619
     28          1           0       -2.598835   -2.214852   -1.742610
     29          1           0       -1.869315   -0.807098   -2.587586
 ---------------------------------------------------------------------

 SCF Done:  E(UB97D3) =  -3034.61722042     A.U. after   17 cycles
 Normal termination of Gaussian 16 at Wed Feb 12 08:56:29 2020.
