 Gaussian 16, Revision A.03,

 --------------------------------
 #t pop=none jul-cc-pvdz upbe1pbe
 --------------------------------
 ------------------------
 theory_abbreviation pbe0
 ------------------------
 Symbolic Z-matrix:
 Charge =  0 Multiplicity = 6

 SCF Done:  E(UPBE1PBE) =  -3033.11291819     A.U. after   21 cycles
 Normal termination of Gaussian 16 at Tue Feb 11 13:56:40 2020.

 ---------------------------------------------------------------------
 #t pop=none jul-cc-pvdz guess=read upbe1pbe empiricaldispersion=gd3bj
 ---------------------------------------------------------------------
 -----------------------------
 theory_abbreviation pbe0_d3bj
 -----------------------------
 Symbolic Z-matrix:
 Charge =  0 Multiplicity = 6

 SCF Done:  E(UPBE1PBE) =  -3033.14985462     A.U. after    1 cycles
 Normal termination of Gaussian 16 at Tue Feb 11 13:57:50 2020.

 -----------------------------------------
 #t pop=none jul-cc-pvdz guess=read ub3lyp
 -----------------------------------------
 -------------------------
 theory_abbreviation b3lyp
 -------------------------
 Symbolic Z-matrix:
 Charge =  0 Multiplicity = 6

 SCF Done:  E(UB3LYP) =  -3034.32555701     A.U. after   13 cycles
 Normal termination of Gaussian 16 at Tue Feb 11 14:11:29 2020.

 -------------------------------------------------------------------
 #t pop=none jul-cc-pvdz guess=read ub3lyp empiricaldispersion=gd3bj
 -------------------------------------------------------------------
 ------------------------------
 theory_abbreviation b3lyp_d3bj
 ------------------------------
 Symbolic Z-matrix:
 Charge =  0 Multiplicity = 6

 SCF Done:  E(UB3LYP) =  -3034.39436229     A.U. after    1 cycles
 Normal termination of Gaussian 16 at Tue Feb 11 14:12:39 2020.

 ----------------------------------------
 #t pop=none jul-cc-pvdz guess=read ub97d
 ----------------------------------------
 ------------------------
 theory_abbreviation b97d
 ------------------------
 Symbolic Z-matrix:
 Charge =  0 Multiplicity = 6

 SCF Done:  E(UB97D) =  -3034.57513730     A.U. after   16 cycles

 ----------------------------------------------------------------
 #t pop=none jul-cc-pvdz guess=read ub97d empiricaldispersion=gd3
 ----------------------------------------------------------------
 -------------------------
 theory_abbreviation b97d3
 -------------------------
 Symbolic Z-matrix:
 Charge =  0 Multiplicity = 6

 SCF Done:  E(UB97D) =  -3034.57608574     A.U. after    2 cycles
 SCF Done:  E(UBHandHLYP) =  -3033.97005099     A.U. after   15 cycles
 SCF Done:  E(UBHandH) =  -3026.31666105     A.U. after   14 cycles
 SCF Done:  E(ULC-wPBE) =  -3033.45840086     A.U. after   17 cycles
 SCF Done:  E(UB-P86) =  -3034.63122976     A.U. after   17 cycles
 SCF Done:  E(UmPW1LYP) =  -3034.04406233     A.U. after   14 cycles
 SCF Done:  E(UmPW1PBE) =  -3033.88738209     A.U. after   14 cycles
 SCF Done:  E(UmPW3PBE) =  -3033.65941371     A.U. after   14 cycles
 SCF Done:  E(UM11) =  -3033.80833099     A.U. after   17 cycles
 SCF Done:  E(UN12SX) =  -3033.25290834     A.U. after   16 cycles
 SCF Done:  E(UMN12SX) =  -3033.64916671     A.U. after   16 cycles
 SCF Done:  E(UB1B95) =  -3034.37888505     A.U. after   15 cycles
 Normal termination of Gaussian 16 at Tue Feb 11 22:28:38 2020.
 SCF Done:  E(UB3PW91) =  -3033.97479561     A.U. after   14 cycles
 Normal termination of Gaussian 16 at Tue Feb 11 22:42:50 2020.
 SCF Done:  E(UM06L) =  -3034.19065729     A.U. after   16 cycles
 Normal termination of Gaussian 16 at Tue Feb 11 23:01:55 2020.
 Gaussian 16:  ES64L-G16RevA.03 25-Dec-2016

                         Standard orientation:
 ---------------------------------------------------------------------
 Center     Atomic      Atomic             Coordinates (Angstroms)
 Number     Number       Type             X           Y           Z
 ---------------------------------------------------------------------
      1          8           0       -0.341562   -0.303380   -0.604001
      2          6           0       -1.457806   -1.178768   -0.340424
      3          6           0       -2.689973   -0.158112   -0.345773
      4          6           0       -1.992053    1.176756   -0.219907
      5          6           0       -1.812260    2.048478   -1.392909
      6         26           0        1.384064    0.011601    0.005146
      7         17           0        1.750813    2.043642   -0.843218
      8          6           0       -1.644853    1.730392    1.103090
      9         17           0        2.668516   -1.615156   -0.708641
     10         17           0        1.336290    0.155413    2.221789
     11          1           0       -3.138088   -0.198947   -1.343101
     12          1           0       -2.548971    2.250383    1.464650
     13          1           0       -1.388847    0.965474    1.836216
     14          1           0       -0.838145    2.464053    1.034055
     15          1           0       -2.342108    2.997461   -1.218124
     16          1           0       -0.743795    2.308535   -1.464247
     17          1           0       -2.150841    1.594268   -2.323931
     18          6           0       -3.787628   -0.400934    0.695019
     19          1           0       -4.589675    0.339657    0.602548
     20          1           0       -4.230356   -1.387650    0.529874
     21          1           0       -3.406510   -0.370959    1.718342
     22          6           0       -1.269694   -1.915663    0.981650
     23          1           0       -2.106098   -2.593305    1.179715
     24          1           0       -0.355746   -2.515142    0.917104
     25          1           0       -1.149931   -1.237827    1.828671
     26          6           0       -1.570279   -2.165571   -1.496766
     27          1           0       -0.672496   -2.791178   -1.525025
     28          1           0       -2.447046   -2.814049   -1.382561
     29          1           0       -1.642763   -1.631116   -2.448651
 ---------------------------------------------------------------------

 SCF Done:  E(UB97D3) =  -3034.61161058     A.U. after   16 cycles
 Normal termination of Gaussian 16 at Tue Feb 11 23:14:41 2020.
