 Gaussian 16, Revision A.03,

 --------------------------------
 #t pop=none jul-cc-pvdz upbe1pbe
 --------------------------------
 ------------------------
 theory_abbreviation pbe0
 ------------------------
 Symbolic Z-matrix:
 Charge =  0 Multiplicity = 6

 SCF Done:  E(UPBE1PBE) =  -3033.12905263     A.U. after   20 cycles
 Normal termination of Gaussian 16 at Tue Feb 11 14:46:06 2020.

 ---------------------------------------------------------------------
 #t pop=none jul-cc-pvdz guess=read upbe1pbe empiricaldispersion=gd3bj
 ---------------------------------------------------------------------
 -----------------------------
 theory_abbreviation pbe0_d3bj
 -----------------------------
 Symbolic Z-matrix:
 Charge =  0 Multiplicity = 6

 SCF Done:  E(UPBE1PBE) =  -3033.16621589     A.U. after    1 cycles
 Normal termination of Gaussian 16 at Tue Feb 11 14:47:13 2020.

 -----------------------------------------
 #t pop=none jul-cc-pvdz guess=read ub3lyp
 -----------------------------------------
 -------------------------
 theory_abbreviation b3lyp
 -------------------------
 Symbolic Z-matrix:
 Charge =  0 Multiplicity = 6

 SCF Done:  E(UB3LYP) =  -3034.34608204     A.U. after   13 cycles
 Normal termination of Gaussian 16 at Tue Feb 11 15:00:20 2020.

 -------------------------------------------------------------------
 #t pop=none jul-cc-pvdz guess=read ub3lyp empiricaldispersion=gd3bj
 -------------------------------------------------------------------
 ------------------------------
 theory_abbreviation b3lyp_d3bj
 ------------------------------
 Symbolic Z-matrix:
 Charge =  0 Multiplicity = 6

 SCF Done:  E(UB3LYP) =  -3034.41511484     A.U. after    1 cycles
 Normal termination of Gaussian 16 at Tue Feb 11 15:01:26 2020.

 ----------------------------------------
 #t pop=none jul-cc-pvdz guess=read ub97d
 ----------------------------------------
 ------------------------
 theory_abbreviation b97d
 ------------------------
 Symbolic Z-matrix:
 Charge =  0 Multiplicity = 6

 SCF Done:  E(UB97D) =  -3034.59831108     A.U. after   15 cycles

 ----------------------------------------------------------------
 #t pop=none jul-cc-pvdz guess=read ub97d empiricaldispersion=gd3
 ----------------------------------------------------------------
 -------------------------
 theory_abbreviation b97d3
 -------------------------
 Symbolic Z-matrix:
 Charge =  0 Multiplicity = 6

 SCF Done:  E(UB97D) =  -3034.59990241     A.U. after    1 cycles
 SCF Done:  E(UBHandHLYP) =  -3033.98778491     A.U. after   15 cycles
 SCF Done:  E(UBHandH) =  -3026.32766625     A.U. after   14 cycles
 SCF Done:  E(ULC-wPBE) =  -3033.47027518     A.U. after   19 cycles
 SCF Done:  E(UB-P86) =  -3034.64853831     A.U. after   17 cycles
 SCF Done:  E(UmPW1LYP) =  -3034.06437492     A.U. after   13 cycles
 SCF Done:  E(UmPW1PBE) =  -3033.90346933     A.U. after   13 cycles
 SCF Done:  E(UmPW3PBE) =  -3033.67636913     A.U. after   13 cycles
 SCF Done:  E(UM11) =  -3033.82768611     A.U. after   17 cycles
 SCF Done:  E(UN12SX) =  -3033.26789080     A.U. after   16 cycles
 SCF Done:  E(UMN12SX) =  -3033.66991840     A.U. after   16 cycles
 SCF Done:  E(UB1B95) =  -3034.39957185     A.U. after   14 cycles
 Normal termination of Gaussian 16 at Tue Feb 11 23:22:52 2020.
 SCF Done:  E(UB3PW91) =  -3033.99232616     A.U. after   13 cycles
 Normal termination of Gaussian 16 at Tue Feb 11 23:36:23 2020.
 SCF Done:  E(UM06L) =  -3034.21504559     A.U. after   17 cycles
 Normal termination of Gaussian 16 at Tue Feb 11 23:55:17 2020.
 Gaussian 16:  ES64L-G16RevA.03 25-Dec-2016

                         Standard orientation:
 ---------------------------------------------------------------------
 Center     Atomic      Atomic             Coordinates (Angstroms)
 Number     Number       Type             X           Y           Z
 ---------------------------------------------------------------------
      1          8           0        0.265788    0.272265   -0.808446
      2          6           0        1.071421    1.228224   -0.650871
      3          6           0        3.087765    0.071755    0.397667
      4          6           0        2.509837   -0.996516   -0.194465
      5          6           0        2.804189   -1.365355   -1.620664
      6         26           0       -1.459162   -0.127359    0.031367
      7         17           0       -2.098288   -1.988500   -0.901187
      8          6           0        1.601828   -1.956781    0.512831
      9         17           0       -2.606108    1.657055   -0.517635
     10         17           0       -1.160825   -0.266175    2.204700
     11          1           0        3.803266    0.642985   -0.192976
     12          1           0        2.140001   -2.899675    0.682668
     13          1           0        1.241760   -1.597595    1.476221
     14          1           0        0.736794   -2.206168   -0.111984
     15          1           0        3.195004   -2.390100   -1.662736
     16          1           0        1.882793   -1.361349   -2.217239
     17          1           0        3.541641   -0.704918   -2.084824
     18          6           0        3.066708    0.390484    1.869253
     19          1           0        3.912453   -0.100603    2.369477
     20          1           0        3.175419    1.464000    2.051732
     21          1           0        2.154126    0.053143    2.367143
     22          6           0        0.925527    2.164945    0.508606
     23          1           0        1.812244    2.782358    0.654767
     24          1           0        0.081166    2.823212    0.253753
     25          1           0        0.660707    1.641055    1.426895
     26          6           0        1.815473    1.720009   -1.858067
     27          1           0        1.152013    2.459970   -2.329861
     28          1           0        2.747561    2.223515   -1.598417
     29          1           0        1.987237    0.922346   -2.578265
 ---------------------------------------------------------------------

 SCF Done:  E(UB97D3) =  -3034.63481702     A.U. after   17 cycles
 Normal termination of Gaussian 16 at Wed Feb 12 00:09:51 2020.
