 Gaussian 16, Revision A.03,

 --------------------------------
 #t pop=none jul-cc-pvdz upbe1pbe
 --------------------------------
 ------------------------
 theory_abbreviation pbe0
 ------------------------
 Symbolic Z-matrix:
 Charge =  0 Multiplicity = 6

 SCF Done:  E(UPBE1PBE) =  -3033.11430911     A.U. after   21 cycles
 Normal termination of Gaussian 16 at Tue Feb 11 13:58:48 2020.

 ---------------------------------------------------------------------
 #t pop=none jul-cc-pvdz guess=read upbe1pbe empiricaldispersion=gd3bj
 ---------------------------------------------------------------------
 -----------------------------
 theory_abbreviation pbe0_d3bj
 -----------------------------
 Symbolic Z-matrix:
 Charge =  0 Multiplicity = 6

 SCF Done:  E(UPBE1PBE) =  -3033.15045658     A.U. after    1 cycles
 Normal termination of Gaussian 16 at Tue Feb 11 13:59:57 2020.

 -----------------------------------------
 #t pop=none jul-cc-pvdz guess=read ub3lyp
 -----------------------------------------
 -------------------------
 theory_abbreviation b3lyp
 -------------------------
 Symbolic Z-matrix:
 Charge =  0 Multiplicity = 6

 SCF Done:  E(UB3LYP) =  -3034.32816290     A.U. after   13 cycles
 Normal termination of Gaussian 16 at Tue Feb 11 14:13:36 2020.

 -------------------------------------------------------------------
 #t pop=none jul-cc-pvdz guess=read ub3lyp empiricaldispersion=gd3bj
 -------------------------------------------------------------------
 ------------------------------
 theory_abbreviation b3lyp_d3bj
 ------------------------------
 Symbolic Z-matrix:
 Charge =  0 Multiplicity = 6

 SCF Done:  E(UB3LYP) =  -3034.39555648     A.U. after    1 cycles
 Normal termination of Gaussian 16 at Tue Feb 11 14:14:46 2020.

 ----------------------------------------
 #t pop=none jul-cc-pvdz guess=read ub97d
 ----------------------------------------
 ------------------------
 theory_abbreviation b97d
 ------------------------
 Symbolic Z-matrix:
 Charge =  0 Multiplicity = 6

 SCF Done:  E(UB97D) =  -3034.58063928     A.U. after   17 cycles

 ----------------------------------------------------------------
 #t pop=none jul-cc-pvdz guess=read ub97d empiricaldispersion=gd3
 ----------------------------------------------------------------
 -------------------------
 theory_abbreviation b97d3
 -------------------------
 Symbolic Z-matrix:
 Charge =  0 Multiplicity = 6

 SCF Done:  E(UB97D) =  -3034.58107218     A.U. after    1 cycles
 SCF Done:  E(UBHandHLYP) =  -3033.96806949     A.U. after   17 cycles
 SCF Done:  E(UBHandH) =  -3026.31443535     A.U. after   16 cycles
 SCF Done:  E(ULC-wPBE) =  -3033.45210351     A.U. after   18 cycles
 SCF Done:  E(UB-P86) =  -3034.63297605     A.U. after   16 cycles
 SCF Done:  E(UmPW1LYP) =  -3034.04588229     A.U. after   15 cycles
 SCF Done:  E(UmPW1PBE) =  -3033.88882886     A.U. after   16 cycles
 SCF Done:  E(UmPW3PBE) =  -3033.66158477     A.U. after   15 cycles
 SCF Done:  E(UM11) =  -3033.80998578     A.U. after   19 cycles
 SCF Done:  E(UN12SX) =  -3033.25385232     A.U. after   17 cycles
 SCF Done:  E(UMN12SX) =  -3033.64989844     A.U. after   17 cycles
 SCF Done:  E(UB1B95) =  -3034.38182096     A.U. after   16 cycles
 Normal termination of Gaussian 16 at Tue Feb 11 22:57:11 2020.
 SCF Done:  E(UB3PW91) =  -3033.97711508     A.U. after   15 cycles
 Normal termination of Gaussian 16 at Tue Feb 11 23:12:26 2020.
 SCF Done:  E(UM06L) =  -3034.19378024     A.U. after   16 cycles
 Normal termination of Gaussian 16 at Tue Feb 11 23:29:54 2020.
 Gaussian 16:  ES64L-G16RevA.03 25-Dec-2016

                         Standard orientation:
 ---------------------------------------------------------------------
 Center     Atomic      Atomic             Coordinates (Angstroms)
 Number     Number       Type             X           Y           Z
 ---------------------------------------------------------------------
      1          8           0       -0.334548   -0.142112   -0.478870
      2          6           0       -1.193532   -1.112246   -0.305984
      3          6           0       -2.635897   -0.350400    0.762507
      4          6           0       -2.906965    0.736183   -0.062066
      5          6           0       -3.915536    0.656673   -1.158335
      6         26           0        1.490362    0.174249   -0.080551
      7         17           0        1.810664    2.179992   -0.915919
      8          6           0       -2.143659    1.993830    0.057607
      9         17           0        2.555667   -1.478247   -1.062522
     10         17           0        1.722244    0.137752    2.116285
     11          1           0       -3.344934   -1.174364    0.681589
     12          1           0       -2.575068    2.810602   -0.524671
     13          1           0       -1.987823    2.303525    1.094416
     14          1           0       -1.136694    1.770253   -0.345634
     15          1           0       -4.732650    1.351258   -0.915032
     16          1           0       -3.495483    1.005724   -2.110021
     17          1           0       -4.339800   -0.340764   -1.283677
     18          6           0       -2.058197   -0.119692    2.149643
     19          1           0       -2.696647    0.574594    2.707782
     20          1           0       -2.016527   -1.052503    2.713938
     21          1           0       -1.049658    0.298941    2.115502
     22          6           0       -0.756017   -2.242446    0.620482
     23          1           0       -1.577621   -2.918889    0.869036
     24          1           0        0.003087   -2.805141    0.062553
     25          1           0       -0.283818   -1.869850    1.528519
     26          6           0       -1.814186   -1.618969   -1.599792
     27          1           0       -1.048313   -2.230437   -2.090939
     28          1           0       -2.694151   -2.245233   -1.429119
     29          1           0       -2.058784   -0.800330   -2.276682
 ---------------------------------------------------------------------

 SCF Done:  E(UB97D3) =  -3034.61532974     A.U. after   17 cycles
 Normal termination of Gaussian 16 at Tue Feb 11 23:43:17 2020.
