 Gaussian 16, Revision A.03,

 --------------------------------
 #t pop=none jul-cc-pvdz upbe1pbe
 --------------------------------
 ------------------------
 theory_abbreviation pbe0
 ------------------------
 Symbolic Z-matrix:
 Charge =  0 Multiplicity = 6

 SCF Done:  E(UPBE1PBE) =  -3033.10230841     A.U. after   21 cycles
 Normal termination of Gaussian 16 at Tue Feb 11 13:59:11 2020.

 ---------------------------------------------------------------------
 #t pop=none jul-cc-pvdz guess=read upbe1pbe empiricaldispersion=gd3bj
 ---------------------------------------------------------------------
 -----------------------------
 theory_abbreviation pbe0_d3bj
 -----------------------------
 Symbolic Z-matrix:
 Charge =  0 Multiplicity = 6

 SCF Done:  E(UPBE1PBE) =  -3033.13942519     A.U. after    1 cycles
 Normal termination of Gaussian 16 at Tue Feb 11 14:00:24 2020.

 -----------------------------------------
 #t pop=none jul-cc-pvdz guess=read ub3lyp
 -----------------------------------------
 -------------------------
 theory_abbreviation b3lyp
 -------------------------
 Symbolic Z-matrix:
 Charge =  0 Multiplicity = 6

 SCF Done:  E(UB3LYP) =  -3034.31503956     A.U. after   15 cycles
 Normal termination of Gaussian 16 at Tue Feb 11 14:16:17 2020.

 -------------------------------------------------------------------
 #t pop=none jul-cc-pvdz guess=read ub3lyp empiricaldispersion=gd3bj
 -------------------------------------------------------------------
 ------------------------------
 theory_abbreviation b3lyp_d3bj
 ------------------------------
 Symbolic Z-matrix:
 Charge =  0 Multiplicity = 6

 SCF Done:  E(UB3LYP) =  -3034.38414889     A.U. after    1 cycles
 Normal termination of Gaussian 16 at Tue Feb 11 14:17:27 2020.

 ----------------------------------------
 #t pop=none jul-cc-pvdz guess=read ub97d
 ----------------------------------------
 ------------------------
 theory_abbreviation b97d
 ------------------------
 Symbolic Z-matrix:
 Charge =  0 Multiplicity = 6

 SCF Done:  E(UB97D) =  -3034.56622639     A.U. after   16 cycles

 ----------------------------------------------------------------
 #t pop=none jul-cc-pvdz guess=read ub97d empiricaldispersion=gd3
 ----------------------------------------------------------------
 -------------------------
 theory_abbreviation b97d3
 -------------------------
 Symbolic Z-matrix:
 Charge =  0 Multiplicity = 6

 SCF Done:  E(UB97D) =  -3034.56683547     A.U. after    1 cycles
 SCF Done:  E(UBHandHLYP) =  -3033.95892558     A.U. after   17 cycles
 SCF Done:  E(UBHandH) =  -3026.30623288     A.U. after   13 cycles
 SCF Done:  E(ULC-wPBE) =  -3033.44386740     A.U. after   18 cycles
 SCF Done:  E(UB-P86) =  -3034.61990206     A.U. after   15 cycles
 SCF Done:  E(UmPW1LYP) =  -3034.03355088     A.U. after   14 cycles
 SCF Done:  E(UmPW1PBE) =  -3033.87672870     A.U. after   14 cycles
 SCF Done:  E(UmPW3PBE) =  -3033.64882880     A.U. after   13 cycles
 SCF Done:  E(UM11) =  -3033.79987735     A.U. after   16 cycles
 SCF Done:  E(UN12SX) =  -3033.24254064     A.U. after   15 cycles
 SCF Done:  E(UMN12SX) =  -3033.64055478     A.U. after   16 cycles
 SCF Done:  E(UB1B95) =  -3034.36999953     A.U. after   16 cycles
 Normal termination of Gaussian 16 at Tue Feb 11 22:33:39 2020.
 SCF Done:  E(UB3PW91) =  -3033.96415805     A.U. after   13 cycles
 Normal termination of Gaussian 16 at Tue Feb 11 22:47:15 2020.
 SCF Done:  E(UM06L) =  -3034.18124538     A.U. after   18 cycles
 Normal termination of Gaussian 16 at Tue Feb 11 23:08:30 2020.
 Gaussian 16:  ES64L-G16RevA.03 25-Dec-2016

                         Standard orientation:
 ---------------------------------------------------------------------
 Center     Atomic      Atomic             Coordinates (Angstroms)
 Number     Number       Type             X           Y           Z
 ---------------------------------------------------------------------
      1          8           0       -0.324083   -0.200115   -0.595910
      2          6           0       -1.331145   -1.094308   -0.484193
      3          6           0       -2.902346   -0.107708   -0.074385
      4          6           0       -2.182007    1.100152   -0.211939
      5          6           0       -2.040729    1.775831   -1.523048
      6         26           0        1.405221    0.046534    0.033452
      7         17           0        1.843717    2.075492   -0.747982
      8          6           0       -1.581557    1.786790    0.956409
      9         17           0        2.616482   -1.617540   -0.740191
     10         17           0        1.296883    0.038665    2.256339
     11          1           0       -3.532984   -0.337802   -0.931753
     12          1           0       -2.385002    2.380381    1.422873
     13          1           0       -1.214094    1.091910    1.713845
     14          1           0       -0.774330    2.460424    0.663070
     15          1           0       -2.571555    2.737912   -1.451044
     16          1           0       -0.986091    2.006827   -1.709362
     17          1           0       -2.464714    1.205938   -2.350742
     18          6           0       -3.533818   -0.488046    1.252089
     19          1           0       -4.403194    0.150912    1.449265
     20          1           0       -3.888182   -1.521349    1.225797
     21          1           0       -2.847951   -0.388686    2.095561
     22          6           0       -1.155648   -2.087577    0.645087
     23          1           0       -2.001144   -2.771923    0.741307
     24          1           0       -0.263020   -2.674586    0.389941
     25          1           0       -0.952648   -1.595187    1.596921
     26          6           0       -1.667819   -1.734569   -1.819250
     27          1           0       -0.789893   -2.321689   -2.115899
     28          1           0       -2.535236   -2.397642   -1.753907
     29          1           0       -1.832997   -0.980294   -2.591785
 ---------------------------------------------------------------------

 SCF Done:  E(UB97D3) =  -3034.60160159     A.U. after   15 cycles
 Normal termination of Gaussian 16 at Tue Feb 11 23:20:37 2020.
