 Gaussian 16, Revision A.03,

 --------------------------------
 #t pop=none jul-cc-pvdz upbe1pbe
 --------------------------------
 ------------------------
 theory_abbreviation pbe0
 ------------------------
 Symbolic Z-matrix:
 Charge =  0 Multiplicity = 6

 SCF Done:  E(UPBE1PBE) =  -3033.12397413     A.U. after   21 cycles
 Normal termination of Gaussian 16 at Tue Feb 11 13:59:57 2020.

 ---------------------------------------------------------------------
 #t pop=none jul-cc-pvdz guess=read upbe1pbe empiricaldispersion=gd3bj
 ---------------------------------------------------------------------
 -----------------------------
 theory_abbreviation pbe0_d3bj
 -----------------------------
 Symbolic Z-matrix:
 Charge =  0 Multiplicity = 6

 SCF Done:  E(UPBE1PBE) =  -3033.16149162     A.U. after    1 cycles
 Normal termination of Gaussian 16 at Tue Feb 11 14:01:07 2020.

 -----------------------------------------
 #t pop=none jul-cc-pvdz guess=read ub3lyp
 -----------------------------------------
 -------------------------
 theory_abbreviation b3lyp
 -------------------------
 Symbolic Z-matrix:
 Charge =  0 Multiplicity = 6

 SCF Done:  E(UB3LYP) =  -3034.34014544     A.U. after   13 cycles
 Normal termination of Gaussian 16 at Tue Feb 11 14:14:55 2020.

 -------------------------------------------------------------------
 #t pop=none jul-cc-pvdz guess=read ub3lyp empiricaldispersion=gd3bj
 -------------------------------------------------------------------
 ------------------------------
 theory_abbreviation b3lyp_d3bj
 ------------------------------
 Symbolic Z-matrix:
 Charge =  0 Multiplicity = 6

 SCF Done:  E(UB3LYP) =  -3034.40995258     A.U. after    1 cycles
 Normal termination of Gaussian 16 at Tue Feb 11 14:16:06 2020.

 ----------------------------------------
 #t pop=none jul-cc-pvdz guess=read ub97d
 ----------------------------------------
 ------------------------
 theory_abbreviation b97d
 ------------------------
 Symbolic Z-matrix:
 Charge =  0 Multiplicity = 6

 SCF Done:  E(UB97D) =  -3034.59338893     A.U. after   15 cycles

 ----------------------------------------------------------------
 #t pop=none jul-cc-pvdz guess=read ub97d empiricaldispersion=gd3
 ----------------------------------------------------------------
 -------------------------
 theory_abbreviation b97d3
 -------------------------
 Symbolic Z-matrix:
 Charge =  0 Multiplicity = 6

 SCF Done:  E(UB97D) =  -3034.59475074     A.U. after    1 cycles
 SCF Done:  E(UBHandHLYP) =  -3033.98153190     A.U. after   18 cycles
 SCF Done:  E(UBHandH) =  -3026.32354615     A.U. after   14 cycles
 SCF Done:  E(ULC-wPBE) =  -3033.46471712     A.U. after   19 cycles
 SCF Done:  E(UB-P86) =  -3034.64429938     A.U. after   16 cycles
 SCF Done:  E(UmPW1LYP) =  -3034.05835963     A.U. after   13 cycles
 SCF Done:  E(UmPW1PBE) =  -3033.89837586     A.U. after   13 cycles
 SCF Done:  E(UmPW3PBE) =  -3033.67123679     A.U. after   13 cycles
 SCF Done:  E(UM11) =  -3033.82208618     A.U. after   17 cycles
 SCF Done:  E(UN12SX) =  -3033.26289425     A.U. after   17 cycles
 SCF Done:  E(UMN12SX) =  -3033.66413881     A.U. after   16 cycles
 SCF Done:  E(UB1B95) =  -3034.39413467     A.U. after   14 cycles
 Normal termination of Gaussian 16 at Tue Feb 11 22:43:05 2020.
 SCF Done:  E(UB3PW91) =  -3033.98703109     A.U. after   13 cycles
 Normal termination of Gaussian 16 at Tue Feb 11 22:58:32 2020.
 SCF Done:  E(UM06L) =  -3034.20918369     A.U. after   17 cycles
 Normal termination of Gaussian 16 at Tue Feb 11 23:17:33 2020.
 Gaussian 16:  ES64L-G16RevA.03 25-Dec-2016

                         Standard orientation:
 ---------------------------------------------------------------------
 Center     Atomic      Atomic             Coordinates (Angstroms)
 Number     Number       Type             X           Y           Z
 ---------------------------------------------------------------------
      1          8           0       -0.283018   -0.227464   -0.790145
      2          6           0       -1.123042   -1.166649   -0.644354
      3          6           0       -3.017318   -0.119518    0.392581
      4          6           0       -2.489473    0.997683   -0.165187
      5          6           0       -2.812486    1.413326   -1.569757
      6         26           0        1.448341    0.118203    0.023549
      7         17           0        2.085553    2.012571   -0.850128
      8          6           0       -1.591956    1.946221    0.566125
      9         17           0        2.591192   -1.648913   -0.589798
     10         17           0        1.175040    0.196747    2.208179
     11          1           0       -3.740661   -0.676703   -0.200550
     12          1           0       -2.155922    2.861566    0.794227
     13          1           0       -1.198524    1.551206    1.501729
     14          1           0       -0.751078    2.250428   -0.067046
     15          1           0       -3.205416    2.437923   -1.564913
     16          1           0       -1.899891    1.435086   -2.179356
     17          1           0       -3.555767    0.768139   -2.044668
     18          6           0       -2.994954   -0.452873    1.862707
     19          1           0       -3.822480    0.061550    2.369255
     20          1           0       -3.135289   -1.523391    2.035843
     21          1           0       -2.069913   -0.147541    2.357799
     22          6           0       -0.941160   -2.168181    0.458861
     23          1           0       -1.820553   -2.797747    0.597797
     24          1           0       -0.104700   -2.806124    0.136210
     25          1           0       -0.646256   -1.700246    1.397515
     26          6           0       -1.837126   -1.640803   -1.881342
     27          1           0       -1.138074   -2.334535   -2.370480
     28          1           0       -2.753031   -2.188553   -1.655397
     29          1           0       -2.030421   -0.826743   -2.577173
 ---------------------------------------------------------------------

 SCF Done:  E(UB97D3) =  -3034.62998272     A.U. after   17 cycles
 Normal termination of Gaussian 16 at Tue Feb 11 23:31:15 2020.
