 Gaussian 16, Revision A.03,

 --------------------------------
 #t pop=none jul-cc-pvdz upbe1pbe
 --------------------------------
 ------------------------
 theory_abbreviation pbe0
 ------------------------
 Symbolic Z-matrix:
 Charge =  0 Multiplicity = 6

 SCF Done:  E(UPBE1PBE) =  -3033.11066935     A.U. after   21 cycles
 Normal termination of Gaussian 16 at Tue Feb 11 14:00:06 2020.

 ---------------------------------------------------------------------
 #t pop=none jul-cc-pvdz guess=read upbe1pbe empiricaldispersion=gd3bj
 ---------------------------------------------------------------------
 -----------------------------
 theory_abbreviation pbe0_d3bj
 -----------------------------
 Symbolic Z-matrix:
 Charge =  0 Multiplicity = 6

 SCF Done:  E(UPBE1PBE) =  -3033.14816984     A.U. after    1 cycles
 Normal termination of Gaussian 16 at Tue Feb 11 14:01:18 2020.

 -----------------------------------------
 #t pop=none jul-cc-pvdz guess=read ub3lyp
 -----------------------------------------
 -------------------------
 theory_abbreviation b3lyp
 -------------------------
 Symbolic Z-matrix:
 Charge =  0 Multiplicity = 6

 SCF Done:  E(UB3LYP) =  -3034.32437382     A.U. after   13 cycles
 Normal termination of Gaussian 16 at Tue Feb 11 14:15:25 2020.

 -------------------------------------------------------------------
 #t pop=none jul-cc-pvdz guess=read ub3lyp empiricaldispersion=gd3bj
 -------------------------------------------------------------------
 ------------------------------
 theory_abbreviation b3lyp_d3bj
 ------------------------------
 Symbolic Z-matrix:
 Charge =  0 Multiplicity = 6

 SCF Done:  E(UB3LYP) =  -3034.39429912     A.U. after    1 cycles
 Normal termination of Gaussian 16 at Tue Feb 11 14:16:37 2020.

 ----------------------------------------
 #t pop=none jul-cc-pvdz guess=read ub97d
 ----------------------------------------
 ------------------------
 theory_abbreviation b97d
 ------------------------
 Symbolic Z-matrix:
 Charge =  0 Multiplicity = 6

 SCF Done:  E(UB97D) =  -3034.57814832     A.U. after   16 cycles

 ----------------------------------------------------------------
 #t pop=none jul-cc-pvdz guess=read ub97d empiricaldispersion=gd3
 ----------------------------------------------------------------
 -------------------------
 theory_abbreviation b97d3
 -------------------------
 Symbolic Z-matrix:
 Charge =  0 Multiplicity = 6

 SCF Done:  E(UB97D) =  -3034.57860711     A.U. after    1 cycles
 SCF Done:  E(UBHandHLYP) =  -3033.96599936     A.U. after   18 cycles
 SCF Done:  E(UBHandH) =  -3026.31266577     A.U. after   16 cycles
 SCF Done:  E(ULC-wPBE) =  -3033.45066762     A.U. after   19 cycles
 SCF Done:  E(UB-P86) =  -3034.63050037     A.U. after   17 cycles
 SCF Done:  E(UmPW1LYP) =  -3034.04253907     A.U. after   15 cycles
 SCF Done:  E(UmPW1PBE) =  -3033.88502232     A.U. after   16 cycles
 SCF Done:  E(UmPW3PBE) =  -3033.65757323     A.U. after   14 cycles
 SCF Done:  E(UM11) =  -3033.80900835     A.U. after   19 cycles
 SCF Done:  E(UN12SX) =  -3033.25039828     A.U. after   17 cycles
 SCF Done:  E(UMN12SX) =  -3033.64929101     A.U. after   17 cycles
 SCF Done:  E(UB1B95) =  -3034.37949254     A.U. after   16 cycles
 Normal termination of Gaussian 16 at Tue Feb 11 23:17:19 2020.
 SCF Done:  E(UB3PW91) =  -3033.97299620     A.U. after   16 cycles
 Normal termination of Gaussian 16 at Tue Feb 11 23:34:10 2020.
 SCF Done:  E(UM06L) =  -3034.19217719     A.U. after   18 cycles
 Normal termination of Gaussian 16 at Tue Feb 11 23:54:12 2020.
 Gaussian 16:  ES64L-G16RevA.03 25-Dec-2016

                         Standard orientation:
 ---------------------------------------------------------------------
 Center     Atomic      Atomic             Coordinates (Angstroms)
 Number     Number       Type             X           Y           Z
 ---------------------------------------------------------------------
      1          8           0       -0.319881   -0.163851   -0.725659
      2          6           0       -1.231543   -1.085936   -0.590532
      3          6           0       -2.829380   -0.245185    0.380319
      4          6           0       -2.454005    0.985866   -0.114375
      5          6           0       -2.870673    1.463478   -1.464850
      6         26           0        1.413081    0.110016   -0.003603
      7         17           0        1.990023    2.085524   -0.766139
      8          6           0       -1.588127    1.928824    0.644087
      9         17           0        2.608006   -1.585645   -0.723341
     10         17           0        1.192686    0.085707    2.206193
     11          1           0       -3.608494   -0.763745   -0.175238
     12          1           0       -2.234246    2.728657    1.037413
     13          1           0       -1.068890    1.472424    1.484950
     14          1           0       -0.854776    2.404189   -0.015389
     15          1           0       -3.266750    2.482908   -1.377710
     16          1           0       -1.985174    1.532621   -2.110726
     17          1           0       -3.626528    0.832065   -1.934881
     18          6           0       -2.783313   -0.566260    1.860704
     19          1           0       -3.570315   -0.004625    2.378889
     20          1           0       -2.971020   -1.627049    2.038988
     21          1           0       -1.829288   -0.307955    2.325244
     22          6           0       -0.927125   -2.224700    0.360873
     23          1           0       -1.775492   -2.899421    0.490419
     24          1           0       -0.107807   -2.782740   -0.112916
     25          1           0       -0.564957   -1.875012    1.326777
     26          6           0       -1.856418   -1.538023   -1.898626
     27          1           0       -1.082723   -2.128693   -2.405335
     28          1           0       -2.731718   -2.174118   -1.749021
     29          1           0       -2.101501   -0.702450   -2.552230
 ---------------------------------------------------------------------

 SCF Done:  E(UB97D3) =  -3034.61362270     A.U. after   15 cycles
 Normal termination of Gaussian 16 at Wed Feb 12 00:07:27 2020.
