 Gaussian 16, Revision A.03,

 --------------------------------
 #t pop=none jul-cc-pvdz upbe1pbe
 --------------------------------
 ------------------------
 theory_abbreviation pbe0
 ------------------------
 Symbolic Z-matrix:
 Charge =  0 Multiplicity = 6

 SCF Done:  E(UPBE1PBE) =  -3033.13561691     A.U. after   20 cycles
 Normal termination of Gaussian 16 at Wed Feb 12 14:11:26 2020.

 ---------------------------------------------------------------------
 #t pop=none jul-cc-pvdz guess=read upbe1pbe empiricaldispersion=gd3bj
 ---------------------------------------------------------------------
 -----------------------------
 theory_abbreviation pbe0_d3bj
 -----------------------------
 Symbolic Z-matrix:
 Charge =  0 Multiplicity = 6

 SCF Done:  E(UPBE1PBE) =  -3033.17217105     A.U. after    1 cycles
 Normal termination of Gaussian 16 at Wed Feb 12 14:12:33 2020.

 -----------------------------------------
 #t pop=none jul-cc-pvdz guess=read ub3lyp
 -----------------------------------------
 -------------------------
 theory_abbreviation b3lyp
 -------------------------
 Symbolic Z-matrix:
 Charge =  0 Multiplicity = 6

 SCF Done:  E(UB3LYP) =  -3034.35372883     A.U. after   13 cycles
 Normal termination of Gaussian 16 at Wed Feb 12 14:25:54 2020.

 -------------------------------------------------------------------
 #t pop=none jul-cc-pvdz guess=read ub3lyp empiricaldispersion=gd3bj
 -------------------------------------------------------------------
 ------------------------------
 theory_abbreviation b3lyp_d3bj
 ------------------------------
 Symbolic Z-matrix:
 Charge =  0 Multiplicity = 6

 SCF Done:  E(UB3LYP) =  -3034.42145560     A.U. after    1 cycles
 Normal termination of Gaussian 16 at Wed Feb 12 14:27:03 2020.

 ----------------------------------------
 #t pop=none jul-cc-pvdz guess=read ub97d
 ----------------------------------------
 ------------------------
 theory_abbreviation b97d
 ------------------------
 Symbolic Z-matrix:
 Charge =  0 Multiplicity = 6

 SCF Done:  E(UB97D) =  -3034.60462902     A.U. after   15 cycles

 ----------------------------------------------------------------
 #t pop=none jul-cc-pvdz guess=read ub97d empiricaldispersion=gd3
 ----------------------------------------------------------------
 -------------------------
 theory_abbreviation b97d3
 -------------------------
 Symbolic Z-matrix:
 Charge =  0 Multiplicity = 6

 SCF Done:  E(UB97D) =  -3034.60616326     A.U. after    2 cycles
 SCF Done:  E(UBHandHLYP) =  -3033.99552083     A.U. after   17 cycles
 SCF Done:  E(UBHandH) =  -3026.33246850     A.U. after   14 cycles
 SCF Done:  E(ULC-wPBE) =  -3033.47682430     A.U. after   18 cycles
 SCF Done:  E(UB-P86) =  -3034.65384095     A.U. after   17 cycles
 SCF Done:  E(UmPW1LYP) =  -3034.07207913     A.U. after   13 cycles
 SCF Done:  E(UmPW1PBE) =  -3033.91005391     A.U. after   13 cycles
 SCF Done:  E(UmPW3PBE) =  -3033.68302386     A.U. after   13 cycles
 SCF Done:  E(UM11) =  -3033.83441161     A.U. after   17 cycles
 SCF Done:  E(UN12SX) =  -3033.27453006     A.U. after   16 cycles
 SCF Done:  E(UMN12SX) =  -3033.67687860     A.U. after   16 cycles
 SCF Done:  E(UB1B95) =  -3034.40624474     A.U. after   14 cycles
 Normal termination of Gaussian 16 at Wed Feb 12 21:57:59 2020.
 SCF Done:  E(UB3PW91) =  -3033.99918891     A.U. after   13 cycles
 Normal termination of Gaussian 16 at Wed Feb 12 22:10:41 2020.
 SCF Done:  E(UM06L) =  -3034.22160485     A.U. after   17 cycles
 Normal termination of Gaussian 16 at Wed Feb 12 22:28:49 2020.
 Gaussian 16:  ES64L-G16RevA.03 25-Dec-2016

                         Standard orientation:
 ---------------------------------------------------------------------
 Center     Atomic      Atomic             Coordinates (Angstroms)
 Number     Number       Type             X           Y           Z
 ---------------------------------------------------------------------
      1          8           0        0.205167    0.371005   -0.866710
      2          6           0        0.988883    1.330479   -0.671015
      3          6           0        3.072895    0.107917    0.534076
      4          6           0        2.637129   -0.948220   -0.182825
      5          6           0        3.097012   -1.183569   -1.595746
      6         26           0       -1.477945   -0.159966    0.014688
      7         17           0       -2.067569   -1.991285   -0.998272
      8          6           0        1.707802   -2.001004    0.345441
      9         17           0       -2.712808    1.599901   -0.394579
     10         17           0       -1.084929   -0.404996    2.160501
     11          1           0        3.797432    0.768725    0.057168
     12          1           0        2.228388   -2.967300    0.387026
     13          1           0        1.316088   -1.783945    1.338683
     14          1           0        0.859754   -2.141542   -0.336613
     15          1           0        3.600482   -2.156419   -1.668249
     16          1           0        2.240944   -1.229111   -2.282179
     17          1           0        3.795758   -0.417342   -1.943440
     18          6           0        2.861658    0.339971    2.006853
     19          1           0        3.668520   -0.134250    2.582188
     20          1           0        2.888689    1.406063    2.253218
     21          1           0        1.915706   -0.066670    2.372980
     22          6           0        0.824360    2.229950    0.513389
     23          1           0        1.711709    2.837321    0.694682
     24          1           0       -0.014540    2.899406    0.270323
     25          1           0        0.545385    1.674699    1.409144
     26          6           0        1.809718    1.815851   -1.827123
     27          1           0        1.220156    2.614074   -2.302116
     28          1           0        2.758236    2.249409   -1.507432
     29          1           0        1.965979    1.028166   -2.561943
 ---------------------------------------------------------------------

 SCF Done:  E(UB97D3) =  -3034.64085610     A.U. after   16 cycles
 Normal termination of Gaussian 16 at Wed Feb 12 22:41:23 2020.
