 Gaussian 16, Revision A.03,

 --------------------------------
 #t pop=none jul-cc-pvdz upbe1pbe
 --------------------------------
 ------------------------
 theory_abbreviation pbe0
 ------------------------
 Symbolic Z-matrix:
 Charge =  0 Multiplicity = 6

 SCF Done:  E(UPBE1PBE) =  -3033.10642481     A.U. after   21 cycles
 Normal termination of Gaussian 16 at Tue Feb 11 20:06:02 2020.

 ---------------------------------------------------------------------
 #t pop=none jul-cc-pvdz guess=read upbe1pbe empiricaldispersion=gd3bj
 ---------------------------------------------------------------------
 -----------------------------
 theory_abbreviation pbe0_d3bj
 -----------------------------
 Symbolic Z-matrix:
 Charge =  0 Multiplicity = 6

 SCF Done:  E(UPBE1PBE) =  -3033.14377288     A.U. after    1 cycles
 Normal termination of Gaussian 16 at Tue Feb 11 20:07:11 2020.

 -----------------------------------------
 #t pop=none jul-cc-pvdz guess=read ub3lyp
 -----------------------------------------
 -------------------------
 theory_abbreviation b3lyp
 -------------------------
 Symbolic Z-matrix:
 Charge =  0 Multiplicity = 6

 SCF Done:  E(UB3LYP) =  -3034.31949959     A.U. after   14 cycles
 Normal termination of Gaussian 16 at Tue Feb 11 20:21:31 2020.

 -------------------------------------------------------------------
 #t pop=none jul-cc-pvdz guess=read ub3lyp empiricaldispersion=gd3bj
 -------------------------------------------------------------------
 ------------------------------
 theory_abbreviation b3lyp_d3bj
 ------------------------------
 Symbolic Z-matrix:
 Charge =  0 Multiplicity = 6

 SCF Done:  E(UB3LYP) =  -3034.38911481     A.U. after    1 cycles
 Normal termination of Gaussian 16 at Tue Feb 11 20:22:39 2020.

 ----------------------------------------
 #t pop=none jul-cc-pvdz guess=read ub97d
 ----------------------------------------
 ------------------------
 theory_abbreviation b97d
 ------------------------
 Symbolic Z-matrix:
 Charge =  0 Multiplicity = 6

 SCF Done:  E(UB97D) =  -3034.57262770     A.U. after   16 cycles

 ----------------------------------------------------------------
 #t pop=none jul-cc-pvdz guess=read ub97d empiricaldispersion=gd3
 ----------------------------------------------------------------
 -------------------------
 theory_abbreviation b97d3
 -------------------------
 Symbolic Z-matrix:
 Charge =  0 Multiplicity = 6

 SCF Done:  E(UB97D) =  -3034.57288425     A.U. after    2 cycles
 SCF Done:  E(UBHandHLYP) =  -3033.96197955     A.U. after   17 cycles
 SCF Done:  E(UBHandH) =  -3026.30947179     A.U. after   16 cycles
 SCF Done:  E(ULC-wPBE) =  -3033.44678195     A.U. after   18 cycles
 SCF Done:  E(UB-P86) =  -3034.62528647     A.U. after   17 cycles
 SCF Done:  E(UmPW1LYP) =  -3034.03776799     A.U. after   14 cycles
 SCF Done:  E(UmPW1PBE) =  -3033.88080041     A.U. after   13 cycles
 SCF Done:  E(UmPW3PBE) =  -3033.65315686     A.U. after   15 cycles
 SCF Done:  E(UM11) =  -3033.80454524     A.U. after   19 cycles
 SCF Done:  E(UN12SX) =  -3033.24629563     A.U. after   17 cycles
 SCF Done:  E(UMN12SX) =  -3033.64478190     A.U. after   16 cycles
 SCF Done:  E(UB1B95) =  -3034.37482683     A.U. after   16 cycles
 Normal termination of Gaussian 16 at Wed Feb 12 04:57:11 2020.
 SCF Done:  E(UB3PW91) =  -3033.96851402     A.U. after   16 cycles
 Normal termination of Gaussian 16 at Wed Feb 12 05:13:20 2020.
 SCF Done:  E(UM06L) =  -3034.18710554     A.U. after   18 cycles
 Normal termination of Gaussian 16 at Wed Feb 12 05:33:02 2020.
 Gaussian 16:  ES64L-G16RevA.03 25-Dec-2016

                         Standard orientation:
 ---------------------------------------------------------------------
 Center     Atomic      Atomic             Coordinates (Angstroms)
 Number     Number       Type             X           Y           Z
 ---------------------------------------------------------------------
      1          8           0       -0.332759   -0.131328   -0.675092
      2          6           0       -1.261866   -1.058430   -0.571724
      3          6           0       -2.872660   -0.206668    0.252804
      4          6           0       -2.370755    1.021562   -0.148423
      5          6           0       -2.618153    1.575757   -1.508348
      6         26           0        1.407489    0.090176    0.014178
      7         17           0        1.983683    2.081086   -0.722073
      8          6           0       -1.559956    1.885026    0.749283
      9         17           0        2.572428   -1.607304   -0.756477
     10         17           0        1.221541    0.029546    2.229232
     11          1           0       -3.631756   -0.638561   -0.396326
     12          1           0       -2.254493    2.605722    1.210145
     13          1           0       -1.066874    1.340664    1.553616
     14          1           0       -0.814735    2.456279    0.189021
     15          1           0       -2.957817    2.614545   -1.410606
     16          1           0       -1.664810    1.612261   -2.051240
     17          1           0       -3.357417    1.013873   -2.081112
     18          6           0       -3.015979   -0.570899    1.716840
     19          1           0       -3.847416   -0.004500    2.154196
     20          1           0       -3.246709   -1.631601    1.836491
     21          1           0       -2.120167   -0.351085    2.301326
     22          6           0       -0.984612   -2.185783    0.401223
     23          1           0       -1.825946   -2.875368    0.493759
     24          1           0       -0.132589   -2.732614   -0.025670
     25          1           0       -0.677380   -1.821990    1.381218
     26          6           0       -1.796511   -1.533705   -1.912005
     27          1           0       -0.974962   -2.091656   -2.378504
     28          1           0       -2.654942   -2.201478   -1.806608
     29          1           0       -2.041778   -0.706193   -2.577085
 ---------------------------------------------------------------------

 SCF Done:  E(UB97D3) =  -3034.60770191     A.U. after   15 cycles
 Normal termination of Gaussian 16 at Wed Feb 12 05:44:56 2020.
