 Gaussian 16, Revision A.03,

 --------------------------------
 #t pop=none jul-cc-pvdz upbe1pbe
 --------------------------------
 ------------------------
 theory_abbreviation pbe0
 ------------------------
 Symbolic Z-matrix:
 Charge =  0 Multiplicity = 6

 SCF Done:  E(UPBE1PBE) =  -3033.12973781     A.U. after   21 cycles
 Normal termination of Gaussian 16 at Tue Feb 11 20:18:51 2020.

 ---------------------------------------------------------------------
 #t pop=none jul-cc-pvdz guess=read upbe1pbe empiricaldispersion=gd3bj
 ---------------------------------------------------------------------
 -----------------------------
 theory_abbreviation pbe0_d3bj
 -----------------------------
 Symbolic Z-matrix:
 Charge =  0 Multiplicity = 6

 SCF Done:  E(UPBE1PBE) =  -3033.16685933     A.U. after    1 cycles
 Normal termination of Gaussian 16 at Tue Feb 11 20:20:16 2020.

 -----------------------------------------
 #t pop=none jul-cc-pvdz guess=read ub3lyp
 -----------------------------------------
 -------------------------
 theory_abbreviation b3lyp
 -------------------------
 Symbolic Z-matrix:
 Charge =  0 Multiplicity = 6

 SCF Done:  E(UB3LYP) =  -3034.34682813     A.U. after   13 cycles
 Normal termination of Gaussian 16 at Tue Feb 11 20:33:54 2020.

 -------------------------------------------------------------------
 #t pop=none jul-cc-pvdz guess=read ub3lyp empiricaldispersion=gd3bj
 -------------------------------------------------------------------
 ------------------------------
 theory_abbreviation b3lyp_d3bj
 ------------------------------
 Symbolic Z-matrix:
 Charge =  0 Multiplicity = 6

 SCF Done:  E(UB3LYP) =  -3034.41578679     A.U. after    1 cycles
 Normal termination of Gaussian 16 at Tue Feb 11 20:35:08 2020.

 ----------------------------------------
 #t pop=none jul-cc-pvdz guess=read ub97d
 ----------------------------------------
 ------------------------
 theory_abbreviation b97d
 ------------------------
 Symbolic Z-matrix:
 Charge =  0 Multiplicity = 6

 SCF Done:  E(UB97D) =  -3034.59938164     A.U. after   15 cycles

 ----------------------------------------------------------------
 #t pop=none jul-cc-pvdz guess=read ub97d empiricaldispersion=gd3
 ----------------------------------------------------------------
 -------------------------
 theory_abbreviation b97d3
 -------------------------
 Symbolic Z-matrix:
 Charge =  0 Multiplicity = 6

 SCF Done:  E(UB97D) =  -3034.60071025     A.U. after    1 cycles
 SCF Done:  E(UBHandHLYP) =  -3033.98821027     A.U. after   17 cycles
 SCF Done:  E(UBHandH) =  -3026.32803993     A.U. after   14 cycles
 SCF Done:  E(ULC-wPBE) =  -3033.47052330     A.U. after   19 cycles
 SCF Done:  E(UB-P86) =  -3034.64935744     A.U. after   16 cycles
 SCF Done:  E(UmPW1LYP) =  -3034.06508829     A.U. after   13 cycles
 SCF Done:  E(UmPW1PBE) =  -3033.90414186     A.U. after   13 cycles
 SCF Done:  E(UmPW3PBE) =  -3033.67708885     A.U. after   13 cycles
 SCF Done:  E(UM11) =  -3033.82808120     A.U. after   17 cycles
 SCF Done:  E(UN12SX) =  -3033.26860450     A.U. after   16 cycles
 SCF Done:  E(UMN12SX) =  -3033.67038834     A.U. after   16 cycles
 SCF Done:  E(UB1B95) =  -3034.40002837     A.U. after   14 cycles
 Normal termination of Gaussian 16 at Wed Feb 12 05:16:04 2020.
 SCF Done:  E(UB3PW91) =  -3033.99303849     A.U. after   13 cycles
 Normal termination of Gaussian 16 at Wed Feb 12 05:33:18 2020.
 SCF Done:  E(UM06L) =  -3034.21546590     A.U. after   17 cycles
 Normal termination of Gaussian 16 at Wed Feb 12 05:51:54 2020.
 Gaussian 16:  ES64L-G16RevA.03 25-Dec-2016

                         Standard orientation:
 ---------------------------------------------------------------------
 Center     Atomic      Atomic             Coordinates (Angstroms)
 Number     Number       Type             X           Y           Z
 ---------------------------------------------------------------------
      1          8           0        0.243520    0.300879   -0.838201
      2          6           0        1.064797    1.242510   -0.660830
      3          6           0        2.988460    0.154048    0.507406
      4          6           0        2.588670   -0.959303   -0.149233
      5          6           0        3.059922   -1.269074   -1.541398
      6         26           0       -1.462334   -0.143902    0.008932
      7         17           0       -2.065837   -2.011572   -0.935367
      8          6           0        1.672991   -1.990314    0.435379
      9         17           0       -2.665573    1.614737   -0.495480
     10         17           0       -1.121895   -0.313692    2.175492
     11          1           0        3.716640    0.791299    0.006799
     12          1           0        2.209574   -2.943645    0.533590
     13          1           0        1.272441   -1.722102    1.412071
     14          1           0        0.832274   -2.181447   -0.243357
     15          1           0        3.555297   -2.248423   -1.553584
     16          1           0        2.208090   -1.346722   -2.230150
     17          1           0        3.768031   -0.528827   -1.922879
     18          6           0        2.802864    0.418499    1.980171
     19          1           0        3.592198   -0.089947    2.549892
     20          1           0        2.885613    1.484227    2.210710
     21          1           0        1.842949    0.063325    2.362678
     22          6           0        0.865332    2.220269    0.458348
     23          1           0        1.748731    2.834985    0.633981
     24          1           0        0.044074    2.875595    0.131453
     25          1           0        0.542936    1.733185    1.378178
     26          6           0        1.847828    1.707474   -1.856098
     27          1           0        1.205336    2.444848   -2.359169
     28          1           0        2.777791    2.206686   -1.581140
     29          1           0        2.031547    0.895681   -2.557136
 ---------------------------------------------------------------------

 SCF Done:  E(UB97D3) =  -3034.63567777     A.U. after   16 cycles
 Normal termination of Gaussian 16 at Wed Feb 12 06:04:33 2020.
