 Gaussian 16, Revision A.03,

 --------------------------------
 #t pop=none jul-cc-pvdz upbe1pbe
 --------------------------------
 ------------------------
 theory_abbreviation pbe0
 ------------------------
 Symbolic Z-matrix:
 Charge =  0 Multiplicity = 6

 SCF Done:  E(UPBE1PBE) =  -3033.11960637     A.U. after   21 cycles
 Normal termination of Gaussian 16 at Tue Feb 11 23:39:02 2020.

 ---------------------------------------------------------------------
 #t pop=none jul-cc-pvdz guess=read upbe1pbe empiricaldispersion=gd3bj
 ---------------------------------------------------------------------
 -----------------------------
 theory_abbreviation pbe0_d3bj
 -----------------------------
 Symbolic Z-matrix:
 Charge =  0 Multiplicity = 6

 SCF Done:  E(UPBE1PBE) =  -3033.15724037     A.U. after    1 cycles
 Normal termination of Gaussian 16 at Tue Feb 11 23:40:10 2020.

 -----------------------------------------
 #t pop=none jul-cc-pvdz guess=read ub3lyp
 -----------------------------------------
 -------------------------
 theory_abbreviation b3lyp
 -------------------------
 Symbolic Z-matrix:
 Charge =  0 Multiplicity = 6

 SCF Done:  E(UB3LYP) =  -3034.33526434     A.U. after   13 cycles
 Normal termination of Gaussian 16 at Tue Feb 11 23:53:25 2020.

 -------------------------------------------------------------------
 #t pop=none jul-cc-pvdz guess=read ub3lyp empiricaldispersion=gd3bj
 -------------------------------------------------------------------
 ------------------------------
 theory_abbreviation b3lyp_d3bj
 ------------------------------
 Symbolic Z-matrix:
 Charge =  0 Multiplicity = 6

 SCF Done:  E(UB3LYP) =  -3034.40532233     A.U. after    1 cycles
 Normal termination of Gaussian 16 at Tue Feb 11 23:54:33 2020.

 ----------------------------------------
 #t pop=none jul-cc-pvdz guess=read ub97d
 ----------------------------------------
 ------------------------
 theory_abbreviation b97d
 ------------------------
 Symbolic Z-matrix:
 Charge =  0 Multiplicity = 6

 SCF Done:  E(UB97D) =  -3034.58847178     A.U. after   15 cycles

 ----------------------------------------------------------------
 #t pop=none jul-cc-pvdz guess=read ub97d empiricaldispersion=gd3
 ----------------------------------------------------------------
 -------------------------
 theory_abbreviation b97d3
 -------------------------
 Symbolic Z-matrix:
 Charge =  0 Multiplicity = 6

 SCF Done:  E(UB97D) =  -3034.58995418     A.U. after    1 cycles
 SCF Done:  E(UBHandHLYP) =  -3033.97676084     A.U. after   18 cycles
 SCF Done:  E(UBHandH) =  -3026.31977767     A.U. after   14 cycles
 SCF Done:  E(ULC-wPBE) =  -3033.46020404     A.U. after   19 cycles
 SCF Done:  E(UB-P86) =  -3034.64005132     A.U. after   16 cycles
 SCF Done:  E(UmPW1LYP) =  -3034.05343889     A.U. after   13 cycles
 SCF Done:  E(UmPW1PBE) =  -3033.89406021     A.U. after   13 cycles
 SCF Done:  E(UmPW3PBE) =  -3033.66684318     A.U. after   13 cycles
 SCF Done:  E(UM11) =  -3033.81731036     A.U. after   17 cycles
 SCF Done:  E(UN12SX) =  -3033.25857502     A.U. after   17 cycles
 SCF Done:  E(UMN12SX) =  -3033.65932053     A.U. after   16 cycles
 SCF Done:  E(UB1B95) =  -3034.38955620     A.U. after   14 cycles
 Normal termination of Gaussian 16 at Wed Feb 12 08:02:48 2020.
 SCF Done:  E(UB3PW91) =  -3033.98257509     A.U. after   13 cycles
 Normal termination of Gaussian 16 at Wed Feb 12 08:16:07 2020.
 SCF Done:  E(UM06L) =  -3034.20404627     A.U. after   17 cycles
 Normal termination of Gaussian 16 at Wed Feb 12 08:34:36 2020.
 Gaussian 16:  ES64L-G16RevA.03 25-Dec-2016

                         Standard orientation:
 ---------------------------------------------------------------------
 Center     Atomic      Atomic             Coordinates (Angstroms)
 Number     Number       Type             X           Y           Z
 ---------------------------------------------------------------------
      1          8           0       -0.296964   -0.178753   -0.726336
      2          6           0       -1.160847   -1.107618   -0.614467
      3          6           0       -3.093976   -0.066968    0.223718
      4          6           0       -2.413367    1.035608   -0.182159
      5          6           0       -2.524067    1.565841   -1.579109
      6         26           0        1.455614    0.093243    0.041544
      7         17           0        2.091217    2.009347   -0.792578
      8          6           0       -1.568106    1.865147    0.733602
      9         17           0        2.534040   -1.682251   -0.664971
     10         17           0        1.263376    0.107350    2.236021
     11          1           0       -3.768581   -0.525447   -0.496785
     12          1           0       -2.164451    2.724140    1.073044
     13          1           0       -1.220845    1.330928    1.617739
     14          1           0       -0.699908    2.271699    0.205951
     15          1           0       -2.830812    2.618784   -1.540050
     16          1           0       -1.543048    1.544755   -2.069282
     17          1           0       -3.253303    1.022638   -2.185154
     18          6           0       -3.309997   -0.480371    1.656272
     19          1           0       -4.198407    0.029241    2.052791
     20          1           0       -3.496043   -1.554426    1.745567
     21          1           0       -2.471619   -0.224148    2.308224
     22          6           0       -1.033028   -2.095219    0.509399
     23          1           0       -1.912115   -2.731813    0.610406
     24          1           0       -0.175361   -2.729759    0.239702
     25          1           0       -0.790158   -1.612048    1.455675
     26          6           0       -1.788052   -1.601436   -1.891247
     27          1           0       -1.031258   -2.253610   -2.350598
     28          1           0       -2.688678   -2.192179   -1.717791
     29          1           0       -1.983776   -0.788511   -2.588957
 ---------------------------------------------------------------------

 SCF Done:  E(UB97D3) =  -3034.62541542     A.U. after   17 cycles
 Normal termination of Gaussian 16 at Wed Feb 12 08:47:55 2020.
