 Gaussian 16, Revision A.03,

 --------------------------------
 #t pop=none jul-cc-pvdz upbe1pbe
 --------------------------------
 ------------------------
 theory_abbreviation pbe0
 ------------------------
 Symbolic Z-matrix:
 Charge =  0 Multiplicity = 6

 SCF Done:  E(UPBE1PBE) =  -3033.13490796     A.U. after   20 cycles
 Normal termination of Gaussian 16 at Wed Feb 12 14:10:22 2020.

 ---------------------------------------------------------------------
 #t pop=none jul-cc-pvdz guess=read upbe1pbe empiricaldispersion=gd3bj
 ---------------------------------------------------------------------
 -----------------------------
 theory_abbreviation pbe0_d3bj
 -----------------------------
 Symbolic Z-matrix:
 Charge =  0 Multiplicity = 6

 SCF Done:  E(UPBE1PBE) =  -3033.17152334     A.U. after    1 cycles
 Normal termination of Gaussian 16 at Wed Feb 12 14:11:27 2020.

 -----------------------------------------
 #t pop=none jul-cc-pvdz guess=read ub3lyp
 -----------------------------------------
 -------------------------
 theory_abbreviation b3lyp
 -------------------------
 Symbolic Z-matrix:
 Charge =  0 Multiplicity = 6

 SCF Done:  E(UB3LYP) =  -3034.35291712     A.U. after   13 cycles
 Normal termination of Gaussian 16 at Wed Feb 12 14:24:12 2020.

 -------------------------------------------------------------------
 #t pop=none jul-cc-pvdz guess=read ub3lyp empiricaldispersion=gd3bj
 -------------------------------------------------------------------
 ------------------------------
 theory_abbreviation b3lyp_d3bj
 ------------------------------
 Symbolic Z-matrix:
 Charge =  0 Multiplicity = 6

 SCF Done:  E(UB3LYP) =  -3034.42076364     A.U. after    1 cycles
 Normal termination of Gaussian 16 at Wed Feb 12 14:25:17 2020.

 ----------------------------------------
 #t pop=none jul-cc-pvdz guess=read ub97d
 ----------------------------------------
 ------------------------
 theory_abbreviation b97d
 ------------------------
 Symbolic Z-matrix:
 Charge =  0 Multiplicity = 6

 SCF Done:  E(UB97D) =  -3034.60362074     A.U. after   15 cycles

 ----------------------------------------------------------------
 #t pop=none jul-cc-pvdz guess=read ub97d empiricaldispersion=gd3
 ----------------------------------------------------------------
 -------------------------
 theory_abbreviation b97d3
 -------------------------
 Symbolic Z-matrix:
 Charge =  0 Multiplicity = 6

 SCF Done:  E(UB97D) =  -3034.60545162     A.U. after    3 cycles
 SCF Done:  E(UBHandHLYP) =  -3033.99493006     A.U. after   18 cycles
 SCF Done:  E(UBHandH) =  -3026.33202028     A.U. after   14 cycles
 SCF Done:  E(ULC-wPBE) =  -3033.47653420     A.U. after   17 cycles
 SCF Done:  E(UB-P86) =  -3034.65308973     A.U. after   17 cycles
 SCF Done:  E(UmPW1LYP) =  -3034.07129011     A.U. after   13 cycles
 SCF Done:  E(UmPW1PBE) =  -3033.90934728     A.U. after   14 cycles
 SCF Done:  E(UmPW3PBE) =  -3033.68227821     A.U. after   13 cycles
 SCF Done:  E(UM11) =  -3033.83410999     A.U. after   17 cycles
 SCF Done:  E(UN12SX) =  -3033.27380950     A.U. after   16 cycles
 SCF Done:  E(UMN12SX) =  -3033.67640918     A.U. after   16 cycles
 SCF Done:  E(UB1B95) =  -3034.40576390     A.U. after   14 cycles
 Normal termination of Gaussian 16 at Wed Feb 12 21:50:18 2020.
 SCF Done:  E(UB3PW91) =  -3033.99844015     A.U. after   14 cycles
 Normal termination of Gaussian 16 at Wed Feb 12 22:03:55 2020.
 SCF Done:  E(UM06L) =  -3034.22109184     A.U. after   17 cycles
 Normal termination of Gaussian 16 at Wed Feb 12 22:22:02 2020.
 Gaussian 16:  ES64L-G16RevA.03 25-Dec-2016

                         Standard orientation:
 ---------------------------------------------------------------------
 Center     Atomic      Atomic             Coordinates (Angstroms)
 Number     Number       Type             X           Y           Z
 ---------------------------------------------------------------------
      1          8           0        0.235848    0.352659   -0.835867
      2          6           0        0.992793    1.333128   -0.649147
      3          6           0        3.146552    0.030828    0.458929
      4          6           0        2.567993   -0.972716   -0.230045
      5          6           0        2.901792   -1.228779   -1.674751
      6         26           0       -1.468373   -0.150017    0.031235
      7         17           0       -2.092408   -1.963884   -0.991427
      8          6           0        1.635369   -1.983360    0.371502
      9         17           0       -2.657829    1.637306   -0.400083
     10         17           0       -1.114976   -0.390862    2.183056
     11          1           0        3.871975    0.648242   -0.072048
     12          1           0        2.147736   -2.952564    0.444767
     13          1           0        1.277701   -1.717516    1.365839
     14          1           0        0.767274   -2.147839   -0.277286
     15          1           0        3.325448   -2.235226   -1.787906
     16          1           0        1.995263   -1.204998   -2.293427
     17          1           0        3.627635   -0.512980   -2.071487
     18          6           0        3.048377    0.283563    1.938837
     19          1           0        3.895657   -0.181688    2.461131
     20          1           0        3.092283    1.353913    2.167316
     21          1           0        2.132443   -0.117879    2.379993
     22          6           0        0.862458    2.192117    0.568054
     23          1           0        1.749013    2.805670    0.732474
     24          1           0        0.005679    2.857762    0.384199
     25          1           0        0.629376    1.601768    1.454700
     26          6           0        1.783766    1.853095   -1.809497
     27          1           0        1.187012    2.670008   -2.242062
     28          1           0        2.741656    2.272409   -1.497829
     29          1           0        1.918795    1.089324   -2.573126
 ---------------------------------------------------------------------

 SCF Done:  E(UB97D3) =  -3034.64000039     A.U. after   16 cycles
 Normal termination of Gaussian 16 at Wed Feb 12 22:34:21 2020.
