 Gaussian 16, Revision A.03,

 --------------------------------
 #t pop=none jul-cc-pvdz upbe1pbe
 --------------------------------
 ------------------------
 theory_abbreviation pbe0
 ------------------------
 Symbolic Z-matrix:
 Charge =  0 Multiplicity = 6

 SCF Done:  E(UPBE1PBE) =  -3033.13391266     A.U. after   20 cycles
 Normal termination of Gaussian 16 at Tue Feb 11 14:46:40 2020.

 ---------------------------------------------------------------------
 #t pop=none jul-cc-pvdz guess=read upbe1pbe empiricaldispersion=gd3bj
 ---------------------------------------------------------------------
 -----------------------------
 theory_abbreviation pbe0_d3bj
 -----------------------------
 Symbolic Z-matrix:
 Charge =  0 Multiplicity = 6

 SCF Done:  E(UPBE1PBE) =  -3033.17023721     A.U. after    1 cycles
 Normal termination of Gaussian 16 at Tue Feb 11 14:47:50 2020.

 -----------------------------------------
 #t pop=none jul-cc-pvdz guess=read ub3lyp
 -----------------------------------------
 -------------------------
 theory_abbreviation b3lyp
 -------------------------
 Symbolic Z-matrix:
 Charge =  0 Multiplicity = 6

 SCF Done:  E(UB3LYP) =  -3034.35220044     A.U. after   13 cycles
 Normal termination of Gaussian 16 at Tue Feb 11 15:01:29 2020.

 -------------------------------------------------------------------
 #t pop=none jul-cc-pvdz guess=read ub3lyp empiricaldispersion=gd3bj
 -------------------------------------------------------------------
 ------------------------------
 theory_abbreviation b3lyp_d3bj
 ------------------------------
 Symbolic Z-matrix:
 Charge =  0 Multiplicity = 6

 SCF Done:  E(UB3LYP) =  -3034.41948857     A.U. after    1 cycles
 Normal termination of Gaussian 16 at Tue Feb 11 15:02:38 2020.

 ----------------------------------------
 #t pop=none jul-cc-pvdz guess=read ub97d
 ----------------------------------------
 ------------------------
 theory_abbreviation b97d
 ------------------------
 Symbolic Z-matrix:
 Charge =  0 Multiplicity = 6

 SCF Done:  E(UB97D) =  -3034.60317265     A.U. after   15 cycles

 ----------------------------------------------------------------
 #t pop=none jul-cc-pvdz guess=read ub97d empiricaldispersion=gd3
 ----------------------------------------------------------------
 -------------------------
 theory_abbreviation b97d3
 -------------------------
 Symbolic Z-matrix:
 Charge =  0 Multiplicity = 6

 SCF Done:  E(UB97D) =  -3034.60424403     A.U. after    1 cycles
 SCF Done:  E(UBHandHLYP) =  -3033.99339953     A.U. after   15 cycles
 SCF Done:  E(UBHandH) =  -3026.33008221     A.U. after   14 cycles
 SCF Done:  E(ULC-wPBE) =  -3033.47407726     A.U. after   19 cycles
 SCF Done:  E(UB-P86) =  -3034.65220311     A.U. after   17 cycles
 SCF Done:  E(UmPW1LYP) =  -3034.07043615     A.U. after   13 cycles
 SCF Done:  E(UmPW1PBE) =  -3033.90842613     A.U. after   14 cycles
 SCF Done:  E(UmPW3PBE) =  -3033.68147270     A.U. after   13 cycles
 SCF Done:  E(UM11) =  -3033.83149719     A.U. after   17 cycles
 SCF Done:  E(UN12SX) =  -3033.27272322     A.U. after   16 cycles
 SCF Done:  E(UMN12SX) =  -3033.67424284     A.U. after   16 cycles
 SCF Done:  E(UB1B95) =  -3034.40396925     A.U. after   14 cycles
 Normal termination of Gaussian 16 at Tue Feb 11 23:08:41 2020.
 SCF Done:  E(UB3PW91) =  -3033.99766301     A.U. after   13 cycles
 Normal termination of Gaussian 16 at Tue Feb 11 23:21:40 2020.
 SCF Done:  E(UM06L) =  -3034.21916076     A.U. after   18 cycles
 Normal termination of Gaussian 16 at Tue Feb 11 23:41:00 2020.
 Gaussian 16:  ES64L-G16RevA.03 25-Dec-2016

                         Standard orientation:
 ---------------------------------------------------------------------
 Center     Atomic      Atomic             Coordinates (Angstroms)
 Number     Number       Type             X           Y           Z
 ---------------------------------------------------------------------
      1          8           0        0.159362    0.391590   -0.882524
      2          6           0        0.986057    1.317759   -0.680126
      3          6           0        2.976339    0.229958    0.590890
      4          6           0        2.755322   -0.901619   -0.115290
      5          6           0        3.367669   -1.117194   -1.471239
      6         26           0       -1.502637   -0.175924   -0.006389
      7         17           0       -2.027732   -2.029707   -1.017616
      8          6           0        1.862549   -2.012939    0.351654
      9         17           0       -2.793474    1.545500   -0.399573
     10         17           0       -1.084629   -0.432192    2.134029
     11          1           0        3.672843    0.951410    0.163864
     12          1           0        2.406261   -2.966389    0.348828
     13          1           0        1.449514   -1.853711    1.347473
     14          1           0        1.023751   -2.135445   -0.348082
     15          1           0        3.985106   -2.024869   -1.461299
     16          1           0        2.591698   -1.283032   -2.231091
     17          1           0        4.001802   -0.282954   -1.783437
     18          6           0        2.649035    0.434660    2.049300
     19          1           0        3.413400   -0.049585    2.671718
     20          1           0        2.653670    1.494794    2.316477
     21          1           0        1.680872    0.018731    2.336828
     22          6           0        0.779473    2.279153    0.450253
     23          1           0        1.665753    2.881104    0.652399
     24          1           0       -0.030893    2.947734    0.122861
     25          1           0        0.437261    1.777345    1.355360
     26          6           0        1.828823    1.752193   -1.843725
     27          1           0        1.227885    2.496337   -2.386901
     28          1           0        2.756794    2.233511   -1.533584
     29          1           0        2.025536    0.923271   -2.521689
 ---------------------------------------------------------------------

 SCF Done:  E(UB97D3) =  -3034.63934214     A.U. after   15 cycles
 Normal termination of Gaussian 16 at Tue Feb 11 23:52:47 2020.
