 Gaussian 16, Revision A.03,

 --------------------------------
 #t pop=none jul-cc-pvdz upbe1pbe
 --------------------------------
 ------------------------
 theory_abbreviation pbe0
 ------------------------
 Symbolic Z-matrix:
 Charge =  0 Multiplicity = 6

 SCF Done:  E(UPBE1PBE) =  -3033.12094147     A.U. after   21 cycles
 Normal termination of Gaussian 16 at Tue Feb 11 14:48:16 2020.

 ---------------------------------------------------------------------
 #t pop=none jul-cc-pvdz guess=read upbe1pbe empiricaldispersion=gd3bj
 ---------------------------------------------------------------------
 -----------------------------
 theory_abbreviation pbe0_d3bj
 -----------------------------
 Symbolic Z-matrix:
 Charge =  0 Multiplicity = 6

 SCF Done:  E(UPBE1PBE) =  -3033.15849703     A.U. after    1 cycles
 Normal termination of Gaussian 16 at Tue Feb 11 14:49:27 2020.

 -----------------------------------------
 #t pop=none jul-cc-pvdz guess=read ub3lyp
 -----------------------------------------
 -------------------------
 theory_abbreviation b3lyp
 -------------------------
 Symbolic Z-matrix:
 Charge =  0 Multiplicity = 6

 SCF Done:  E(UB3LYP) =  -3034.33686721     A.U. after   13 cycles
 Normal termination of Gaussian 16 at Tue Feb 11 15:03:27 2020.

 -------------------------------------------------------------------
 #t pop=none jul-cc-pvdz guess=read ub3lyp empiricaldispersion=gd3bj
 -------------------------------------------------------------------
 ------------------------------
 theory_abbreviation b3lyp_d3bj
 ------------------------------
 Symbolic Z-matrix:
 Charge =  0 Multiplicity = 6

 SCF Done:  E(UB3LYP) =  -3034.40675148     A.U. after    1 cycles
 Normal termination of Gaussian 16 at Tue Feb 11 15:04:38 2020.

 ----------------------------------------
 #t pop=none jul-cc-pvdz guess=read ub97d
 ----------------------------------------
 ------------------------
 theory_abbreviation b97d
 ------------------------
 Symbolic Z-matrix:
 Charge =  0 Multiplicity = 6

 SCF Done:  E(UB97D) =  -3034.58978536     A.U. after   15 cycles

 ----------------------------------------------------------------
 #t pop=none jul-cc-pvdz guess=read ub97d empiricaldispersion=gd3
 ----------------------------------------------------------------
 -------------------------
 theory_abbreviation b97d3
 -------------------------
 Symbolic Z-matrix:
 Charge =  0 Multiplicity = 6

 SCF Done:  E(UB97D) =  -3034.59140119     A.U. after    1 cycles
 SCF Done:  E(UBHandHLYP) =  -3033.97845830     A.U. after   18 cycles
 SCF Done:  E(UBHandH) =  -3026.32086739     A.U. after   14 cycles
 SCF Done:  E(ULC-wPBE) =  -3033.46171982     A.U. after   19 cycles
 SCF Done:  E(UB-P86) =  -3034.64121532     A.U. after   16 cycles
 SCF Done:  E(UmPW1LYP) =  -3034.05506146     A.U. after   13 cycles
 SCF Done:  E(UmPW1PBE) =  -3033.89540700     A.U. after   13 cycles
 SCF Done:  E(UmPW3PBE) =  -3033.66820552     A.U. after   13 cycles
 SCF Done:  E(UM11) =  -3033.81877391     A.U. after   16 cycles
 SCF Done:  E(UN12SX) =  -3033.25983603     A.U. after   17 cycles
 SCF Done:  E(UMN12SX) =  -3033.66092028     A.U. after   16 cycles
 SCF Done:  E(UB1B95) =  -3034.39109167     A.U. after   14 cycles
 Normal termination of Gaussian 16 at Tue Feb 11 23:13:39 2020.
 SCF Done:  E(UB3PW91) =  -3033.98398671     A.U. after   13 cycles
 Normal termination of Gaussian 16 at Tue Feb 11 23:26:53 2020.
 SCF Done:  E(UM06L) =  -3034.20580190     A.U. after   17 cycles
 Normal termination of Gaussian 16 at Tue Feb 11 23:45:28 2020.
 Gaussian 16:  ES64L-G16RevA.03 25-Dec-2016

                         Standard orientation:
 ---------------------------------------------------------------------
 Center     Atomic      Atomic             Coordinates (Angstroms)
 Number     Number       Type             X           Y           Z
 ---------------------------------------------------------------------
      1          8           0       -0.295185   -0.185429   -0.722026
      2          6           0       -1.148356   -1.119399   -0.611242
      3          6           0       -3.131642   -0.039334    0.201184
      4          6           0       -2.409301    1.038894   -0.191398
      5          6           0       -2.481952    1.572358   -1.590580
      6         26           0        1.461680    0.092792    0.046056
      7         17           0        2.097244    2.000698   -0.803325
      8          6           0       -1.567220    1.852758    0.743133
      9         17           0        2.527133   -1.691578   -0.657148
     10         17           0        1.279320    0.115787    2.239079
     11          1           0       -3.794566   -0.487857   -0.536583
     12          1           0       -2.156161    2.717712    1.079908
     13          1           0       -1.240366    1.308464    1.629195
     14          1           0       -0.685385    2.251096    0.232359
     15          1           0       -2.780216    2.628043   -1.557383
     16          1           0       -1.491681    1.542256   -2.060707
     17          1           0       -3.203651    1.037160   -2.212972
     18          6           0       -3.379621   -0.461115    1.625145
     19          1           0       -4.278497    0.043119    2.004969
     20          1           0       -3.564968   -1.536452    1.704841
     21          1           0       -2.557213   -0.205933    2.297643
     22          6           0       -1.044723   -2.080865    0.535522
     23          1           0       -1.928911   -2.710267    0.635907
     24          1           0       -0.185858   -2.726292    0.296589
     25          1           0       -0.815630   -1.575870    1.473991
     26          6           0       -1.778096   -1.620178   -1.881964
     27          1           0       -1.027117   -2.284350   -2.334263
     28          1           0       -2.684114   -2.200720   -1.702876
     29          1           0       -1.965232   -0.811392   -2.586944
 ---------------------------------------------------------------------

 SCF Done:  E(UB97D3) =  -3034.62678854     A.U. after   17 cycles
 Normal termination of Gaussian 16 at Tue Feb 11 23:58:54 2020.
