 Gaussian 16, Revision A.03,

 --------------------------------
 #t pop=none jul-cc-pvdz upbe1pbe
 --------------------------------
 ------------------------
 theory_abbreviation pbe0
 ------------------------
 Symbolic Z-matrix:
 Charge =  0 Multiplicity = 6

 SCF Done:  E(UPBE1PBE) =  -3033.12396356     A.U. after   21 cycles
 Normal termination of Gaussian 16 at Tue Feb 11 13:59:49 2020.

 ---------------------------------------------------------------------
 #t pop=none jul-cc-pvdz guess=read upbe1pbe empiricaldispersion=gd3bj
 ---------------------------------------------------------------------
 -----------------------------
 theory_abbreviation pbe0_d3bj
 -----------------------------
 Symbolic Z-matrix:
 Charge =  0 Multiplicity = 6

 SCF Done:  E(UPBE1PBE) =  -3033.16117421     A.U. after    1 cycles
 Normal termination of Gaussian 16 at Tue Feb 11 14:00:59 2020.

 -----------------------------------------
 #t pop=none jul-cc-pvdz guess=read ub3lyp
 -----------------------------------------
 -------------------------
 theory_abbreviation b3lyp
 -------------------------
 Symbolic Z-matrix:
 Charge =  0 Multiplicity = 6

 SCF Done:  E(UB3LYP) =  -3034.34034833     A.U. after   13 cycles
 Normal termination of Gaussian 16 at Tue Feb 11 14:14:46 2020.

 -------------------------------------------------------------------
 #t pop=none jul-cc-pvdz guess=read ub3lyp empiricaldispersion=gd3bj
 -------------------------------------------------------------------
 ------------------------------
 theory_abbreviation b3lyp_d3bj
 ------------------------------
 Symbolic Z-matrix:
 Charge =  0 Multiplicity = 6

 SCF Done:  E(UB3LYP) =  -3034.40956778     A.U. after    1 cycles
 Normal termination of Gaussian 16 at Tue Feb 11 14:15:57 2020.

 ----------------------------------------
 #t pop=none jul-cc-pvdz guess=read ub97d
 ----------------------------------------
 ------------------------
 theory_abbreviation b97d
 ------------------------
 Symbolic Z-matrix:
 Charge =  0 Multiplicity = 6

 SCF Done:  E(UB97D) =  -3034.59377916     A.U. after   15 cycles

 ----------------------------------------------------------------
 #t pop=none jul-cc-pvdz guess=read ub97d empiricaldispersion=gd3
 ----------------------------------------------------------------
 -------------------------
 theory_abbreviation b97d3
 -------------------------
 Symbolic Z-matrix:
 Charge =  0 Multiplicity = 6

 SCF Done:  E(UB97D) =  -3034.59482330     A.U. after    1 cycles
 SCF Done:  E(UBHandHLYP) =  -3033.98076251     A.U. after   18 cycles
 SCF Done:  E(UBHandH) =  -3026.32237936     A.U. after   16 cycles
 SCF Done:  E(ULC-wPBE) =  -3033.46340810     A.U. after   19 cycles
 SCF Done:  E(UB-P86) =  -3034.64441571     A.U. after   16 cycles
 SCF Done:  E(UmPW1LYP) =  -3034.05840523     A.U. after   15 cycles
 SCF Done:  E(UmPW1PBE) =  -3033.89841046     A.U. after   15 cycles
 SCF Done:  E(UmPW3PBE) =  -3033.67139622     A.U. after   12 cycles
 SCF Done:  E(UM11) =  -3033.82114307     A.U. after   19 cycles
 SCF Done:  E(UN12SX) =  -3033.26294164     A.U. after   18 cycles
 SCF Done:  E(UMN12SX) =  -3033.66312136     A.U. after   16 cycles
 SCF Done:  E(UB1B95) =  -3034.39343025     A.U. after   14 cycles
 Normal termination of Gaussian 16 at Tue Feb 11 22:58:38 2020.
 SCF Done:  E(UB3PW91) =  -3033.98721678     A.U. after   15 cycles
 Normal termination of Gaussian 16 at Tue Feb 11 23:14:15 2020.
 SCF Done:  E(UM06L) =  -3034.20793050     A.U. after   18 cycles
 Normal termination of Gaussian 16 at Tue Feb 11 23:34:04 2020.
 Gaussian 16:  ES64L-G16RevA.03 25-Dec-2016

                         Standard orientation:
 ---------------------------------------------------------------------
 Center     Atomic      Atomic             Coordinates (Angstroms)
 Number     Number       Type             X           Y           Z
 ---------------------------------------------------------------------
      1          8           0       -0.246762   -0.277815   -0.802131
      2          6           0       -1.112872   -1.194649   -0.626054
      3          6           0       -2.844876   -0.276044    0.576581
      4          6           0       -2.676375    0.908497   -0.074356
      5          6           0       -3.348122    1.194429   -1.384126
      6         26           0        1.468554    0.153602   -0.019388
      7         17           0        2.013355    2.049469   -0.955314
      8          6           0       -1.768570    1.988150    0.416963
      9         17           0        2.697202   -1.575802   -0.564257
     10         17           0        1.181885    0.321062    2.158973
     11          1           0       -3.579543   -0.962159    0.157777
     12          1           0       -2.294096    2.950969    0.430191
     13          1           0       -1.351892    1.798836    1.405416
     14          1           0       -0.932784    2.103259   -0.288087
     15          1           0       -3.966953    2.095643   -1.284944
     16          1           0       -2.606037    1.415930   -2.162879
     17          1           0       -3.991634    0.377349   -1.718158
     18          6           0       -2.525360   -0.489612    2.039135
     19          1           0       -3.256505    0.051899    2.652819
     20          1           0       -2.599598   -1.544441    2.312494
     21          1           0       -1.531726   -0.135912    2.321223
     22          6           0       -0.834438   -2.272226    0.389224
     23          1           0       -1.705937   -2.897770    0.587214
     24          1           0       -0.052367   -2.897384   -0.065259
     25          1           0       -0.428843   -1.871685    1.317630
     26          6           0       -1.884306   -1.615337   -1.853087
     27          1           0       -1.219699   -2.300068   -2.397858
     28          1           0       -2.802109   -2.155030   -1.614649
     29          1           0       -2.090587   -0.770189   -2.507324
 ---------------------------------------------------------------------

 SCF Done:  E(UB97D3) =  -3034.63010679     A.U. after   16 cycles
 Normal termination of Gaussian 16 at Tue Feb 11 23:46:57 2020.
