 Gaussian 16, Revision A.03,

 --------------------------------
 #t pop=none jul-cc-pvdz upbe1pbe
 --------------------------------
 ------------------------
 theory_abbreviation pbe0
 ------------------------
 Symbolic Z-matrix:
 Charge =  0 Multiplicity = 6

 SCF Done:  E(UPBE1PBE) =  -3033.12613443     A.U. after   19 cycles
 Normal termination of Gaussian 16 at Tue Feb 11 14:47:05 2020.

 ---------------------------------------------------------------------
 #t pop=none jul-cc-pvdz guess=read upbe1pbe empiricaldispersion=gd3bj
 ---------------------------------------------------------------------
 -----------------------------
 theory_abbreviation pbe0_d3bj
 -----------------------------
 Symbolic Z-matrix:
 Charge =  0 Multiplicity = 6

 SCF Done:  E(UPBE1PBE) =  -3033.16335473     A.U. after    1 cycles
 Normal termination of Gaussian 16 at Tue Feb 11 14:48:37 2020.

 -----------------------------------------
 #t pop=none jul-cc-pvdz guess=read ub3lyp
 -----------------------------------------
 -------------------------
 theory_abbreviation b3lyp
 -------------------------
 Symbolic Z-matrix:
 Charge =  0 Multiplicity = 6

 SCF Done:  E(UB3LYP) =  -3034.34294041     A.U. after   13 cycles
 Normal termination of Gaussian 16 at Tue Feb 11 15:03:21 2020.

 -------------------------------------------------------------------
 #t pop=none jul-cc-pvdz guess=read ub3lyp empiricaldispersion=gd3bj
 -------------------------------------------------------------------
 ------------------------------
 theory_abbreviation b3lyp_d3bj
 ------------------------------
 Symbolic Z-matrix:
 Charge =  0 Multiplicity = 6

 SCF Done:  E(UB3LYP) =  -3034.41209549     A.U. after    1 cycles
 Normal termination of Gaussian 16 at Tue Feb 11 15:04:45 2020.

 ----------------------------------------
 #t pop=none jul-cc-pvdz guess=read ub97d
 ----------------------------------------
 ------------------------
 theory_abbreviation b97d
 ------------------------
 Symbolic Z-matrix:
 Charge =  0 Multiplicity = 6

 SCF Done:  E(UB97D) =  -3034.59492620     A.U. after   15 cycles

 ----------------------------------------------------------------
 #t pop=none jul-cc-pvdz guess=read ub97d empiricaldispersion=gd3
 ----------------------------------------------------------------
 -------------------------
 theory_abbreviation b97d3
 -------------------------
 Symbolic Z-matrix:
 Charge =  0 Multiplicity = 6

 SCF Done:  E(UB97D) =  -3034.59678823     A.U. after    1 cycles
 SCF Done:  E(UBHandHLYP) =  -3033.98476792     A.U. after   15 cycles
 SCF Done:  E(UBHandH) =  -3026.32507371     A.U. after   14 cycles
 SCF Done:  E(ULC-wPBE) =  -3033.46741131     A.U. after   18 cycles
 SCF Done:  E(UB-P86) =  -3034.64568642     A.U. after   17 cycles
 SCF Done:  E(UmPW1LYP) =  -3034.06120416     A.U. after   13 cycles
 SCF Done:  E(UmPW1PBE) =  -3033.90061251     A.U. after   14 cycles
 SCF Done:  E(UmPW3PBE) =  -3033.67346507     A.U. after   13 cycles
 SCF Done:  E(UM11) =  -3033.82458395     A.U. after   16 cycles
 SCF Done:  E(UN12SX) =  -3033.26491909     A.U. after   17 cycles
 SCF Done:  E(UMN12SX) =  -3033.66685371     A.U. after   16 cycles
 SCF Done:  E(UB1B95) =  -3034.39669208     A.U. after   14 cycles
 Normal termination of Gaussian 16 at Tue Feb 11 23:24:18 2020.
 SCF Done:  E(UB3PW91) =  -3033.98940826     A.U. after   14 cycles
 Normal termination of Gaussian 16 at Tue Feb 11 23:52:15 2020.
 SCF Done:  E(UM06L) =  -3034.21193446     A.U. after   17 cycles
 Normal termination of Gaussian 16 at Wed Feb 12 00:12:40 2020.
 Gaussian 16:  ES64L-G16RevA.03 25-Dec-2016

                         Standard orientation:
 ---------------------------------------------------------------------
 Center     Atomic      Atomic             Coordinates (Angstroms)
 Number     Number       Type             X           Y           Z
 ---------------------------------------------------------------------
      1          8           0       -0.284007   -0.226234   -0.742128
      2          6           0       -1.097036   -1.181882   -0.619404
      3          6           0       -3.194259    0.001022    0.220173
      4          6           0       -2.436743    1.033557   -0.211897
      5          6           0       -2.506971    1.521480   -1.630376
      6         26           0        1.471126    0.104675    0.051262
      7         17           0        2.105694    1.984830   -0.848772
      8          6           0       -1.572514    1.865636    0.689203
      9         17           0        2.544382   -1.693093   -0.600255
     10         17           0        1.269735    0.176283    2.236902
     11          1           0       -3.860223   -0.466225   -0.504330
     12          1           0       -2.126744    2.770300    0.975969
     13          1           0       -1.271758    1.356876    1.605349
     14          1           0       -0.672154    2.205109    0.167774
     15          1           0       -2.802234    2.578660   -1.637412
     16          1           0       -1.519536    1.470662   -2.104774
     17          1           0       -3.232204    0.966781   -2.232245
     18          6           0       -3.414011   -0.409485    1.650688
     19          1           0       -4.318982    0.075180    2.041920
     20          1           0       -3.572761   -1.488832    1.744462
     21          1           0       -2.587414   -0.128820    2.308185
     22          6           0       -1.020201   -2.090273    0.567967
     23          1           0       -1.913345   -2.705057    0.679429
     24          1           0       -0.163160   -2.754748    0.379203
     25          1           0       -0.806153   -1.541340    1.485360
     26          6           0       -1.770589   -1.688870   -1.860202
     27          1           0       -1.058832   -2.396671   -2.311018
     28          1           0       -2.694017   -2.227875   -1.644855
     29          1           0       -1.940555   -0.889138   -2.579591
 ---------------------------------------------------------------------

 SCF Done:  E(UB97D3) =  -3034.63183852     A.U. after   17 cycles
 Normal termination of Gaussian 16 at Wed Feb 12 00:25:50 2020.
