 Gaussian 16, Revision A.03,

 --------------------------------
 #t pop=none jul-cc-pvdz upbe1pbe
 --------------------------------
 ------------------------
 theory_abbreviation pbe0
 ------------------------
 Symbolic Z-matrix:
 Charge =  0 Multiplicity = 6

 SCF Done:  E(UPBE1PBE) =  -3033.13703809     A.U. after   20 cycles
 Normal termination of Gaussian 16 at Wed Feb 12 14:11:38 2020.

 ---------------------------------------------------------------------
 #t pop=none jul-cc-pvdz guess=read upbe1pbe empiricaldispersion=gd3bj
 ---------------------------------------------------------------------
 -----------------------------
 theory_abbreviation pbe0_d3bj
 -----------------------------
 Symbolic Z-matrix:
 Charge =  0 Multiplicity = 6

 SCF Done:  E(UPBE1PBE) =  -3033.17336921     A.U. after    1 cycles
 Normal termination of Gaussian 16 at Wed Feb 12 14:12:48 2020.

 -----------------------------------------
 #t pop=none jul-cc-pvdz guess=read ub3lyp
 -----------------------------------------
 -------------------------
 theory_abbreviation b3lyp
 -------------------------
 Symbolic Z-matrix:
 Charge =  0 Multiplicity = 6

 SCF Done:  E(UB3LYP) =  -3034.35544338     A.U. after   13 cycles
 Normal termination of Gaussian 16 at Wed Feb 12 14:26:15 2020.

 -------------------------------------------------------------------
 #t pop=none jul-cc-pvdz guess=read ub3lyp empiricaldispersion=gd3bj
 -------------------------------------------------------------------
 ------------------------------
 theory_abbreviation b3lyp_d3bj
 ------------------------------
 Symbolic Z-matrix:
 Charge =  0 Multiplicity = 6

 SCF Done:  E(UB3LYP) =  -3034.42268034     A.U. after    1 cycles
 Normal termination of Gaussian 16 at Wed Feb 12 14:27:25 2020.

 ----------------------------------------
 #t pop=none jul-cc-pvdz guess=read ub97d
 ----------------------------------------
 ------------------------
 theory_abbreviation b97d
 ------------------------
 Symbolic Z-matrix:
 Charge =  0 Multiplicity = 6

 SCF Done:  E(UB97D) =  -3034.60537198     A.U. after   16 cycles

 ----------------------------------------------------------------
 #t pop=none jul-cc-pvdz guess=read ub97d empiricaldispersion=gd3
 ----------------------------------------------------------------
 -------------------------
 theory_abbreviation b97d3
 -------------------------
 Symbolic Z-matrix:
 Charge =  0 Multiplicity = 6

 SCF Done:  E(UB97D) =  -3034.60731021     A.U. after    3 cycles
 SCF Done:  E(UBHandHLYP) =  -3033.99753731     A.U. after   18 cycles
 SCF Done:  E(UBHandH) =  -3026.33336205     A.U. after   14 cycles
 SCF Done:  E(ULC-wPBE) =  -3033.47873367     A.U. after   17 cycles
 SCF Done:  E(UB-P86) =  -3034.65457149     A.U. after   17 cycles
 SCF Done:  E(UmPW1LYP) =  -3034.07383388     A.U. after   13 cycles
 SCF Done:  E(UmPW1PBE) =  -3033.91150066     A.U. after   14 cycles
 SCF Done:  E(UmPW3PBE) =  -3033.68444076     A.U. after   13 cycles
 SCF Done:  E(UM11) =  -3033.83629079     A.U. after   17 cycles
 SCF Done:  E(UN12SX) =  -3033.27597906     A.U. after   16 cycles
 SCF Done:  E(UMN12SX) =  -3033.67864433     A.U. after   16 cycles
 SCF Done:  E(UB1B95) =  -3034.40800755     A.U. after   14 cycles
 Normal termination of Gaussian 16 at Wed Feb 12 22:09:26 2020.
 SCF Done:  E(UB3PW91) =  -3034.00069581     A.U. after   14 cycles
 Normal termination of Gaussian 16 at Wed Feb 12 22:23:42 2020.
 SCF Done:  E(UM06L) =  -3034.22303122     A.U. after   17 cycles
 Normal termination of Gaussian 16 at Wed Feb 12 22:42:23 2020.
 Gaussian 16:  ES64L-G16RevA.03 25-Dec-2016

                         Standard orientation:
 ---------------------------------------------------------------------
 Center     Atomic      Atomic             Coordinates (Angstroms)
 Number     Number       Type             X           Y           Z
 ---------------------------------------------------------------------
      1          8           0        0.218842    0.397593   -0.845229
      2          6           0        0.952912    1.388458   -0.639560
      3          6           0        3.175665    0.006713    0.488557
      4          6           0        2.596743   -0.956968   -0.252983
      5          6           0        2.948039   -1.146091   -1.704837
      6         26           0       -1.471607   -0.161831    0.030109
      7         17           0       -2.084882   -1.949694   -1.040693
      8          6           0        1.652410   -1.991719    0.288370
      9         17           0       -2.687817    1.621526   -0.335532
     10         17           0       -1.088644   -0.458514    2.168240
     11          1           0        3.907600    0.646406   -0.006763
     12          1           0        2.154780   -2.968626    0.310607
     13          1           0        1.292681   -1.777420    1.294440
     14          1           0        0.785380   -2.113056   -0.371357
     15          1           0        3.386169   -2.140876   -1.859583
     16          1           0        2.048138   -1.105503   -2.332208
     17          1           0        3.667883   -0.403542   -2.061930
     18          6           0        3.043107    0.213962    1.972311
     19          1           0        3.891786   -0.242097    2.500530
     20          1           0        3.053990    1.279073    2.229931
     21          1           0        2.128853   -0.221957    2.383163
     22          6           0        0.827669    2.204414    0.606845
     23          1           0        1.708049    2.825424    0.777612
     24          1           0       -0.043158    2.861666    0.464343
     25          1           0        0.621708    1.577429    1.475246
     26          6           0        1.760786    1.931051   -1.776244
     27          1           0        1.205309    2.796650   -2.166609
     28          1           0        2.736308    2.289966   -1.443133
     29          1           0        1.864412    1.197998   -2.574301
 ---------------------------------------------------------------------

 SCF Done:  E(UB97D3) =  -3034.64173117     A.U. after   16 cycles
 Normal termination of Gaussian 16 at Wed Feb 12 22:55:03 2020.
