 Gaussian 16, Revision A.03,

 --------------------------------
 #t pop=none jul-cc-pvdz upbe1pbe
 --------------------------------
 ------------------------
 theory_abbreviation pbe0
 ------------------------
 Symbolic Z-matrix:
 Charge =  0 Multiplicity = 6

 SCF Done:  E(UPBE1PBE) =  -3033.13126897     A.U. after   19 cycles
 Normal termination of Gaussian 16 at Tue Feb 11 23:37:07 2020.

 ---------------------------------------------------------------------
 #t pop=none jul-cc-pvdz guess=read upbe1pbe empiricaldispersion=gd3bj
 ---------------------------------------------------------------------
 -----------------------------
 theory_abbreviation pbe0_d3bj
 -----------------------------
 Symbolic Z-matrix:
 Charge =  0 Multiplicity = 6

 SCF Done:  E(UPBE1PBE) =  -3033.16828110     A.U. after    1 cycles
 Normal termination of Gaussian 16 at Tue Feb 11 23:38:35 2020.

 -----------------------------------------
 #t pop=none jul-cc-pvdz guess=read ub3lyp
 -----------------------------------------
 -------------------------
 theory_abbreviation b3lyp
 -------------------------
 Symbolic Z-matrix:
 Charge =  0 Multiplicity = 6

 SCF Done:  E(UB3LYP) =  -3034.34861977     A.U. after   13 cycles
 Normal termination of Gaussian 16 at Tue Feb 11 23:51:53 2020.

 -------------------------------------------------------------------
 #t pop=none jul-cc-pvdz guess=read ub3lyp empiricaldispersion=gd3bj
 -------------------------------------------------------------------
 ------------------------------
 theory_abbreviation b3lyp_d3bj
 ------------------------------
 Symbolic Z-matrix:
 Charge =  0 Multiplicity = 6

 SCF Done:  E(UB3LYP) =  -3034.41732492     A.U. after    1 cycles
 Normal termination of Gaussian 16 at Tue Feb 11 23:53:01 2020.

 ----------------------------------------
 #t pop=none jul-cc-pvdz guess=read ub97d
 ----------------------------------------
 ------------------------
 theory_abbreviation b97d
 ------------------------
 Symbolic Z-matrix:
 Charge =  0 Multiplicity = 6

 SCF Done:  E(UB97D) =  -3034.60049946     A.U. after   16 cycles

 ----------------------------------------------------------------
 #t pop=none jul-cc-pvdz guess=read ub97d empiricaldispersion=gd3
 ----------------------------------------------------------------
 -------------------------
 theory_abbreviation b97d3
 -------------------------
 Symbolic Z-matrix:
 Charge =  0 Multiplicity = 6

 SCF Done:  E(UB97D) =  -3034.60211600     A.U. after    1 cycles
 SCF Done:  E(UBHandHLYP) =  -3033.99038699     A.U. after   15 cycles
 SCF Done:  E(UBHandH) =  -3026.32942627     A.U. after   14 cycles
 SCF Done:  E(ULC-wPBE) =  -3033.47259794     A.U. after   19 cycles
 SCF Done:  E(UB-P86) =  -3034.65041175     A.U. after   17 cycles
 SCF Done:  E(UmPW1LYP) =  -3034.06694191     A.U. after   13 cycles
 SCF Done:  E(UmPW1PBE) =  -3033.90567964     A.U. after   13 cycles
 SCF Done:  E(UmPW3PBE) =  -3033.67859950     A.U. after   13 cycles
 SCF Done:  E(UM11) =  -3033.83013449     A.U. after   17 cycles
 SCF Done:  E(UN12SX) =  -3033.27012927     A.U. after   16 cycles
 SCF Done:  E(UMN12SX) =  -3033.67238957     A.U. after   16 cycles
 SCF Done:  E(UB1B95) =  -3034.40188042     A.U. after   14 cycles
 Normal termination of Gaussian 16 at Wed Feb 12 08:04:00 2020.
 SCF Done:  E(UB3PW91) =  -3033.99461463     A.U. after   13 cycles
 Normal termination of Gaussian 16 at Wed Feb 12 08:17:47 2020.
 SCF Done:  E(UM06L) =  -3034.21739585     A.U. after   17 cycles
 Normal termination of Gaussian 16 at Wed Feb 12 08:36:43 2020.
 Gaussian 16:  ES64L-G16RevA.03 25-Dec-2016

                         Standard orientation:
 ---------------------------------------------------------------------
 Center     Atomic      Atomic             Coordinates (Angstroms)
 Number     Number       Type             X           Y           Z
 ---------------------------------------------------------------------
      1          8           0        0.252923    0.302897   -0.827022
      2          6           0        1.046375    1.263554   -0.655631
      3          6           0        3.080571    0.076710    0.445936
      4          6           0        2.542106   -0.982112   -0.195858
      5          6           0        2.891062   -1.301890   -1.622471
      6         26           0       -1.461444   -0.137487    0.026386
      7         17           0       -2.093049   -1.983876   -0.937098
      8          6           0        1.623827   -1.977074    0.448258
      9         17           0       -2.632644    1.644625   -0.473447
     10         17           0       -1.132890   -0.316434    2.191429
     11          1           0        3.803199    0.679081   -0.104327
     12          1           0        2.153189   -2.932339    0.568540
     13          1           0        1.256031   -1.670664    1.426819
     14          1           0        0.762877   -2.185059   -0.197727
     15          1           0        3.316168   -2.312099   -1.682038
     16          1           0        1.989392   -1.309391   -2.248724
     17          1           0        3.620257   -0.605247   -2.045158
     18          6           0        2.993790    0.362188    1.921890
     19          1           0        3.824816   -0.127133    2.447935
     20          1           0        3.078855    1.433125    2.130796
     21          1           0        2.065554    0.002584    2.373135
     22          6           0        0.893518    2.185274    0.514153
     23          1           0        1.781119    2.798135    0.674217
     24          1           0        0.052210    2.849046    0.263641
     25          1           0        0.622426    1.649239    1.423628
     26          6           0        1.816720    1.757659   -1.844093
     27          1           0        1.179017    2.521605   -2.313238
     28          1           0        2.756250    2.234895   -1.562393
     29          1           0        1.980893    0.966491   -2.573094
 ---------------------------------------------------------------------

 SCF Done:  E(UB97D3) =  -3034.63691119     A.U. after   17 cycles
 Normal termination of Gaussian 16 at Wed Feb 12 08:50:29 2020.
