 Gaussian 16, Revision A.03,

 --------------------------------
 #t pop=none jul-cc-pvdz upbe1pbe
 --------------------------------
 ------------------------
 theory_abbreviation pbe0
 ------------------------
 Symbolic Z-matrix:
 Charge =  0 Multiplicity = 6

 SCF Done:  E(UPBE1PBE) =  -3033.11276858     A.U. after   21 cycles
 Normal termination of Gaussian 16 at Tue Feb 11 13:58:06 2020.

 ---------------------------------------------------------------------
 #t pop=none jul-cc-pvdz guess=read upbe1pbe empiricaldispersion=gd3bj
 ---------------------------------------------------------------------
 -----------------------------
 theory_abbreviation pbe0_d3bj
 -----------------------------
 Symbolic Z-matrix:
 Charge =  0 Multiplicity = 6

 SCF Done:  E(UPBE1PBE) =  -3033.14869071     A.U. after    1 cycles
 Normal termination of Gaussian 16 at Tue Feb 11 13:59:15 2020.

 -----------------------------------------
 #t pop=none jul-cc-pvdz guess=read ub3lyp
 -----------------------------------------
 -------------------------
 theory_abbreviation b3lyp
 -------------------------
 Symbolic Z-matrix:
 Charge =  0 Multiplicity = 6

 SCF Done:  E(UB3LYP) =  -3034.32570090     A.U. after   15 cycles
 Normal termination of Gaussian 16 at Tue Feb 11 14:14:42 2020.

 -------------------------------------------------------------------
 #t pop=none jul-cc-pvdz guess=read ub3lyp empiricaldispersion=gd3bj
 -------------------------------------------------------------------
 ------------------------------
 theory_abbreviation b3lyp_d3bj
 ------------------------------
 Symbolic Z-matrix:
 Charge =  0 Multiplicity = 6

 SCF Done:  E(UB3LYP) =  -3034.39272587     A.U. after    1 cycles
 Normal termination of Gaussian 16 at Tue Feb 11 14:15:54 2020.

 ----------------------------------------
 #t pop=none jul-cc-pvdz guess=read ub97d
 ----------------------------------------
 ------------------------
 theory_abbreviation b97d
 ------------------------
 Symbolic Z-matrix:
 Charge =  0 Multiplicity = 6

 SCF Done:  E(UB97D) =  -3034.57803444     A.U. after   16 cycles

 ----------------------------------------------------------------
 #t pop=none jul-cc-pvdz guess=read ub97d empiricaldispersion=gd3
 ----------------------------------------------------------------
 -------------------------
 theory_abbreviation b97d3
 -------------------------
 Symbolic Z-matrix:
 Charge =  0 Multiplicity = 6

 SCF Done:  E(UB97D) =  -3034.57815981     A.U. after    1 cycles
 SCF Done:  E(UBHandHLYP) =  -3033.96598791     A.U. after   17 cycles
 SCF Done:  E(UBHandH) =  -3026.31347456     A.U. after   16 cycles
 SCF Done:  E(ULC-wPBE) =  -3033.45114302     A.U. after   18 cycles
 SCF Done:  E(UB-P86) =  -3034.63123786     A.U. after   17 cycles
 SCF Done:  E(UmPW1LYP) =  -3034.04333479     A.U. after   15 cycles
 SCF Done:  E(UmPW1PBE) =  -3033.88728572     A.U. after   15 cycles
 SCF Done:  E(UmPW3PBE) =  -3033.65991795     A.U. after   15 cycles
 SCF Done:  E(UM11) =  -3033.80702464     A.U. after   19 cycles
 SCF Done:  E(UN12SX) =  -3033.25241606     A.U. after   15 cycles
 SCF Done:  E(UMN12SX) =  -3033.64750010     A.U. after   16 cycles
 SCF Done:  E(UB1B95) =  -3034.37936258     A.U. after   16 cycles
 Normal termination of Gaussian 16 at Tue Feb 11 22:55:56 2020.
 SCF Done:  E(UB3PW91) =  -3033.97538737     A.U. after   15 cycles
 Normal termination of Gaussian 16 at Tue Feb 11 23:11:04 2020.
 SCF Done:  E(UM06L) =  -3034.19157847     A.U. after   16 cycles
 Normal termination of Gaussian 16 at Tue Feb 11 23:28:41 2020.
 Gaussian 16:  ES64L-G16RevA.03 25-Dec-2016

                         Standard orientation:
 ---------------------------------------------------------------------
 Center     Atomic      Atomic             Coordinates (Angstroms)
 Number     Number       Type             X           Y           Z
 ---------------------------------------------------------------------
      1          8           0       -0.314680   -0.109016   -0.416007
      2          6           0       -1.225379   -1.060907   -0.220088
      3          6           0       -2.547680   -0.354653    0.776269
      4          6           0       -3.027101    0.687059   -0.053325
      5          6           0       -4.164346    0.480516   -0.987113
      6         26           0        1.514435    0.172626   -0.093163
      7         17           0        1.828063    2.189626   -0.915975
      8          6           0       -2.292993    1.954267   -0.114301
      9         17           0        2.532949   -1.476512   -1.135759
     10         17           0        1.834096    0.107631    2.095594
     11          1           0       -3.242246   -1.194624    0.837304
     12          1           0       -2.742357    2.699384   -0.772296
     13          1           0       -2.084858    2.377232    0.873358
     14          1           0       -1.288151    1.657491   -0.500998
     15          1           0       -4.994620    1.116753   -0.643516
     16          1           0       -3.917204    0.829508   -1.997283
     17          1           0       -4.513207   -0.552641   -1.020421
     18          6           0       -1.936864    0.038893    2.122584
     19          1           0       -2.596155    0.737245    2.648579
     20          1           0       -1.815748   -0.840887    2.755862
     21          1           0       -0.956133    0.503611    2.005145
     22          6           0       -0.741462   -2.218732    0.662878
     23          1           0       -1.551577   -2.906441    0.921094
     24          1           0        0.006752   -2.761327    0.073945
     25          1           0       -0.250264   -1.861243    1.567604
     26          6           0       -1.807409   -1.569711   -1.539034
     27          1           0       -1.020389   -2.143037   -2.039426
     28          1           0       -2.670938   -2.225714   -1.390498
     29          1           0       -2.078194   -0.744528   -2.200987
 ---------------------------------------------------------------------

 SCF Done:  E(UB97D3) =  -3034.61253952     A.U. after   16 cycles
 Normal termination of Gaussian 16 at Tue Feb 11 23:41:30 2020.
