 Gaussian 16, Revision A.03,

 --------------------------------
 #t pop=none jul-cc-pvdz upbe1pbe
 --------------------------------
 ------------------------
 theory_abbreviation pbe0
 ------------------------
 Symbolic Z-matrix:
 Charge =  0 Multiplicity = 6

 SCF Done:  E(UPBE1PBE) =  -3033.09879605     A.U. after   21 cycles
 Normal termination of Gaussian 16 at Tue Feb 11 13:59:56 2020.

 ---------------------------------------------------------------------
 #t pop=none jul-cc-pvdz guess=read upbe1pbe empiricaldispersion=gd3bj
 ---------------------------------------------------------------------
 -----------------------------
 theory_abbreviation pbe0_d3bj
 -----------------------------
 Symbolic Z-matrix:
 Charge =  0 Multiplicity = 6

 SCF Done:  E(UPBE1PBE) =  -3033.13641152     A.U. after    1 cycles
 Normal termination of Gaussian 16 at Tue Feb 11 14:01:09 2020.

 -----------------------------------------
 #t pop=none jul-cc-pvdz guess=read ub3lyp
 -----------------------------------------
 -------------------------
 theory_abbreviation b3lyp
 -------------------------
 Symbolic Z-matrix:
 Charge =  0 Multiplicity = 6

 SCF Done:  E(UB3LYP) =  -3034.31172574     A.U. after   15 cycles
 Normal termination of Gaussian 16 at Tue Feb 11 14:17:18 2020.

 -------------------------------------------------------------------
 #t pop=none jul-cc-pvdz guess=read ub3lyp empiricaldispersion=gd3bj
 -------------------------------------------------------------------
 ------------------------------
 theory_abbreviation b3lyp_d3bj
 ------------------------------
 Symbolic Z-matrix:
 Charge =  0 Multiplicity = 6

 SCF Done:  E(UB3LYP) =  -3034.38182086     A.U. after    1 cycles
 Normal termination of Gaussian 16 at Tue Feb 11 14:18:30 2020.

 ----------------------------------------
 #t pop=none jul-cc-pvdz guess=read ub97d
 ----------------------------------------
 ------------------------
 theory_abbreviation b97d
 ------------------------
 Symbolic Z-matrix:
 Charge =  0 Multiplicity = 6

 SCF Done:  E(UB97D) =  -3034.56424080     A.U. after   15 cycles

 ----------------------------------------------------------------
 #t pop=none jul-cc-pvdz guess=read ub97d empiricaldispersion=gd3
 ----------------------------------------------------------------
 -------------------------
 theory_abbreviation b97d3
 -------------------------
 Symbolic Z-matrix:
 Charge =  0 Multiplicity = 6

 SCF Done:  E(UB97D) =  -3034.56533359     A.U. after    1 cycles
 SCF Done:  E(UBHandHLYP) =  -3033.95441911     A.U. after   18 cycles
 SCF Done:  E(UBHandH) =  -3026.30188105     A.U. after   14 cycles
 SCF Done:  E(ULC-wPBE) =  -3033.43933417     A.U. after   18 cycles
 SCF Done:  E(UB-P86) =  -3034.61823789     A.U. after   16 cycles
 SCF Done:  E(UmPW1LYP) =  -3034.02999759     A.U. after   15 cycles
 SCF Done:  E(UmPW1PBE) =  -3033.87324857     A.U. after   15 cycles
 SCF Done:  E(UmPW3PBE) =  -3033.64555253     A.U. after   13 cycles
 SCF Done:  E(UM11) =  -3033.79625981     A.U. after   19 cycles
 SCF Done:  E(UN12SX) =  -3033.23879505     A.U. after   16 cycles
 SCF Done:  E(UMN12SX) =  -3033.63769854     A.U. after   15 cycles
 SCF Done:  E(UB1B95) =  -3034.36788366     A.U. after   16 cycles
 Normal termination of Gaussian 16 at Tue Feb 11 22:57:22 2020.
 SCF Done:  E(UB3PW91) =  -3033.96089209     A.U. after   15 cycles
 Normal termination of Gaussian 16 at Tue Feb 11 23:13:28 2020.
 SCF Done:  E(UM06L) =  -3034.17881273     A.U. after   17 cycles
 Normal termination of Gaussian 16 at Tue Feb 11 23:32:45 2020.
 Gaussian 16:  ES64L-G16RevA.03 25-Dec-2016

                         Standard orientation:
 ---------------------------------------------------------------------
 Center     Atomic      Atomic             Coordinates (Angstroms)
 Number     Number       Type             X           Y           Z
 ---------------------------------------------------------------------
      1          8           0       -0.351112   -0.099566   -0.519596
      2          6           0       -1.285195   -1.039962   -0.458116
      3          6           0       -3.032881   -0.025203   -0.114091
      4          6           0       -2.188232    1.074251   -0.224369
      5          6           0       -1.986327    1.766418   -1.528960
      6         26           0        1.431899    0.049048    0.048634
      7         17           0        1.993682    2.011285   -0.784411
      8          6           0       -1.599105    1.744555    0.971044
      9         17           0        2.431234   -1.732050   -0.774232
     10         17           0        1.398269    0.042756    2.262360
     11          1           0       -3.581637   -0.285999   -1.016450
     12          1           0       -2.365625    2.428202    1.367241
     13          1           0       -1.336580    1.048852    1.768958
     14          1           0       -0.716986    2.331059    0.708831
     15          1           0       -2.557520    2.706006   -1.478491
     16          1           0       -0.935292    2.025108   -1.679389
     17          1           0       -2.363685    1.193131   -2.377837
     18          6           0       -3.705885   -0.441192    1.172153
     19          1           0       -4.610682    0.160938    1.326127
     20          1           0       -4.019559   -1.488164    1.132584
     21          1           0       -3.070691   -0.310451    2.050495
     22          6           0       -1.199513   -1.977526    0.718660
     23          1           0       -2.051866   -2.655626    0.783495
     24          1           0       -0.293352   -2.576933    0.549467
     25          1           0       -1.055708   -1.443861    1.658785
     26          6           0       -1.595503   -1.687049   -1.787306
     27          1           0       -0.700863   -2.266670   -2.053545
     28          1           0       -2.453883   -2.361171   -1.733917
     29          1           0       -1.744840   -0.942728   -2.571355
 ---------------------------------------------------------------------

 SCF Done:  E(UB97D3) =  -3034.60075404     A.U. after   15 cycles
 Normal termination of Gaussian 16 at Tue Feb 11 23:45:09 2020.
