 Gaussian 16, Revision A.03,

 --------------------------------
 #t pop=none jul-cc-pvdz upbe1pbe
 --------------------------------
 ------------------------
 theory_abbreviation pbe0
 ------------------------
 Symbolic Z-matrix:
 Charge =  0 Multiplicity = 6

 SCF Done:  E(UPBE1PBE) =  -3033.13498147     A.U. after   20 cycles
 Normal termination of Gaussian 16 at Wed Feb 12 14:11:38 2020.

 ---------------------------------------------------------------------
 #t pop=none jul-cc-pvdz guess=read upbe1pbe empiricaldispersion=gd3bj
 ---------------------------------------------------------------------
 -----------------------------
 theory_abbreviation pbe0_d3bj
 -----------------------------
 Symbolic Z-matrix:
 Charge =  0 Multiplicity = 6

 SCF Done:  E(UPBE1PBE) =  -3033.17163184     A.U. after    1 cycles
 Normal termination of Gaussian 16 at Wed Feb 12 14:12:51 2020.

 -----------------------------------------
 #t pop=none jul-cc-pvdz guess=read ub3lyp
 -----------------------------------------
 -------------------------
 theory_abbreviation b3lyp
 -------------------------
 Symbolic Z-matrix:
 Charge =  0 Multiplicity = 6

 SCF Done:  E(UB3LYP) =  -3034.35295447     A.U. after   13 cycles
 Normal termination of Gaussian 16 at Wed Feb 12 14:26:19 2020.

 -------------------------------------------------------------------
 #t pop=none jul-cc-pvdz guess=read ub3lyp empiricaldispersion=gd3bj
 -------------------------------------------------------------------
 ------------------------------
 theory_abbreviation b3lyp_d3bj
 ------------------------------
 Symbolic Z-matrix:
 Charge =  0 Multiplicity = 6

 SCF Done:  E(UB3LYP) =  -3034.42088193     A.U. after    1 cycles
 Normal termination of Gaussian 16 at Wed Feb 12 14:27:28 2020.

 ----------------------------------------
 #t pop=none jul-cc-pvdz guess=read ub97d
 ----------------------------------------
 ------------------------
 theory_abbreviation b97d
 ------------------------
 Symbolic Z-matrix:
 Charge =  0 Multiplicity = 6

 SCF Done:  E(UB97D) =  -3034.60396838     A.U. after   15 cycles

 ----------------------------------------------------------------
 #t pop=none jul-cc-pvdz guess=read ub97d empiricaldispersion=gd3
 ----------------------------------------------------------------
 -------------------------
 theory_abbreviation b97d3
 -------------------------
 Symbolic Z-matrix:
 Charge =  0 Multiplicity = 6

 SCF Done:  E(UB97D) =  -3034.60560035     A.U. after    2 cycles
 SCF Done:  E(UBHandHLYP) =  -3033.99481712     A.U. after   17 cycles
 SCF Done:  E(UBHandH) =  -3026.33211861     A.U. after   14 cycles
 SCF Done:  E(ULC-wPBE) =  -3033.47635502     A.U. after   17 cycles
 SCF Done:  E(UB-P86) =  -3034.65333994     A.U. after   17 cycles
 SCF Done:  E(UmPW1LYP) =  -3034.07131265     A.U. after   13 cycles
 SCF Done:  E(UmPW1PBE) =  -3033.90940864     A.U. after   14 cycles
 SCF Done:  E(UmPW3PBE) =  -3033.68236060     A.U. after   13 cycles
 SCF Done:  E(UM11) =  -3033.83395927     A.U. after   17 cycles
 SCF Done:  E(UN12SX) =  -3033.27389097     A.U. after   16 cycles
 SCF Done:  E(UMN12SX) =  -3033.67633763     A.U. after   16 cycles
 SCF Done:  E(UB1B95) =  -3034.40568392     A.U. after   14 cycles
 Normal termination of Gaussian 16 at Wed Feb 12 22:11:51 2020.
 SCF Done:  E(UB3PW91) =  -3033.99850088     A.U. after   13 cycles
 Normal termination of Gaussian 16 at Wed Feb 12 22:25:18 2020.
 SCF Done:  E(UM06L) =  -3034.22108282     A.U. after   17 cycles
 Normal termination of Gaussian 16 at Wed Feb 12 22:44:10 2020.
 Gaussian 16:  ES64L-G16RevA.03 25-Dec-2016

                         Standard orientation:
 ---------------------------------------------------------------------
 Center     Atomic      Atomic             Coordinates (Angstroms)
 Number     Number       Type             X           Y           Z
 ---------------------------------------------------------------------
      1          8           0        0.221367    0.356900   -0.854290
      2          6           0        0.998490    1.322609   -0.663396
      3          6           0        3.091607    0.081399    0.506329
      4          6           0        2.603633   -0.959991   -0.198062
      5          6           0        3.017703   -1.209637   -1.622562
      6         26           0       -1.471899   -0.154086    0.020426
      7         17           0       -2.078710   -1.981897   -0.988877
      8          6           0        1.672554   -1.995151    0.360980
      9         17           0       -2.685500    1.617278   -0.405657
     10         17           0       -1.097274   -0.390038    2.170514
     11          1           0        3.818045    0.723936    0.007930
     12          1           0        2.191097   -2.961825    0.419808
     13          1           0        1.291584   -1.755503    1.353171
     14          1           0        0.818489   -2.148978   -0.309858
     15          1           0        3.489688   -2.197174   -1.706985
     16          1           0        2.141846   -1.229946   -2.284539
     17          1           0        3.729434   -0.464970   -1.990183
     18          6           0        2.923254    0.324044    1.982550
     19          1           0        3.743278   -0.150309    2.538899
     20          1           0        2.961932    1.391771    2.221123
     21          1           0        1.985894   -0.075868    2.377398
     22          6           0        0.843779    2.213850    0.528330
     23          1           0        1.731137    2.823222    0.703003
     24          1           0       -0.000058    2.882169    0.299622
     25          1           0        0.577373    1.651604    1.423534
     26          6           0        1.805897    1.819463   -1.823918
     27          1           0        1.209817    2.621203   -2.284699
     28          1           0        2.756964    2.252066   -1.510209
     29          1           0        1.955625    1.039293   -2.567944
 ---------------------------------------------------------------------

 SCF Done:  E(UB97D3) =  -3034.64025092     A.U. after   16 cycles
 Normal termination of Gaussian 16 at Wed Feb 12 22:56:40 2020.
