 Gaussian 16, Revision A.03,

 --------------------------------
 #t pop=none jul-cc-pvdz upbe1pbe
 --------------------------------
 ------------------------
 theory_abbreviation pbe0
 ------------------------
 Symbolic Z-matrix:
 Charge =  0 Multiplicity = 6

 SCF Done:  E(UPBE1PBE) =  -3033.10531697     A.U. after   20 cycles
 Normal termination of Gaussian 16 at Tue Feb 11 13:58:48 2020.

 ---------------------------------------------------------------------
 #t pop=none jul-cc-pvdz guess=read upbe1pbe empiricaldispersion=gd3bj
 ---------------------------------------------------------------------
 -----------------------------
 theory_abbreviation pbe0_d3bj
 -----------------------------
 Symbolic Z-matrix:
 Charge =  0 Multiplicity = 6

 SCF Done:  E(UPBE1PBE) =  -3033.14337341     A.U. after    1 cycles
 Normal termination of Gaussian 16 at Tue Feb 11 13:59:59 2020.

 -----------------------------------------
 #t pop=none jul-cc-pvdz guess=read ub3lyp
 -----------------------------------------
 -------------------------
 theory_abbreviation b3lyp
 -------------------------
 Symbolic Z-matrix:
 Charge =  0 Multiplicity = 6

 SCF Done:  E(UB3LYP) =  -3034.31964603     A.U. after   14 cycles
 Normal termination of Gaussian 16 at Tue Feb 11 14:14:56 2020.

 -------------------------------------------------------------------
 #t pop=none jul-cc-pvdz guess=read ub3lyp empiricaldispersion=gd3bj
 -------------------------------------------------------------------
 ------------------------------
 theory_abbreviation b3lyp_d3bj
 ------------------------------
 Symbolic Z-matrix:
 Charge =  0 Multiplicity = 6

 SCF Done:  E(UB3LYP) =  -3034.39057159     A.U. after    1 cycles
 Normal termination of Gaussian 16 at Tue Feb 11 14:16:06 2020.

 ----------------------------------------
 #t pop=none jul-cc-pvdz guess=read ub97d
 ----------------------------------------
 ------------------------
 theory_abbreviation b97d
 ------------------------
 Symbolic Z-matrix:
 Charge =  0 Multiplicity = 6

 SCF Done:  E(UB97D) =  -3034.57278194     A.U. after   16 cycles

 ----------------------------------------------------------------
 #t pop=none jul-cc-pvdz guess=read ub97d empiricaldispersion=gd3
 ----------------------------------------------------------------
 -------------------------
 theory_abbreviation b97d3
 -------------------------
 Symbolic Z-matrix:
 Charge =  0 Multiplicity = 6

 SCF Done:  E(UB97D) =  -3034.57478959     A.U. after    1 cycles
 SCF Done:  E(UBHandHLYP) =  -3033.96151701     A.U. after   16 cycles
 SCF Done:  E(UBHandH) =  -3026.30709321     A.U. after   15 cycles
 SCF Done:  E(ULC-wPBE) =  -3033.44605355     A.U. after   19 cycles
 SCF Done:  E(UB-P86) =  -3034.62637857     A.U. after   16 cycles
 SCF Done:  E(UmPW1LYP) =  -3034.03778946     A.U. after   14 cycles
 SCF Done:  E(UmPW1PBE) =  -3033.87979176     A.U. after   15 cycles
 SCF Done:  E(UmPW3PBE) =  -3033.65240644     A.U. after   13 cycles
 SCF Done:  E(UM11) =  -3033.80295401     A.U. after   17 cycles
 SCF Done:  E(UN12SX) =  -3033.24454170     A.U. after   17 cycles
 SCF Done:  E(UMN12SX) =  -3033.64530326     A.U. after   16 cycles
 SCF Done:  E(UB1B95) =  -3034.37574268     A.U. after   15 cycles
 Normal termination of Gaussian 16 at Tue Feb 11 22:42:41 2020.
 SCF Done:  E(UB3PW91) =  -3033.96793287     A.U. after   15 cycles
 Normal termination of Gaussian 16 at Tue Feb 11 22:59:33 2020.
 SCF Done:  E(UM06L) =  -3034.18861766     A.U. after   17 cycles
 Normal termination of Gaussian 16 at Tue Feb 11 23:18:41 2020.
 Gaussian 16:  ES64L-G16RevA.03 25-Dec-2016

                         Standard orientation:
 ---------------------------------------------------------------------
 Center     Atomic      Atomic             Coordinates (Angstroms)
 Number     Number       Type             X           Y           Z
 ---------------------------------------------------------------------
      1          8           0       -0.343782   -0.092121   -0.549630
      2          6           0       -1.201721   -1.046489   -0.502764
      3          6           0       -3.171876    0.046688   -0.040756
      4          6           0       -2.257931    1.043619   -0.220064
      5          6           0       -2.087546    1.707213   -1.552931
      6         26           0        1.461385    0.063442    0.059499
      7         17           0        2.084213    1.983421   -0.788753
      8          6           0       -1.574904    1.727216    0.927486
      9         17           0        2.386683   -1.750004   -0.772937
     10         17           0        1.426041    0.033134    2.261081
     11          1           0       -3.725995   -0.277794   -0.919140
     12          1           0       -2.263553    2.486501    1.324414
     13          1           0       -1.320166    1.054507    1.747691
     14          1           0       -0.666407    2.239458    0.604260
     15          1           0       -2.510669    2.718409   -1.475516
     16          1           0       -1.031104    1.818104   -1.810795
     17          1           0       -2.617561    1.188899   -2.355801
     18          6           0       -3.735189   -0.409143    1.277552
     19          1           0       -4.664408    0.138331    1.486324
     20          1           0       -3.993236   -1.473023    1.264417
     21          1           0       -3.059339   -0.231479    2.116970
     22          6           0       -1.187017   -1.962362    0.685359
     23          1           0       -2.069023   -2.600776    0.738248
     24          1           0       -0.304628   -2.604725    0.543927
     25          1           0       -1.038459   -1.417955    1.618217
     26          6           0       -1.637874   -1.626992   -1.819097
     27          1           0       -0.797336   -2.255506   -2.148680
     28          1           0       -2.527827   -2.252514   -1.729646
     29          1           0       -1.779628   -0.852824   -2.573195
 ---------------------------------------------------------------------

 SCF Done:  E(UB97D3) =  -3034.61084232     A.U. after   17 cycles
 Normal termination of Gaussian 16 at Tue Feb 11 23:32:27 2020.
