 Gaussian 16, Revision A.03,

 --------------------------------
 #t pop=none jul-cc-pvdz upbe1pbe
 --------------------------------
 ------------------------
 theory_abbreviation pbe0
 ------------------------
 Symbolic Z-matrix:
 Charge =  0 Multiplicity = 6

 SCF Done:  E(UPBE1PBE) =  -3033.11794356     A.U. after   21 cycles
 Normal termination of Gaussian 16 at Tue Feb 11 14:46:12 2020.

 ---------------------------------------------------------------------
 #t pop=none jul-cc-pvdz guess=read upbe1pbe empiricaldispersion=gd3bj
 ---------------------------------------------------------------------
 -----------------------------
 theory_abbreviation pbe0_d3bj
 -----------------------------
 Symbolic Z-matrix:
 Charge =  0 Multiplicity = 6

 SCF Done:  E(UPBE1PBE) =  -3033.15494391     A.U. after    1 cycles
 Normal termination of Gaussian 16 at Tue Feb 11 14:47:26 2020.

 -----------------------------------------
 #t pop=none jul-cc-pvdz guess=read ub3lyp
 -----------------------------------------
 -------------------------
 theory_abbreviation b3lyp
 -------------------------
 Symbolic Z-matrix:
 Charge =  0 Multiplicity = 6

 SCF Done:  E(UB3LYP) =  -3034.33046847     A.U. after   13 cycles
 Normal termination of Gaussian 16 at Tue Feb 11 15:01:39 2020.

 -------------------------------------------------------------------
 #t pop=none jul-cc-pvdz guess=read ub3lyp empiricaldispersion=gd3bj
 -------------------------------------------------------------------
 ------------------------------
 theory_abbreviation b3lyp_d3bj
 ------------------------------
 Symbolic Z-matrix:
 Charge =  0 Multiplicity = 6

 SCF Done:  E(UB3LYP) =  -3034.39936973     A.U. after    1 cycles
 Normal termination of Gaussian 16 at Tue Feb 11 15:02:52 2020.

 ----------------------------------------
 #t pop=none jul-cc-pvdz guess=read ub97d
 ----------------------------------------
 ------------------------
 theory_abbreviation b97d
 ------------------------
 Symbolic Z-matrix:
 Charge =  0 Multiplicity = 6

 SCF Done:  E(UB97D) =  -3034.58027288     A.U. after   16 cycles

 ----------------------------------------------------------------
 #t pop=none jul-cc-pvdz guess=read ub97d empiricaldispersion=gd3
 ----------------------------------------------------------------
 -------------------------
 theory_abbreviation b97d3
 -------------------------
 Symbolic Z-matrix:
 Charge =  0 Multiplicity = 6

 SCF Done:  E(UB97D) =  -3034.58112887     A.U. after    1 cycles
 SCF Done:  E(UBHandHLYP) =  -3033.97442920     A.U. after   16 cycles
 SCF Done:  E(UBHandH) =  -3026.32078688     A.U. after   14 cycles
 SCF Done:  E(ULC-wPBE) =  -3033.46382270     A.U. after   17 cycles
 SCF Done:  E(UB-P86) =  -3034.63651524     A.U. after   17 cycles
 SCF Done:  E(UmPW1LYP) =  -3034.04888953     A.U. after   14 cycles
 SCF Done:  E(UmPW1PBE) =  -3033.89240271     A.U. after   14 cycles
 SCF Done:  E(UmPW3PBE) =  -3033.66445675     A.U. after   14 cycles
 SCF Done:  E(UM11) =  -3033.81283718     A.U. after   17 cycles
 SCF Done:  E(UN12SX) =  -3033.25802532     A.U. after   16 cycles
 SCF Done:  E(UMN12SX) =  -3033.65375540     A.U. after   16 cycles
 SCF Done:  E(UB1B95) =  -3034.38400954     A.U. after   15 cycles
 Normal termination of Gaussian 16 at Tue Feb 11 23:34:38 2020.
 SCF Done:  E(UB3PW91) =  -3033.97983691     A.U. after   14 cycles
 Normal termination of Gaussian 16 at Tue Feb 11 23:48:36 2020.
 SCF Done:  E(UM06L) =  -3034.19542170     A.U. after   17 cycles
 Normal termination of Gaussian 16 at Wed Feb 12 00:09:37 2020.
 Gaussian 16:  ES64L-G16RevA.03 25-Dec-2016

                         Standard orientation:
 ---------------------------------------------------------------------
 Center     Atomic      Atomic             Coordinates (Angstroms)
 Number     Number       Type             X           Y           Z
 ---------------------------------------------------------------------
      1          8           0       -0.373692   -0.244458   -0.582335
      2          6           0       -1.467243   -1.170292   -0.335550
      3          6           0       -2.703622   -0.155220   -0.303991
      4          6           0       -1.958155    1.166993   -0.236285
      5          6           0       -1.829564    2.004437   -1.447717
      6         26           0        1.381816    0.021606    0.011974
      7         17           0        1.812375    2.020359   -0.852236
      8          6           0       -1.608010    1.775166    1.065492
      9         17           0        2.560449   -1.677019   -0.715138
     10         17           0        1.354775    0.162610    2.224688
     11          1           0       -3.198203   -0.205680   -1.279234
     12          1           0       -2.496266    2.340271    1.394912
     13          1           0       -1.378315    1.038150    1.834868
     14          1           0       -0.777180    2.477738    0.968557
     15          1           0       -2.578084    2.811005   -1.374225
     16          1           0       -0.841194    2.475998   -1.477430
     17          1           0       -2.007742    1.440900   -2.364000
     18          6           0       -3.752919   -0.367265    0.788351
     19          1           0       -4.546897    0.384874    0.721933
     20          1           0       -4.219156   -1.348819    0.660553
     21          1           0       -3.326153   -0.328031    1.793182
     22          6           0       -1.246520   -1.929303    0.966598
     23          1           0       -2.071538   -2.621871    1.161676
     24          1           0       -0.325573   -2.515267    0.880016
     25          1           0       -1.128758   -1.263533    1.823527
     26          6           0       -1.553207   -2.124795   -1.518458
     27          1           0       -0.632877   -2.714634   -1.576103
     28          1           0       -2.403287   -2.808882   -1.411704
     29          1           0       -1.660200   -1.567793   -2.454133
 ---------------------------------------------------------------------

 SCF Done:  E(UB97D3) =  -3034.61671690     A.U. after   16 cycles
 Normal termination of Gaussian 16 at Wed Feb 12 00:22:20 2020.
