 Gaussian 16, Revision A.03,

 --------------------------------
 #t pop=none jul-cc-pvdz upbe1pbe
 --------------------------------
 ------------------------
 theory_abbreviation pbe0
 ------------------------
 Symbolic Z-matrix:
 Charge =  0 Multiplicity = 6

 SCF Done:  E(UPBE1PBE) =  -3033.13745975     A.U. after   20 cycles
 Normal termination of Gaussian 16 at Wed Feb 12 14:11:29 2020.

 ---------------------------------------------------------------------
 #t pop=none jul-cc-pvdz guess=read upbe1pbe empiricaldispersion=gd3bj
 ---------------------------------------------------------------------
 -----------------------------
 theory_abbreviation pbe0_d3bj
 -----------------------------
 Symbolic Z-matrix:
 Charge =  0 Multiplicity = 6

 SCF Done:  E(UPBE1PBE) =  -3033.17367933     A.U. after    1 cycles
 Normal termination of Gaussian 16 at Wed Feb 12 14:12:37 2020.

 -----------------------------------------
 #t pop=none jul-cc-pvdz guess=read ub3lyp
 -----------------------------------------
 -------------------------
 theory_abbreviation b3lyp
 -------------------------
 Symbolic Z-matrix:
 Charge =  0 Multiplicity = 6

 SCF Done:  E(UB3LYP) =  -3034.35599178     A.U. after   13 cycles
 Normal termination of Gaussian 16 at Wed Feb 12 14:25:39 2020.

 -------------------------------------------------------------------
 #t pop=none jul-cc-pvdz guess=read ub3lyp empiricaldispersion=gd3bj
 -------------------------------------------------------------------
 ------------------------------
 theory_abbreviation b3lyp_d3bj
 ------------------------------
 Symbolic Z-matrix:
 Charge =  0 Multiplicity = 6

 SCF Done:  E(UB3LYP) =  -3034.42299112     A.U. after    1 cycles
 Normal termination of Gaussian 16 at Wed Feb 12 14:26:47 2020.

 ----------------------------------------
 #t pop=none jul-cc-pvdz guess=read ub97d
 ----------------------------------------
 ------------------------
 theory_abbreviation b97d
 ------------------------
 Symbolic Z-matrix:
 Charge =  0 Multiplicity = 6

 SCF Done:  E(UB97D) =  -3034.60555013     A.U. after   18 cycles

 ----------------------------------------------------------------
 #t pop=none jul-cc-pvdz guess=read ub97d empiricaldispersion=gd3
 ----------------------------------------------------------------
 -------------------------
 theory_abbreviation b97d3
 -------------------------
 Symbolic Z-matrix:
 Charge =  0 Multiplicity = 6

 SCF Done:  E(UB97D) =  -3034.60759177     A.U. after    1 cycles
 SCF Done:  E(UBHandHLYP) =  -3033.99812816     A.U. after   18 cycles
 SCF Done:  E(UBHandH) =  -3026.33348621     A.U. after   14 cycles
 SCF Done:  E(ULC-wPBE) =  -3033.47922348     A.U. after   18 cycles
 SCF Done:  E(UB-P86) =  -3034.65473015     A.U. after   17 cycles
 SCF Done:  E(UmPW1LYP) =  -3034.07438488     A.U. after   13 cycles
 SCF Done:  E(UmPW1PBE) =  -3033.91193928     A.U. after   14 cycles
 SCF Done:  E(UmPW3PBE) =  -3033.68487616     A.U. after   13 cycles
 SCF Done:  E(UM11) =  -3033.83675008     A.U. after   17 cycles
 SCF Done:  E(UN12SX) =  -3033.27640051     A.U. after   17 cycles
 SCF Done:  E(UMN12SX) =  -3033.67909289     A.U. after   16 cycles
 SCF Done:  E(UB1B95) =  -3034.40847646     A.U. after   14 cycles
 Normal termination of Gaussian 16 at Wed Feb 12 22:04:11 2020.
 SCF Done:  E(UB3PW91) =  -3034.00116776     A.U. after   14 cycles
 Normal termination of Gaussian 16 at Wed Feb 12 22:18:00 2020.
 SCF Done:  E(UM06L) =  -3034.22334865     A.U. after   17 cycles
 Normal termination of Gaussian 16 at Wed Feb 12 22:40:34 2020.
 Gaussian 16:  ES64L-G16RevA.03 25-Dec-2016

                         Standard orientation:
 ---------------------------------------------------------------------
 Center     Atomic      Atomic             Coordinates (Angstroms)
 Number     Number       Type             X           Y           Z
 ---------------------------------------------------------------------
      1          8           0        0.218929    0.414947   -0.839620
      2          6           0        0.936321    1.415005   -0.626172
      3          6           0        3.198865   -0.017954    0.486267
      4          6           0        2.595928   -0.952070   -0.272978
      5          6           0        2.932861   -1.111570   -1.732190
      6         26           0       -1.469975   -0.166135    0.032138
      7         17           0       -2.082705   -1.937845   -1.064370
      8          6           0        1.647543   -1.991435    0.253504
      9         17           0       -2.691000    1.619076   -0.308556
     10         17           0       -1.084445   -0.488321    2.165216
     11          1           0        3.933615    0.624589   -0.001519
     12          1           0        2.146158   -2.970557    0.259122
     13          1           0        1.291517   -1.792397    1.264098
     14          1           0        0.778482   -2.099534   -0.405514
     15          1           0        3.362784   -2.105499   -1.913619
     16          1           0        2.028041   -1.050432   -2.350537
     17          1           0        3.654626   -0.365833   -2.078948
     18          6           0        3.072619    0.167367    1.973146
     19          1           0        3.927065   -0.288345    2.492328
     20          1           0        3.076094    1.229416    2.244706
     21          1           0        2.163343   -0.280791    2.381942
     22          6           0        0.816564    2.205008    0.637133
     23          1           0        1.691781    2.833337    0.808494
     24          1           0       -0.064507    2.853727    0.521822
     25          1           0        0.631687    1.556532    1.494680
     26          6           0        1.744354    1.976072   -1.752975
     27          1           0        1.207390    2.866338   -2.112130
     28          1           0        2.729593    2.302773   -1.414297
     29          1           0        1.828466    1.264573   -2.572607
 ---------------------------------------------------------------------

 SCF Done:  E(UB97D3) =  -3034.64195183     A.U. after   16 cycles
 Normal termination of Gaussian 16 at Wed Feb 12 22:53:20 2020.
