 Gaussian 16, Revision A.03,

 --------------------------------
 #t pop=none jul-cc-pvdz upbe1pbe
 --------------------------------
 ------------------------
 theory_abbreviation pbe0
 ------------------------
 Symbolic Z-matrix:
 Charge =  0 Multiplicity = 6

 SCF Done:  E(UPBE1PBE) =  -3033.10941904     A.U. after   21 cycles
 Normal termination of Gaussian 16 at Tue Feb 11 13:57:22 2020.

 ---------------------------------------------------------------------
 #t pop=none jul-cc-pvdz guess=read upbe1pbe empiricaldispersion=gd3bj
 ---------------------------------------------------------------------
 -----------------------------
 theory_abbreviation pbe0_d3bj
 -----------------------------
 Symbolic Z-matrix:
 Charge =  0 Multiplicity = 6

 SCF Done:  E(UPBE1PBE) =  -3033.14588561     A.U. after    1 cycles
 Normal termination of Gaussian 16 at Tue Feb 11 13:58:37 2020.

 -----------------------------------------
 #t pop=none jul-cc-pvdz guess=read ub3lyp
 -----------------------------------------
 -------------------------
 theory_abbreviation b3lyp
 -------------------------
 Symbolic Z-matrix:
 Charge =  0 Multiplicity = 6

 SCF Done:  E(UB3LYP) =  -3034.32069470     A.U. after   15 cycles
 Normal termination of Gaussian 16 at Tue Feb 11 14:14:02 2020.

 -------------------------------------------------------------------
 #t pop=none jul-cc-pvdz guess=read ub3lyp empiricaldispersion=gd3bj
 -------------------------------------------------------------------
 ------------------------------
 theory_abbreviation b3lyp_d3bj
 ------------------------------
 Symbolic Z-matrix:
 Charge =  0 Multiplicity = 6

 SCF Done:  E(UB3LYP) =  -3034.38875826     A.U. after    1 cycles
 Normal termination of Gaussian 16 at Tue Feb 11 14:15:14 2020.

 ----------------------------------------
 #t pop=none jul-cc-pvdz guess=read ub97d
 ----------------------------------------
 ------------------------
 theory_abbreviation b97d
 ------------------------
 Symbolic Z-matrix:
 Charge =  0 Multiplicity = 6

 SCF Done:  E(UB97D) =  -3034.57215293     A.U. after   16 cycles

 ----------------------------------------------------------------
 #t pop=none jul-cc-pvdz guess=read ub97d empiricaldispersion=gd3
 ----------------------------------------------------------------
 -------------------------
 theory_abbreviation b97d3
 -------------------------
 Symbolic Z-matrix:
 Charge =  0 Multiplicity = 6

 SCF Done:  E(UB97D) =  -3034.57264319     A.U. after    1 cycles
 SCF Done:  E(UBHandHLYP) =  -3033.96346864     A.U. after   17 cycles
 SCF Done:  E(UBHandH) =  -3026.31378192     A.U. after   13 cycles
 SCF Done:  E(ULC-wPBE) =  -3033.45071160     A.U. after   17 cycles
 SCF Done:  E(UB-P86) =  -3034.62674563     A.U. after   17 cycles
 SCF Done:  E(UmPW1LYP) =  -3034.03868686     A.U. after   15 cycles
 SCF Done:  E(UmPW1PBE) =  -3033.88380116     A.U. after   15 cycles
 SCF Done:  E(UmPW3PBE) =  -3033.65598179     A.U. after   14 cycles
 SCF Done:  E(UM11) =  -3033.80420788     A.U. after   18 cycles
 SCF Done:  E(UN12SX) =  -3033.24906318     A.U. after   15 cycles
 SCF Done:  E(UMN12SX) =  -3033.64458250     A.U. after   16 cycles
 SCF Done:  E(UB1B95) =  -3034.37577391     A.U. after   16 cycles
 Normal termination of Gaussian 16 at Tue Feb 11 22:53:29 2020.
 SCF Done:  E(UB3PW91) =  -3033.97123105     A.U. after   15 cycles
 Normal termination of Gaussian 16 at Tue Feb 11 23:09:03 2020.
 SCF Done:  E(UM06L) =  -3034.18737159     A.U. after   17 cycles
 Normal termination of Gaussian 16 at Tue Feb 11 23:27:47 2020.
 Gaussian 16:  ES64L-G16RevA.03 25-Dec-2016

                         Standard orientation:
 ---------------------------------------------------------------------
 Center     Atomic      Atomic             Coordinates (Angstroms)
 Number     Number       Type             X           Y           Z
 ---------------------------------------------------------------------
      1          8           0       -0.352200   -0.099555   -0.429282
      2          6           0       -1.255761   -1.091097   -0.283942
      3          6           0       -2.526636   -0.456471    0.649936
      4          6           0       -2.832669    0.752031   -0.048987
      5          6           0       -3.853177    0.774422   -1.127463
      6         26           0        1.459999    0.171703   -0.076850
      7         17           0        1.707167    2.255289   -0.774375
      8          6           0       -2.069293    1.965206    0.187614
      9         17           0        2.567015   -1.376202   -1.181654
     10         17           0        1.723690    0.016142    2.120835
     11          1           0       -3.319599   -1.199077    0.528919
     12          1           0       -2.452134    2.848745   -0.324400
     13          1           0       -1.851418    2.160058    1.240238
     14          1           0       -1.075198    1.681427   -0.246419
     15          1           0       -4.684935    1.403542   -0.773655
     16          1           0       -3.464623    1.270720   -2.025561
     17          1           0       -4.246122   -0.211214   -1.377296
     18          6           0       -2.080369   -0.297395    2.107904
     19          1           0       -2.778229    0.348641    2.650517
     20          1           0       -2.073472   -1.267974    2.606090
     21          1           0       -1.076368    0.126360    2.181837
     22          6           0       -0.728783   -2.293885    0.516167
     23          1           0       -1.519954   -3.021245    0.722918
     24          1           0        0.036608   -2.773308   -0.103045
     25          1           0       -0.255074   -1.986478    1.448182
     26          6           0       -1.774023   -1.557100   -1.650796
     27          1           0       -0.951399   -2.078840   -2.148653
     28          1           0       -2.619547   -2.247930   -1.564296
     29          1           0       -2.050482   -0.714438   -2.287316
 ---------------------------------------------------------------------

 SCF Done:  E(UB97D3) =  -3034.60722666     A.U. after   16 cycles
 Normal termination of Gaussian 16 at Tue Feb 11 23:40:34 2020.
