 Gaussian 16, Revision A.03,

 --------------------------------
 #t pop=none jul-cc-pvdz upbe1pbe
 --------------------------------
 ------------------------
 theory_abbreviation pbe0
 ------------------------
 Symbolic Z-matrix:
 Charge =  0 Multiplicity = 6

 SCF Done:  E(UPBE1PBE) =  -3033.10880311     A.U. after   21 cycles
 Normal termination of Gaussian 16 at Tue Feb 11 14:49:14 2020.

 ---------------------------------------------------------------------
 #t pop=none jul-cc-pvdz guess=read upbe1pbe empiricaldispersion=gd3bj
 ---------------------------------------------------------------------
 -----------------------------
 theory_abbreviation pbe0_d3bj
 -----------------------------
 Symbolic Z-matrix:
 Charge =  0 Multiplicity = 6

 SCF Done:  E(UPBE1PBE) =  -3033.14537718     A.U. after    1 cycles
 Normal termination of Gaussian 16 at Tue Feb 11 14:50:35 2020.

 -----------------------------------------
 #t pop=none jul-cc-pvdz guess=read ub3lyp
 -----------------------------------------
 -------------------------
 theory_abbreviation b3lyp
 -------------------------
 Symbolic Z-matrix:
 Charge =  0 Multiplicity = 6

 SCF Done:  E(UB3LYP) =  -3034.31898659     A.U. after   15 cycles
 Normal termination of Gaussian 16 at Tue Feb 11 15:08:45 2020.

 -------------------------------------------------------------------
 #t pop=none jul-cc-pvdz guess=read ub3lyp empiricaldispersion=gd3bj
 -------------------------------------------------------------------
 ------------------------------
 theory_abbreviation b3lyp_d3bj
 ------------------------------
 Symbolic Z-matrix:
 Charge =  0 Multiplicity = 6

 SCF Done:  E(UB3LYP) =  -3034.38730029     A.U. after    1 cycles
 Normal termination of Gaussian 16 at Tue Feb 11 15:10:05 2020.

 ----------------------------------------
 #t pop=none jul-cc-pvdz guess=read ub97d
 ----------------------------------------
 ------------------------
 theory_abbreviation b97d
 ------------------------
 Symbolic Z-matrix:
 Charge =  0 Multiplicity = 6

 SCF Done:  E(UB97D) =  -3034.57065891     A.U. after   16 cycles

 ----------------------------------------------------------------
 #t pop=none jul-cc-pvdz guess=read ub97d empiricaldispersion=gd3
 ----------------------------------------------------------------
 -------------------------
 theory_abbreviation b97d3
 -------------------------
 Symbolic Z-matrix:
 Charge =  0 Multiplicity = 6

 SCF Done:  E(UB97D) =  -3034.57097033     A.U. after    1 cycles
 SCF Done:  E(UBHandHLYP) =  -3033.96178296     A.U. after   16 cycles
 SCF Done:  E(UBHandH) =  -3026.31428863     A.U. after   13 cycles
 SCF Done:  E(ULC-wPBE) =  -3033.45116988     A.U. after   17 cycles
 SCF Done:  E(UB-P86) =  -3034.62623094     A.U. after   17 cycles
 SCF Done:  E(UmPW1LYP) =  -3034.03682924     A.U. after   15 cycles
 SCF Done:  E(UmPW1PBE) =  -3033.88317718     A.U. after   15 cycles
 SCF Done:  E(UmPW3PBE) =  -3033.65527545     A.U. after   14 cycles
 SCF Done:  E(UM11) =  -3033.80261054     A.U. after   17 cycles
 SCF Done:  E(UN12SX) =  -3033.24806622     A.U. after   16 cycles
 SCF Done:  E(UMN12SX) =  -3033.64262195     A.U. after   16 cycles
 SCF Done:  E(UB1B95) =  -3034.37449860     A.U. after   15 cycles
 Normal termination of Gaussian 16 at Wed Feb 12 00:47:23 2020.
 SCF Done:  E(UB3PW91) =  -3033.97041387     A.U. after   14 cycles
 Normal termination of Gaussian 16 at Wed Feb 12 01:01:25 2020.
 SCF Done:  E(UM06L) =  -3034.18540836     A.U. after   17 cycles
 Normal termination of Gaussian 16 at Wed Feb 12 01:19:37 2020.
 Gaussian 16:  ES64L-G16RevA.03 25-Dec-2016

                         Standard orientation:
 ---------------------------------------------------------------------
 Center     Atomic      Atomic             Coordinates (Angstroms)
 Number     Number       Type             X           Y           Z
 ---------------------------------------------------------------------
      1          8           0       -0.348973   -0.061380   -0.392866
      2          6           0       -1.293310   -1.047228   -0.257798
      3          6           0       -2.480097   -0.473150    0.648829
      4          6           0       -2.899767    0.744382   -0.026528
      5          6           0       -4.037994    0.728224   -0.979676
      6         26           0        1.479122    0.171505   -0.077071
      7         17           0        1.738581    2.270352   -0.712717
      8          6           0       -2.095129    1.922546    0.087469
      9         17           0        2.538374   -1.348579   -1.262174
     10         17           0        1.794010   -0.064996    2.105048
     11          1           0       -3.277383   -1.221349    0.593867
     12          1           0       -2.437293    2.799805   -0.459212
     13          1           0       -1.728878    2.153555    1.090573
     14          1           0       -1.151143    1.465964   -0.386587
     15          1           0       -4.875889    1.242718   -0.481611
     16          1           0       -3.815697    1.310743   -1.880720
     17          1           0       -4.366037   -0.278023   -1.244095
     18          6           0       -2.023605   -0.263509    2.105035
     19          1           0       -2.731404    0.376590    2.641237
     20          1           0       -1.986248   -1.222583    2.624015
     21          1           0       -1.028813    0.183519    2.156083
     22          6           0       -0.728880   -2.283139    0.475868
     23          1           0       -1.515154   -3.018224    0.676362
     24          1           0        0.023119   -2.737763   -0.175066
     25          1           0       -0.238674   -2.007710    1.410164
     26          6           0       -1.788211   -1.469051   -1.653597
     27          1           0       -0.948623   -1.932680   -2.177965
     28          1           0       -2.608375   -2.193952   -1.600841
     29          1           0       -2.103347   -0.608353   -2.249717
 ---------------------------------------------------------------------

 SCF Done:  E(UB97D3) =  -3034.60600695     A.U. after   16 cycles
 Normal termination of Gaussian 16 at Wed Feb 12 01:33:05 2020.
