 Gaussian 16, Revision A.03,

 --------------------------------
 #t pop=none jul-cc-pvdz upbe1pbe
 --------------------------------
 ------------------------
 theory_abbreviation pbe0
 ------------------------
 Symbolic Z-matrix:
 Charge =  0 Multiplicity = 6

 SCF Done:  E(UPBE1PBE) =  -3033.12518757     A.U. after   21 cycles
 Normal termination of Gaussian 16 at Tue Feb 11 13:59:50 2020.

 ---------------------------------------------------------------------
 #t pop=none jul-cc-pvdz guess=read upbe1pbe empiricaldispersion=gd3bj
 ---------------------------------------------------------------------
 -----------------------------
 theory_abbreviation pbe0_d3bj
 -----------------------------
 Symbolic Z-matrix:
 Charge =  0 Multiplicity = 6

 SCF Done:  E(UPBE1PBE) =  -3033.16251351     A.U. after    1 cycles
 Normal termination of Gaussian 16 at Tue Feb 11 14:01:01 2020.

 -----------------------------------------
 #t pop=none jul-cc-pvdz guess=read ub3lyp
 -----------------------------------------
 -------------------------
 theory_abbreviation b3lyp
 -------------------------
 Symbolic Z-matrix:
 Charge =  0 Multiplicity = 6

 SCF Done:  E(UB3LYP) =  -3034.34160349     A.U. after   13 cycles
 Normal termination of Gaussian 16 at Tue Feb 11 14:14:49 2020.

 -------------------------------------------------------------------
 #t pop=none jul-cc-pvdz guess=read ub3lyp empiricaldispersion=gd3bj
 -------------------------------------------------------------------
 ------------------------------
 theory_abbreviation b3lyp_d3bj
 ------------------------------
 Symbolic Z-matrix:
 Charge =  0 Multiplicity = 6

 SCF Done:  E(UB3LYP) =  -3034.41103592     A.U. after    1 cycles
 Normal termination of Gaussian 16 at Tue Feb 11 14:16:00 2020.

 ----------------------------------------
 #t pop=none jul-cc-pvdz guess=read ub97d
 ----------------------------------------
 ------------------------
 theory_abbreviation b97d
 ------------------------
 Symbolic Z-matrix:
 Charge =  0 Multiplicity = 6

 SCF Done:  E(UB97D) =  -3034.59503991     A.U. after   15 cycles

 ----------------------------------------------------------------
 #t pop=none jul-cc-pvdz guess=read ub97d empiricaldispersion=gd3
 ----------------------------------------------------------------
 -------------------------
 theory_abbreviation b97d3
 -------------------------
 Symbolic Z-matrix:
 Charge =  0 Multiplicity = 6

 SCF Done:  E(UB97D) =  -3034.59615088     A.U. after    1 cycles
 SCF Done:  E(UBHandHLYP) =  -3033.98241966     A.U. after   18 cycles
 SCF Done:  E(UBHandH) =  -3026.32395182     A.U. after   16 cycles
 SCF Done:  E(ULC-wPBE) =  -3033.46520904     A.U. after   19 cycles
 SCF Done:  E(UB-P86) =  -3034.64556225     A.U. after   16 cycles
 SCF Done:  E(UmPW1LYP) =  -3034.05974375     A.U. after   14 cycles
 SCF Done:  E(UmPW1PBE) =  -3033.89959916     A.U. after   14 cycles
 SCF Done:  E(UmPW3PBE) =  -3033.67254860     A.U. after   13 cycles
 SCF Done:  E(UM11) =  -3033.82285917     A.U. after   18 cycles
 SCF Done:  E(UN12SX) =  -3033.26413835     A.U. after   18 cycles
 SCF Done:  E(UMN12SX) =  -3033.66492729     A.U. after   16 cycles
 SCF Done:  E(UB1B95) =  -3034.39496411     A.U. after   14 cycles
 Normal termination of Gaussian 16 at Tue Feb 11 22:54:45 2020.
 SCF Done:  E(UB3PW91) =  -3033.98837022     A.U. after   15 cycles
 Normal termination of Gaussian 16 at Tue Feb 11 23:10:22 2020.
 SCF Done:  E(UM06L) =  -3034.20986172     A.U. after   17 cycles
 Normal termination of Gaussian 16 at Tue Feb 11 23:29:19 2020.
 Gaussian 16:  ES64L-G16RevA.03 25-Dec-2016

                         Standard orientation:
 ---------------------------------------------------------------------
 Center     Atomic      Atomic             Coordinates (Angstroms)
 Number     Number       Type             X           Y           Z
 ---------------------------------------------------------------------
      1          8           0       -0.253218   -0.273864   -0.817895
      2          6           0       -1.107162   -1.198188   -0.643576
      3          6           0       -2.893156   -0.228246    0.536230
      4          6           0       -2.615947    0.938252   -0.103244
      5          6           0       -3.188510    1.258180   -1.452362
      6         26           0        1.458822    0.144911   -0.007192
      7         17           0        2.036089    2.039210   -0.923311
      8          6           0       -1.705675    1.986575    0.451113
      9         17           0        2.674729   -1.593137   -0.553160
     10         17           0        1.149308    0.289249    2.169621
     11          1           0       -3.629707   -0.881260    0.070551
     12          1           0       -2.244736    2.939264    0.535143
     13          1           0       -1.286181    1.737716    1.424780
     14          1           0       -0.876249    2.164051   -0.246464
     15          1           0       -3.739369    2.205989   -1.399459
     16          1           0       -2.386097    1.409731   -2.186758
     17          1           0       -3.873488    0.488774   -1.816378
     18          6           0       -2.646601   -0.478686    2.005298
     19          1           0       -3.404322    0.050655    2.597519
     20          1           0       -2.736681   -1.539566    2.250640
     21          1           0       -1.666469   -0.135005    2.342936
     22          6           0       -0.855856   -2.247202    0.404588
     23          1           0       -1.731102   -2.871367    0.588971
     24          1           0       -0.057432   -2.880458   -0.009225
     25          1           0       -0.481377   -1.822553    1.335296
     26          6           0       -1.875495   -1.636615   -1.863963
     27          1           0       -1.210317   -2.333526   -2.393067
     28          1           0       -2.794521   -2.170398   -1.617725
     29          1           0       -2.077308   -0.803713   -2.534644
 ---------------------------------------------------------------------

 SCF Done:  E(UB97D3) =  -3034.63135265     A.U. after   16 cycles
 Normal termination of Gaussian 16 at Tue Feb 11 23:41:44 2020.
