 Gaussian 16, Revision A.03,

 --------------------------------
 #t pop=none jul-cc-pvdz upbe1pbe
 --------------------------------
 ------------------------
 theory_abbreviation pbe0
 ------------------------
 Symbolic Z-matrix:
 Charge =  0 Multiplicity = 6

 SCF Done:  E(UPBE1PBE) =  -3033.11547062     A.U. after   21 cycles
 Normal termination of Gaussian 16 at Tue Feb 11 13:59:47 2020.

 ---------------------------------------------------------------------
 #t pop=none jul-cc-pvdz guess=read upbe1pbe empiricaldispersion=gd3bj
 ---------------------------------------------------------------------
 -----------------------------
 theory_abbreviation pbe0_d3bj
 -----------------------------
 Symbolic Z-matrix:
 Charge =  0 Multiplicity = 6

 SCF Done:  E(UPBE1PBE) =  -3033.15289443     A.U. after    1 cycles
 Normal termination of Gaussian 16 at Tue Feb 11 14:00:58 2020.

 -----------------------------------------
 #t pop=none jul-cc-pvdz guess=read ub3lyp
 -----------------------------------------
 -------------------------
 theory_abbreviation b3lyp
 -------------------------
 Symbolic Z-matrix:
 Charge =  0 Multiplicity = 6

 SCF Done:  E(UB3LYP) =  -3034.33006052     A.U. after   13 cycles
 Normal termination of Gaussian 16 at Tue Feb 11 14:14:56 2020.

 -------------------------------------------------------------------
 #t pop=none jul-cc-pvdz guess=read ub3lyp empiricaldispersion=gd3bj
 -------------------------------------------------------------------
 ------------------------------
 theory_abbreviation b3lyp_d3bj
 ------------------------------
 Symbolic Z-matrix:
 Charge =  0 Multiplicity = 6

 SCF Done:  E(UB3LYP) =  -3034.39981681     A.U. after    1 cycles
 Normal termination of Gaussian 16 at Tue Feb 11 14:16:07 2020.

 ----------------------------------------
 #t pop=none jul-cc-pvdz guess=read ub97d
 ----------------------------------------
 ------------------------
 theory_abbreviation b97d
 ------------------------
 Symbolic Z-matrix:
 Charge =  0 Multiplicity = 6

 SCF Done:  E(UB97D) =  -3034.58409750     A.U. after   15 cycles

 ----------------------------------------------------------------
 #t pop=none jul-cc-pvdz guess=read ub97d empiricaldispersion=gd3
 ----------------------------------------------------------------
 -------------------------
 theory_abbreviation b97d3
 -------------------------
 Symbolic Z-matrix:
 Charge =  0 Multiplicity = 6

 SCF Done:  E(UB97D) =  -3034.58489467     A.U. after    1 cycles
 SCF Done:  E(UBHandHLYP) =  -3033.97065623     A.U. after   18 cycles
 SCF Done:  E(UBHandH) =  -3026.31588878     A.U. after   16 cycles
 SCF Done:  E(ULC-wPBE) =  -3033.45480323     A.U. after   19 cycles
 SCF Done:  E(UB-P86) =  -3034.63599691     A.U. after   17 cycles
 SCF Done:  E(UmPW1LYP) =  -3034.04808146     A.U. after   16 cycles
 SCF Done:  E(UmPW1PBE) =  -3033.88984971     A.U. after   16 cycles
 SCF Done:  E(UmPW3PBE) =  -3033.66263084     A.U. after   13 cycles
 SCF Done:  E(UM11) =  -3033.81324279     A.U. after   19 cycles
 SCF Done:  E(UN12SX) =  -3033.25498966     A.U. after   17 cycles
 SCF Done:  E(UMN12SX) =  -3033.65389669     A.U. after   17 cycles
 SCF Done:  E(UB1B95) =  -3034.38440470     A.U. after   16 cycles
 Normal termination of Gaussian 16 at Tue Feb 11 23:13:52 2020.
 SCF Done:  E(UB3PW91) =  -3033.97817324     A.U. after   15 cycles
 Normal termination of Gaussian 16 at Tue Feb 11 23:29:38 2020.
 SCF Done:  E(UM06L) =  -3034.19750078     A.U. after   18 cycles
 Normal termination of Gaussian 16 at Tue Feb 11 23:49:29 2020.
 Gaussian 16:  ES64L-G16RevA.03 25-Dec-2016

                         Standard orientation:
 ---------------------------------------------------------------------
 Center     Atomic      Atomic             Coordinates (Angstroms)
 Number     Number       Type             X           Y           Z
 ---------------------------------------------------------------------
      1          8           0       -0.295360   -0.209573   -0.747682
      2          6           0       -1.190680   -1.127868   -0.589386
      3          6           0       -2.771795   -0.304824    0.520875
      4          6           0       -2.590482    0.925377   -0.064491
      5          6           0       -3.236585    1.284607   -1.364731
      6         26           0        1.436464    0.136486   -0.023384
      7         17           0        1.979713    2.078962   -0.880783
      8          6           0       -1.690186    1.965943    0.501808
      9         17           0        2.655502   -1.569463   -0.666184
     10         17           0        1.207409    0.220110    2.176047
     11          1           0       -3.544777   -0.932097    0.079749
     12          1           0       -2.227660    2.919448    0.579494
     13          1           0       -1.270217    1.710702    1.473039
     14          1           0       -0.859641    2.137223   -0.197536
     15          1           0       -3.817730    2.206205   -1.232430
     16          1           0       -2.472217    1.509356   -2.120469
     17          1           0       -3.905874    0.507922   -1.739128
     18          6           0       -2.518647   -0.548743    1.995605
     19          1           0       -3.251896    0.014105    2.585941
     20          1           0       -2.644573   -1.603912    2.245900
     21          1           0       -1.522391   -0.240206    2.318091
     22          6           0       -0.860253   -2.273198    0.345333
     23          1           0       -1.713712   -2.930813    0.520959
     24          1           0       -0.077961   -2.846700   -0.170307
     25          1           0       -0.441344   -1.930363    1.290625
     26          6           0       -1.889399   -1.550222   -1.868177
     27          1           0       -1.170827   -2.185767   -2.401388
     28          1           0       -2.792512   -2.136630   -1.686211
     29          1           0       -2.108301   -0.700300   -2.512264
 ---------------------------------------------------------------------

 SCF Done:  E(UB97D3) =  -3034.61992406     A.U. after   15 cycles
 Normal termination of Gaussian 16 at Wed Feb 12 00:02:45 2020.
