 Gaussian 16, Revision A.03,

 --------------------------------
 #t pop=none jul-cc-pvdz upbe1pbe
 --------------------------------
 ------------------------
 theory_abbreviation pbe0
 ------------------------
 Symbolic Z-matrix:
 Charge =  0 Multiplicity = 6

 SCF Done:  E(UPBE1PBE) =  -3033.09601187     A.U. after   21 cycles
 Normal termination of Gaussian 16 at Tue Feb 11 13:59:52 2020.

 ---------------------------------------------------------------------
 #t pop=none jul-cc-pvdz guess=read upbe1pbe empiricaldispersion=gd3bj
 ---------------------------------------------------------------------
 -----------------------------
 theory_abbreviation pbe0_d3bj
 -----------------------------
 Symbolic Z-matrix:
 Charge =  0 Multiplicity = 6

 SCF Done:  E(UPBE1PBE) =  -3033.13365154     A.U. after    1 cycles
 Normal termination of Gaussian 16 at Tue Feb 11 14:01:05 2020.

 -----------------------------------------
 #t pop=none jul-cc-pvdz guess=read ub3lyp
 -----------------------------------------
 -------------------------
 theory_abbreviation b3lyp
 -------------------------
 Symbolic Z-matrix:
 Charge =  0 Multiplicity = 6

 SCF Done:  E(UB3LYP) =  -3034.30887419     A.U. after   15 cycles
 Normal termination of Gaussian 16 at Tue Feb 11 14:17:13 2020.

 -------------------------------------------------------------------
 #t pop=none jul-cc-pvdz guess=read ub3lyp empiricaldispersion=gd3bj
 -------------------------------------------------------------------
 ------------------------------
 theory_abbreviation b3lyp_d3bj
 ------------------------------
 Symbolic Z-matrix:
 Charge =  0 Multiplicity = 6

 SCF Done:  E(UB3LYP) =  -3034.37901363     A.U. after    1 cycles
 Normal termination of Gaussian 16 at Tue Feb 11 14:18:24 2020.

 ----------------------------------------
 #t pop=none jul-cc-pvdz guess=read ub97d
 ----------------------------------------
 ------------------------
 theory_abbreviation b97d
 ------------------------
 Symbolic Z-matrix:
 Charge =  0 Multiplicity = 6

 SCF Done:  E(UB97D) =  -3034.56150320     A.U. after   16 cycles

 ----------------------------------------------------------------
 #t pop=none jul-cc-pvdz guess=read ub97d empiricaldispersion=gd3
 ----------------------------------------------------------------
 -------------------------
 theory_abbreviation b97d3
 -------------------------
 Symbolic Z-matrix:
 Charge =  0 Multiplicity = 6

 SCF Done:  E(UB97D) =  -3034.56266339     A.U. after    1 cycles
 SCF Done:  E(UBHandHLYP) =  -3033.95135255     A.U. after   18 cycles
 SCF Done:  E(UBHandH) =  -3026.29892697     A.U. after   15 cycles
 SCF Done:  E(ULC-wPBE) =  -3033.43643207     A.U. after   19 cycles
 SCF Done:  E(UB-P86) =  -3034.61581016     A.U. after   16 cycles
 SCF Done:  E(UmPW1LYP) =  -3034.02710792     A.U. after   15 cycles
 SCF Done:  E(UmPW1PBE) =  -3033.87047234     A.U. after   15 cycles
 SCF Done:  E(UmPW3PBE) =  -3033.64279759     A.U. after   12 cycles
 SCF Done:  E(UM11) =  -3033.79287132     A.U. after   19 cycles
 SCF Done:  E(UN12SX) =  -3033.23608106     A.U. after   16 cycles
 SCF Done:  E(UMN12SX) =  -3033.63478597     A.U. after   15 cycles
 SCF Done:  E(UB1B95) =  -3034.36494810     A.U. after   16 cycles
 Normal termination of Gaussian 16 at Tue Feb 11 22:58:41 2020.
 SCF Done:  E(UB3PW91) =  -3033.95811861     A.U. after   15 cycles
 Normal termination of Gaussian 16 at Tue Feb 11 23:14:45 2020.
 SCF Done:  E(UM06L) =  -3034.17577237     A.U. after   17 cycles
 Normal termination of Gaussian 16 at Tue Feb 11 23:34:02 2020.
 Gaussian 16:  ES64L-G16RevA.03 25-Dec-2016

                         Standard orientation:
 ---------------------------------------------------------------------
 Center     Atomic      Atomic             Coordinates (Angstroms)
 Number     Number       Type             X           Y           Z
 ---------------------------------------------------------------------
      1          8           0       -0.363690   -0.085591   -0.493520
      2          6           0       -1.286814   -1.049218   -0.438779
      3          6           0       -3.031907   -0.015998   -0.139445
      4          6           0       -2.158243    1.070264   -0.236445
      5          6           0       -1.943027    1.765687   -1.537673
      6         26           0        1.428227    0.048456    0.050854
      7         17           0        1.992904    2.004807   -0.795552
      8          6           0       -1.602912    1.746909    0.971736
      9         17           0        2.402486   -1.744435   -0.778445
     10         17           0        1.411683    0.050912    2.264397
     11          1           0       -3.567984   -0.264953   -1.052878
     12          1           0       -2.383098    2.429257    1.342864
     13          1           0       -1.361339    1.054423    1.778909
     14          1           0       -0.715085    2.333708    0.731184
     15          1           0       -2.563851    2.674686   -1.510242
     16          1           0       -0.901797    2.072655   -1.658482
     17          1           0       -2.266640    1.170852   -2.393910
     18          6           0       -3.737127   -0.415117    1.134322
     19          1           0       -4.638503    0.196844    1.268900
     20          1           0       -4.060721   -1.459311    1.093172
     21          1           0       -3.117856   -0.288267    2.024634
     22          6           0       -1.208853   -1.967331    0.751627
     23          1           0       -2.057908   -2.650297    0.813123
     24          1           0       -0.295977   -2.563181    0.607074
     25          1           0       -1.084609   -1.418171    1.685657
     26          6           0       -1.558802   -1.716052   -1.764411
     27          1           0       -0.648903   -2.281865   -2.008699
     28          1           0       -2.406109   -2.404687   -1.718072
     29          1           0       -1.708123   -0.983521   -2.559658
 ---------------------------------------------------------------------

 SCF Done:  E(UB97D3) =  -3034.59810433     A.U. after   15 cycles
 Normal termination of Gaussian 16 at Tue Feb 11 23:46:23 2020.
