 Gaussian 16, Revision A.03,

 --------------------------------
 #t pop=none jul-cc-pvdz upbe1pbe
 --------------------------------
 ------------------------
 theory_abbreviation pbe0
 ------------------------
 Symbolic Z-matrix:
 Charge =  0 Multiplicity = 6

 SCF Done:  E(UPBE1PBE) =  -3033.13414401     A.U. after   20 cycles
 Normal termination of Gaussian 16 at Wed Feb 12 14:10:35 2020.

 ---------------------------------------------------------------------
 #t pop=none jul-cc-pvdz guess=read upbe1pbe empiricaldispersion=gd3bj
 ---------------------------------------------------------------------
 -----------------------------
 theory_abbreviation pbe0_d3bj
 -----------------------------
 Symbolic Z-matrix:
 Charge =  0 Multiplicity = 6

 SCF Done:  E(UPBE1PBE) =  -3033.17087389     A.U. after    1 cycles
 Normal termination of Gaussian 16 at Wed Feb 12 14:11:41 2020.

 -----------------------------------------
 #t pop=none jul-cc-pvdz guess=read ub3lyp
 -----------------------------------------
 -------------------------
 theory_abbreviation b3lyp
 -------------------------
 Symbolic Z-matrix:
 Charge =  0 Multiplicity = 6

 SCF Done:  E(UB3LYP) =  -3034.35198633     A.U. after   13 cycles
 Normal termination of Gaussian 16 at Wed Feb 12 14:24:31 2020.

 -------------------------------------------------------------------
 #t pop=none jul-cc-pvdz guess=read ub3lyp empiricaldispersion=gd3bj
 -------------------------------------------------------------------
 ------------------------------
 theory_abbreviation b3lyp_d3bj
 ------------------------------
 Symbolic Z-matrix:
 Charge =  0 Multiplicity = 6

 SCF Done:  E(UB3LYP) =  -3034.42008056     A.U. after    1 cycles
 Normal termination of Gaussian 16 at Wed Feb 12 14:25:37 2020.

 ----------------------------------------
 #t pop=none jul-cc-pvdz guess=read ub97d
 ----------------------------------------
 ------------------------
 theory_abbreviation b97d
 ------------------------
 Symbolic Z-matrix:
 Charge =  0 Multiplicity = 6

 SCF Done:  E(UB97D) =  -3034.60307016     A.U. after   16 cycles

 ----------------------------------------------------------------
 #t pop=none jul-cc-pvdz guess=read ub97d empiricaldispersion=gd3
 ----------------------------------------------------------------
 -------------------------
 theory_abbreviation b97d3
 -------------------------
 Symbolic Z-matrix:
 Charge =  0 Multiplicity = 6

 SCF Done:  E(UB97D) =  -3034.60480261     A.U. after    1 cycles
 SCF Done:  E(UBHandHLYP) =  -3033.99391330     A.U. after   18 cycles
 SCF Done:  E(UBHandH) =  -3026.33154174     A.U. after   14 cycles
 SCF Done:  E(ULC-wPBE) =  -3033.47565839     A.U. after   17 cycles
 SCF Done:  E(UB-P86) =  -3034.65261575     A.U. after   17 cycles
 SCF Done:  E(UmPW1LYP) =  -3034.07034717     A.U. after   13 cycles
 SCF Done:  E(UmPW1PBE) =  -3033.90856956     A.U. after   14 cycles
 SCF Done:  E(UmPW3PBE) =  -3033.68150344     A.U. after   13 cycles
 SCF Done:  E(UM11) =  -3033.83324891     A.U. after   17 cycles
 SCF Done:  E(UN12SX) =  -3033.27303854     A.U. after   16 cycles
 SCF Done:  E(UMN12SX) =  -3033.67555205     A.U. after   16 cycles
 SCF Done:  E(UB1B95) =  -3034.40490386     A.U. after   14 cycles
 Normal termination of Gaussian 16 at Wed Feb 12 21:48:23 2020.
 SCF Done:  E(UB3PW91) =  -3033.99762288     A.U. after   13 cycles
 Normal termination of Gaussian 16 at Wed Feb 12 22:00:58 2020.
 SCF Done:  E(UM06L) =  -3034.22033269     A.U. after   17 cycles
 Normal termination of Gaussian 16 at Wed Feb 12 22:18:53 2020.
 Gaussian 16:  ES64L-G16RevA.03 25-Dec-2016

                         Standard orientation:
 ---------------------------------------------------------------------
 Center     Atomic      Atomic             Coordinates (Angstroms)
 Number     Number       Type             X           Y           Z
 ---------------------------------------------------------------------
      1          8           0        0.236897    0.341319   -0.839353
      2          6           0        1.007722    1.313330   -0.655345
      3          6           0        3.114916    0.054951    0.469915
      4          6           0        2.570240   -0.972345   -0.212980
      5          6           0        2.930236   -1.242275   -1.648338
      6         26           0       -1.467195   -0.147857    0.027163
      7         17           0       -2.089645   -1.973132   -0.977502
      8          6           0        1.640557   -1.985998    0.386616
      9         17           0       -2.657850    1.634760   -0.419589
     10         17           0       -1.114217   -0.372379    2.181919
     11          1           0        3.840427    0.675685   -0.056629
     12          1           0        2.158108   -2.951802    0.467151
     13          1           0        1.273879   -1.717685    1.376889
     14          1           0        0.778129   -2.157507   -0.268247
     15          1           0        3.367592   -2.244879   -1.741004
     16          1           0        2.033091   -1.238085   -2.281159
     17          1           0        3.653462   -0.522992   -2.043142
     18          6           0        2.999175    0.313360    1.948100
     19          1           0        3.835175   -0.159680    2.481355
     20          1           0        3.051125    1.383389    2.174551
     21          1           0        2.073940   -0.077970    2.378733
     22          6           0        0.865323    2.196290    0.543814
     23          1           0        1.753140    2.807180    0.710750
     24          1           0        0.016794    2.863906    0.330880
     25          1           0        0.612369    1.626891    1.438452
     26          6           0        1.799221    1.820442   -1.822083
     27          1           0        1.192845    2.620592   -2.272194
     28          1           0        2.750762    2.257734   -1.516229
     29          1           0        1.945812    1.045191   -2.571830
 ---------------------------------------------------------------------

 SCF Done:  E(UB97D3) =  -3034.63942758     A.U. after   16 cycles
 Normal termination of Gaussian 16 at Wed Feb 12 22:31:06 2020.
