 Gaussian 16, Revision A.03,

 --------------------------------
 #t pop=none jul-cc-pvdz upbe1pbe
 --------------------------------
 ------------------------
 theory_abbreviation pbe0
 ------------------------
 Symbolic Z-matrix:
 Charge =  0 Multiplicity = 6

 SCF Done:  E(UPBE1PBE) =  -3033.12204945     A.U. after   20 cycles
 Normal termination of Gaussian 16 at Tue Feb 11 13:58:57 2020.

 ---------------------------------------------------------------------
 #t pop=none jul-cc-pvdz guess=read upbe1pbe empiricaldispersion=gd3bj
 ---------------------------------------------------------------------
 -----------------------------
 theory_abbreviation pbe0_d3bj
 -----------------------------
 Symbolic Z-matrix:
 Charge =  0 Multiplicity = 6

 SCF Done:  E(UPBE1PBE) =  -3033.15965208     A.U. after    1 cycles
 Normal termination of Gaussian 16 at Tue Feb 11 14:00:08 2020.

 -----------------------------------------
 #t pop=none jul-cc-pvdz guess=read ub3lyp
 -----------------------------------------
 -------------------------
 theory_abbreviation b3lyp
 -------------------------
 Symbolic Z-matrix:
 Charge =  0 Multiplicity = 6

 SCF Done:  E(UB3LYP) =  -3034.33782394     A.U. after   13 cycles
 Normal termination of Gaussian 16 at Tue Feb 11 14:14:01 2020.

 -------------------------------------------------------------------
 #t pop=none jul-cc-pvdz guess=read ub3lyp empiricaldispersion=gd3bj
 -------------------------------------------------------------------
 ------------------------------
 theory_abbreviation b3lyp_d3bj
 ------------------------------
 Symbolic Z-matrix:
 Charge =  0 Multiplicity = 6

 SCF Done:  E(UB3LYP) =  -3034.40784249     A.U. after    1 cycles
 Normal termination of Gaussian 16 at Tue Feb 11 14:15:12 2020.

 ----------------------------------------
 #t pop=none jul-cc-pvdz guess=read ub97d
 ----------------------------------------
 ------------------------
 theory_abbreviation b97d
 ------------------------
 Symbolic Z-matrix:
 Charge =  0 Multiplicity = 6

 SCF Done:  E(UB97D) =  -3034.59162406     A.U. after   15 cycles

 ----------------------------------------------------------------
 #t pop=none jul-cc-pvdz guess=read ub97d empiricaldispersion=gd3
 ----------------------------------------------------------------
 -------------------------
 theory_abbreviation b97d3
 -------------------------
 Symbolic Z-matrix:
 Charge =  0 Multiplicity = 6

 SCF Done:  E(UB97D) =  -3034.59278903     A.U. after    1 cycles
 SCF Done:  E(UBHandHLYP) =  -3033.97881073     A.U. after   18 cycles
 SCF Done:  E(UBHandH) =  -3026.32175633     A.U. after   16 cycles
 SCF Done:  E(ULC-wPBE) =  -3033.46228586     A.U. after   19 cycles
 SCF Done:  E(UB-P86) =  -3034.64275663     A.U. after   17 cycles
 SCF Done:  E(UmPW1LYP) =  -3034.05597273     A.U. after   14 cycles
 SCF Done:  E(UmPW1PBE) =  -3033.89643235     A.U. after   14 cycles
 SCF Done:  E(UmPW3PBE) =  -3033.66930172     A.U. after   13 cycles
 SCF Done:  E(UM11) =  -3033.82000641     A.U. after   19 cycles
 SCF Done:  E(UN12SX) =  -3033.26110698     A.U. after   17 cycles
 SCF Done:  E(UMN12SX) =  -3033.66173963     A.U. after   16 cycles
 SCF Done:  E(UB1B95) =  -3034.39185996     A.U. after   14 cycles
 Normal termination of Gaussian 16 at Tue Feb 11 22:57:22 2020.
 SCF Done:  E(UB3PW91) =  -3033.98501645     A.U. after   15 cycles
 Normal termination of Gaussian 16 at Tue Feb 11 23:13:11 2020.
 SCF Done:  E(UM06L) =  -3034.20643759     A.U. after   17 cycles
 Normal termination of Gaussian 16 at Tue Feb 11 23:32:04 2020.
 Gaussian 16:  ES64L-G16RevA.03 25-Dec-2016

                         Standard orientation:
 ---------------------------------------------------------------------
 Center     Atomic      Atomic             Coordinates (Angstroms)
 Number     Number       Type             X           Y           Z
 ---------------------------------------------------------------------
      1          8           0       -0.279448   -0.232925   -0.797750
      2          6           0       -1.138760   -1.160662   -0.637523
      3          6           0       -2.905722   -0.202943    0.480790
      4          6           0       -2.544746    0.963269   -0.119457
      5          6           0       -3.033581    1.338367   -1.485808
      6         26           0        1.443975    0.130239    0.000898
      7         17           0        2.048658    2.038698   -0.871280
      8          6           0       -1.639220    1.970056    0.512145
      9         17           0        2.629870   -1.612842   -0.598007
     10         17           0        1.158225    0.222117    2.186933
     11          1           0       -3.650395   -0.809786   -0.031381
     12          1           0       -2.200875    2.897669    0.688321
     13          1           0       -1.207260    1.645712    1.457432
     14          1           0       -0.823482    2.228977   -0.173966
     15          1           0       -3.516814    2.322597   -1.440760
     16          1           0       -2.187661    1.442185   -2.178150
     17          1           0       -3.753784    0.624604   -1.892159
     18          6           0       -2.743270   -0.489292    1.954806
     19          1           0       -3.519643    0.045175    2.517500
     20          1           0       -2.868343   -1.552822    2.171859
     21          1           0       -1.775108   -0.174095    2.350441
     22          6           0       -0.892200   -2.219774    0.403146
     23          1           0       -1.764297   -2.854050    0.567255
     24          1           0       -0.082552   -2.841010   -0.006872
     25          1           0       -0.534788   -1.803454    1.344110
     26          6           0       -1.870875   -1.610840   -1.877536
     27          1           0       -1.178127   -2.291427   -2.391959
     28          1           0       -2.783705   -2.164879   -1.653190
     29          1           0       -2.075500   -0.782836   -2.553197
 ---------------------------------------------------------------------

 SCF Done:  E(UB97D3) =  -3034.62809484     A.U. after   16 cycles
 Normal termination of Gaussian 16 at Tue Feb 11 23:44:51 2020.
