 Gaussian 16, Revision A.03,

 --------------------------------
 #t pop=none jul-cc-pvdz upbe1pbe
 --------------------------------
 ------------------------
 theory_abbreviation pbe0
 ------------------------
 Symbolic Z-matrix:
 Charge =  0 Multiplicity = 6

 SCF Done:  E(UPBE1PBE) =  -3033.11941025     A.U. after   21 cycles
 Normal termination of Gaussian 16 at Tue Feb 11 23:38:45 2020.

 ---------------------------------------------------------------------
 #t pop=none jul-cc-pvdz guess=read upbe1pbe empiricaldispersion=gd3bj
 ---------------------------------------------------------------------
 -----------------------------
 theory_abbreviation pbe0_d3bj
 -----------------------------
 Symbolic Z-matrix:
 Charge =  0 Multiplicity = 6

 SCF Done:  E(UPBE1PBE) =  -3033.15621565     A.U. after    1 cycles
 Normal termination of Gaussian 16 at Tue Feb 11 23:39:51 2020.

 -----------------------------------------
 #t pop=none jul-cc-pvdz guess=read ub3lyp
 -----------------------------------------
 -------------------------
 theory_abbreviation b3lyp
 -------------------------
 Symbolic Z-matrix:
 Charge =  0 Multiplicity = 6

 SCF Done:  E(UB3LYP) =  -3034.33508361     A.U. after   14 cycles
 Normal termination of Gaussian 16 at Tue Feb 11 23:53:34 2020.

 -------------------------------------------------------------------
 #t pop=none jul-cc-pvdz guess=read ub3lyp empiricaldispersion=gd3bj
 -------------------------------------------------------------------
 ------------------------------
 theory_abbreviation b3lyp_d3bj
 ------------------------------
 Symbolic Z-matrix:
 Charge =  0 Multiplicity = 6

 SCF Done:  E(UB3LYP) =  -3034.40362337     A.U. after    1 cycles
 Normal termination of Gaussian 16 at Tue Feb 11 23:54:39 2020.

 ----------------------------------------
 #t pop=none jul-cc-pvdz guess=read ub97d
 ----------------------------------------
 ------------------------
 theory_abbreviation b97d
 ------------------------
 Symbolic Z-matrix:
 Charge =  0 Multiplicity = 6

 SCF Done:  E(UB97D) =  -3034.58790960     A.U. after   16 cycles

 ----------------------------------------------------------------
 #t pop=none jul-cc-pvdz guess=read ub97d empiricaldispersion=gd3
 ----------------------------------------------------------------
 -------------------------
 theory_abbreviation b97d3
 -------------------------
 Symbolic Z-matrix:
 Charge =  0 Multiplicity = 6

 SCF Done:  E(UB97D) =  -3034.58922945     A.U. after    1 cycles
 SCF Done:  E(UBHandHLYP) =  -3033.97469044     A.U. after   18 cycles
 SCF Done:  E(UBHandH) =  -3026.31783859     A.U. after   16 cycles
 SCF Done:  E(ULC-wPBE) =  -3033.45759409     A.U. after   19 cycles
 SCF Done:  E(UB-P86) =  -3034.63961199     A.U. after   17 cycles
 SCF Done:  E(UmPW1LYP) =  -3034.05289305     A.U. after   16 cycles
 SCF Done:  E(UmPW1PBE) =  -3033.89396967     A.U. after   16 cycles
 SCF Done:  E(UmPW3PBE) =  -3033.66695156     A.U. after   12 cycles
 SCF Done:  E(UM11) =  -3033.81548892     A.U. after   19 cycles
 SCF Done:  E(UN12SX) =  -3033.25850390     A.U. after   17 cycles
 SCF Done:  E(UMN12SX) =  -3033.65642582     A.U. after   17 cycles
 SCF Done:  E(UB1B95) =  -3034.38779202     A.U. after   15 cycles
 Normal termination of Gaussian 16 at Wed Feb 12 08:12:32 2020.
 SCF Done:  E(UB3PW91) =  -3033.98270203     A.U. after   15 cycles
 Normal termination of Gaussian 16 at Wed Feb 12 08:27:12 2020.
 SCF Done:  E(UM06L) =  -3034.20066843     A.U. after   18 cycles
 Normal termination of Gaussian 16 at Wed Feb 12 08:46:22 2020.
 Gaussian 16:  ES64L-G16RevA.03 25-Dec-2016

                         Standard orientation:
 ---------------------------------------------------------------------
 Center     Atomic      Atomic             Coordinates (Angstroms)
 Number     Number       Type             X           Y           Z
 ---------------------------------------------------------------------
      1          8           0       -0.300610   -0.218809   -0.617041
      2          6           0       -1.146459   -1.168816   -0.441117
      3          6           0       -2.738941   -0.322853    0.729718
      4          6           0       -2.850639    0.794060   -0.058987
      5          6           0       -3.759396    0.837817   -1.247529
      6         26           0        1.492223    0.173243   -0.059656
      7         17           0        1.884361    2.116503   -0.986278
      8          6           0       -2.021473    2.007213    0.173872
      9         17           0        2.639164   -1.525443   -0.840065
     10         17           0        1.522496    0.265387    2.141697
     11          1           0       -3.443877   -1.128202    0.527218
     12          1           0       -2.494033    2.906753   -0.230582
     13          1           0       -1.767397    2.164877    1.223614
     14          1           0       -1.072351    1.866041   -0.369750
     15          1           0       -4.532262    1.597668   -1.068112
     16          1           0       -3.220035    1.158077   -2.148387
     17          1           0       -4.258320   -0.114148   -1.439714
     18          6           0       -2.199376   -0.256839    2.143551
     19          1           0       -2.838148    0.396105    2.750752
     20          1           0       -2.203841   -1.241897    2.613773
     21          1           0       -1.181411    0.136148    2.193195
     22          6           0       -0.784177   -2.267196    0.536347
     23          1           0       -1.633100   -2.908259    0.782381
     24          1           0       -0.027799   -2.874136    0.019789
     25          1           0       -0.323155   -1.877372    1.442923
     26          6           0       -1.861583   -1.636810   -1.690553
     27          1           0       -1.157410   -2.300201   -2.209482
     28          1           0       -2.767027   -2.207414   -1.472946
     29          1           0       -2.082849   -0.806917   -2.360126
 ---------------------------------------------------------------------

 SCF Done:  E(UB97D3) =  -3034.62442628     A.U. after   15 cycles
 Normal termination of Gaussian 16 at Wed Feb 12 08:58:03 2020.
