 Gaussian 16, Revision A.03,

 --------------------------------
 #t pop=none jul-cc-pvdz upbe1pbe
 --------------------------------
 ------------------------
 theory_abbreviation pbe0
 ------------------------
 Symbolic Z-matrix:
 Charge =  0 Multiplicity = 6

 SCF Done:  E(UPBE1PBE) =  -3033.12831869     A.U. after   21 cycles
 Normal termination of Gaussian 16 at Tue Feb 11 23:38:03 2020.

 ---------------------------------------------------------------------
 #t pop=none jul-cc-pvdz guess=read upbe1pbe empiricaldispersion=gd3bj
 ---------------------------------------------------------------------
 -----------------------------
 theory_abbreviation pbe0_d3bj
 -----------------------------
 Symbolic Z-matrix:
 Charge =  0 Multiplicity = 6

 SCF Done:  E(UPBE1PBE) =  -3033.16552113     A.U. after    1 cycles
 Normal termination of Gaussian 16 at Tue Feb 11 23:39:09 2020.

 -----------------------------------------
 #t pop=none jul-cc-pvdz guess=read ub3lyp
 -----------------------------------------
 -------------------------
 theory_abbreviation b3lyp
 -------------------------
 Symbolic Z-matrix:
 Charge =  0 Multiplicity = 6

 SCF Done:  E(UB3LYP) =  -3034.34519261     A.U. after   13 cycles
 Normal termination of Gaussian 16 at Tue Feb 11 23:51:46 2020.

 -------------------------------------------------------------------
 #t pop=none jul-cc-pvdz guess=read ub3lyp empiricaldispersion=gd3bj
 -------------------------------------------------------------------
 ------------------------------
 theory_abbreviation b3lyp_d3bj
 ------------------------------
 Symbolic Z-matrix:
 Charge =  0 Multiplicity = 6

 SCF Done:  E(UB3LYP) =  -3034.41433453     A.U. after    1 cycles
 Normal termination of Gaussian 16 at Tue Feb 11 23:52:51 2020.

 ----------------------------------------
 #t pop=none jul-cc-pvdz guess=read ub97d
 ----------------------------------------
 ------------------------
 theory_abbreviation b97d
 ------------------------
 Symbolic Z-matrix:
 Charge =  0 Multiplicity = 6

 SCF Done:  E(UB97D) =  -3034.59807679     A.U. after   15 cycles

 ----------------------------------------------------------------
 #t pop=none jul-cc-pvdz guess=read ub97d empiricaldispersion=gd3
 ----------------------------------------------------------------
 -------------------------
 theory_abbreviation b97d3
 -------------------------
 Symbolic Z-matrix:
 Charge =  0 Multiplicity = 6

 SCF Done:  E(UB97D) =  -3034.59931702     A.U. after    1 cycles
 SCF Done:  E(UBHandHLYP) =  -3033.98639854     A.U. after   18 cycles
 SCF Done:  E(UBHandH) =  -3026.32679976     A.U. after   14 cycles
 SCF Done:  E(ULC-wPBE) =  -3033.46886734     A.U. after   19 cycles
 SCF Done:  E(UB-P86) =  -3034.64820950     A.U. after   16 cycles
 SCF Done:  E(UmPW1LYP) =  -3034.06341677     A.U. after   13 cycles
 SCF Done:  E(UmPW1PBE) =  -3033.90272325     A.U. after   14 cycles
 SCF Done:  E(UmPW3PBE) =  -3033.67567193     A.U. after   13 cycles
 SCF Done:  E(UM11) =  -3033.82642557     A.U. after   17 cycles
 SCF Done:  E(UN12SX) =  -3033.26720060     A.U. after   17 cycles
 SCF Done:  E(UMN12SX) =  -3033.66869386     A.U. after   16 cycles
 SCF Done:  E(UB1B95) =  -3034.39845365     A.U. after   14 cycles
 Normal termination of Gaussian 16 at Wed Feb 12 07:45:41 2020.
 SCF Done:  E(UB3PW91) =  -3033.99157824     A.U. after   13 cycles
 Normal termination of Gaussian 16 at Wed Feb 12 07:58:17 2020.
 SCF Done:  E(UM06L) =  -3034.21377482     A.U. after   17 cycles
 Normal termination of Gaussian 16 at Wed Feb 12 08:16:18 2020.
 Gaussian 16:  ES64L-G16RevA.03 25-Dec-2016

                         Standard orientation:
 ---------------------------------------------------------------------
 Center     Atomic      Atomic             Coordinates (Angstroms)
 Number     Number       Type             X           Y           Z
 ---------------------------------------------------------------------
      1          8           0       -0.246062   -0.292019   -0.833979
      2          6           0       -1.079138   -1.226776   -0.657348
      3          6           0       -2.956944   -0.178315    0.516144
      4          6           0       -2.595599    0.953831   -0.134010
      5          6           0       -3.097320    1.269610   -1.513436
      6         26           0        1.460997    0.143668    0.003878
      7         17           0        2.057491    2.020521   -0.929321
      8          6           0       -1.682059    1.989522    0.443539
      9         17           0        2.668371   -1.608406   -0.513729
     10         17           0        1.127886    0.303792    2.173558
     11          1           0       -3.687100   -0.820156    0.024859
     12          1           0       -2.220849    2.941496    0.541425
     13          1           0       -1.274255    1.724614    1.418054
     14          1           0       -0.845941    2.180248   -0.241385
     15          1           0       -3.608909    2.240600   -1.505170
     16          1           0       -2.259374    1.369539   -2.216255
     17          1           0       -3.799540    0.521728   -1.890356
     18          6           0       -2.753118   -0.440282    1.987815
     19          1           0       -3.532206    0.075291    2.564910
     20          1           0       -2.839840   -1.504594    2.221883
     21          1           0       -1.786379   -0.090270    2.357258
     22          6           0       -0.863747   -2.228167    0.439490
     23          1           0       -1.745107   -2.845115    0.617792
     24          1           0       -0.050022   -2.877714    0.083853
     25          1           0       -0.523933   -1.761965    1.363730
     26          6           0       -1.858219   -1.682650   -1.860447
     27          1           0       -1.208203   -2.406584   -2.372871
     28          1           0       -2.784403   -2.193754   -1.594513
     29          1           0       -2.048224   -0.863651   -2.551333
 ---------------------------------------------------------------------

 SCF Done:  E(UB97D3) =  -3034.63436779     A.U. after   16 cycles
 Normal termination of Gaussian 16 at Wed Feb 12 08:28:43 2020.
