 Gaussian 16, Revision A.03,

 --------------------------------
 #t pop=none jul-cc-pvdz upbe1pbe
 --------------------------------
 ------------------------
 theory_abbreviation pbe0
 ------------------------
 Symbolic Z-matrix:
 Charge =  0 Multiplicity = 6

 SCF Done:  E(UPBE1PBE) =  -3033.12760180     A.U. after   21 cycles
 Normal termination of Gaussian 16 at Tue Feb 11 13:59:52 2020.

 ---------------------------------------------------------------------
 #t pop=none jul-cc-pvdz guess=read upbe1pbe empiricaldispersion=gd3bj
 ---------------------------------------------------------------------
 -----------------------------
 theory_abbreviation pbe0_d3bj
 -----------------------------
 Symbolic Z-matrix:
 Charge =  0 Multiplicity = 6

 SCF Done:  E(UPBE1PBE) =  -3033.16459488     A.U. after    1 cycles
 Normal termination of Gaussian 16 at Tue Feb 11 14:01:03 2020.

 -----------------------------------------
 #t pop=none jul-cc-pvdz guess=read ub3lyp
 -----------------------------------------
 -------------------------
 theory_abbreviation b3lyp
 -------------------------
 Symbolic Z-matrix:
 Charge =  0 Multiplicity = 6

 SCF Done:  E(UB3LYP) =  -3034.34464681     A.U. after   13 cycles
 Normal termination of Gaussian 16 at Tue Feb 11 14:14:48 2020.

 -------------------------------------------------------------------
 #t pop=none jul-cc-pvdz guess=read ub3lyp empiricaldispersion=gd3bj
 -------------------------------------------------------------------
 ------------------------------
 theory_abbreviation b3lyp_d3bj
 ------------------------------
 Symbolic Z-matrix:
 Charge =  0 Multiplicity = 6

 SCF Done:  E(UB3LYP) =  -3034.41337945     A.U. after    1 cycles
 Normal termination of Gaussian 16 at Tue Feb 11 14:15:59 2020.

 ----------------------------------------
 #t pop=none jul-cc-pvdz guess=read ub97d
 ----------------------------------------
 ------------------------
 theory_abbreviation b97d
 ------------------------
 Symbolic Z-matrix:
 Charge =  0 Multiplicity = 6

 SCF Done:  E(UB97D) =  -3034.59748082     A.U. after   15 cycles

 ----------------------------------------------------------------
 #t pop=none jul-cc-pvdz guess=read ub97d empiricaldispersion=gd3
 ----------------------------------------------------------------
 -------------------------
 theory_abbreviation b97d3
 -------------------------
 Symbolic Z-matrix:
 Charge =  0 Multiplicity = 6

 SCF Done:  E(UB97D) =  -3034.59851447     A.U. after    1 cycles
 SCF Done:  E(UBHandHLYP) =  -3033.98534885     A.U. after   18 cycles
 SCF Done:  E(UBHandH) =  -3026.32539639     A.U. after   15 cycles
 SCF Done:  E(ULC-wPBE) =  -3033.46737810     A.U. after   19 cycles
 SCF Done:  E(UB-P86) =  -3034.64749372     A.U. after   16 cycles
 SCF Done:  E(UmPW1LYP) =  -3034.06277673     A.U. after   14 cycles
 SCF Done:  E(UmPW1PBE) =  -3033.90205956     A.U. after   14 cycles
 SCF Done:  E(UmPW3PBE) =  -3033.67507326     A.U. after   13 cycles
 SCF Done:  E(UM11) =  -3033.82491992     A.U. after   17 cycles
 SCF Done:  E(UN12SX) =  -3033.26646110     A.U. after   17 cycles
 SCF Done:  E(UMN12SX) =  -3033.66728924     A.U. after   16 cycles
 SCF Done:  E(UB1B95) =  -3034.39735205     A.U. after   14 cycles
 Normal termination of Gaussian 16 at Tue Feb 11 22:53:29 2020.
 SCF Done:  E(UB3PW91) =  -3033.99101052     A.U. after   13 cycles
 Normal termination of Gaussian 16 at Tue Feb 11 23:07:06 2020.
 SCF Done:  E(UM06L) =  -3034.21237141     A.U. after   17 cycles
 Normal termination of Gaussian 16 at Tue Feb 11 23:25:56 2020.
 Gaussian 16:  ES64L-G16RevA.03 25-Dec-2016

                         Standard orientation:
 ---------------------------------------------------------------------
 Center     Atomic      Atomic             Coordinates (Angstroms)
 Number     Number       Type             X           Y           Z
 ---------------------------------------------------------------------
      1          8           0       -0.224247   -0.310331   -0.830959
      2          6           0       -1.075243   -1.230907   -0.647050
      3          6           0       -2.891525   -0.251752    0.578666
      4          6           0       -2.689735    0.912397   -0.090189
      5          6           0       -3.331366    1.182270   -1.419996
      6         26           0        1.477288    0.158562   -0.013625
      7         17           0        2.024939    2.039774   -0.970350
      8          6           0       -1.782321    1.996335    0.399827
      9         17           0        2.718283   -1.573991   -0.514624
     10         17           0        1.150688    0.349622    2.154287
     11          1           0       -3.614776   -0.944943    0.151043
     12          1           0       -2.314089    2.955928    0.422296
     13          1           0       -1.362146    1.806048    1.386772
     14          1           0       -0.949587    2.122837   -0.306386
     15          1           0       -3.938948    2.094186   -1.355002
     16          1           0       -2.571140    1.374469   -2.189140
     17          1           0       -3.980561    0.367347   -1.749538
     18          6           0       -2.577326   -0.468251    2.040312
     19          1           0       -3.320909    0.055878    2.654731
     20          1           0       -2.634082   -1.525764    2.308969
     21          1           0       -1.591839   -0.098053    2.330454
     22          6           0       -0.824661   -2.268513    0.410979
     23          1           0       -1.703076   -2.883261    0.610669
     24          1           0       -0.033987   -2.913131   -0.000420
     25          1           0       -0.439507   -1.833886    1.332877
     26          6           0       -1.871560   -1.657904   -1.851701
     27          1           0       -1.227518   -2.363756   -2.395254
     28          1           0       -2.793148   -2.178503   -1.588214
     29          1           0       -2.074265   -0.819298   -2.515371
 ---------------------------------------------------------------------

 SCF Done:  E(UB97D3) =  -3034.63372039     A.U. after   16 cycles
 Normal termination of Gaussian 16 at Tue Feb 11 23:38:29 2020.
