 Gaussian 16, Revision A.03,

 --------------------------------
 #t pop=none jul-cc-pvdz upbe1pbe
 --------------------------------
 ------------------------
 theory_abbreviation pbe0
 ------------------------
 Symbolic Z-matrix:
 Charge =  0 Multiplicity = 6

 SCF Done:  E(UPBE1PBE) =  -3033.12534441     A.U. after   21 cycles
 Normal termination of Gaussian 16 at Tue Feb 11 14:00:04 2020.

 ---------------------------------------------------------------------
 #t pop=none jul-cc-pvdz guess=read upbe1pbe empiricaldispersion=gd3bj
 ---------------------------------------------------------------------
 -----------------------------
 theory_abbreviation pbe0_d3bj
 -----------------------------
 Symbolic Z-matrix:
 Charge =  0 Multiplicity = 6

 SCF Done:  E(UPBE1PBE) =  -3033.16274533     A.U. after    1 cycles
 Normal termination of Gaussian 16 at Tue Feb 11 14:01:15 2020.

 -----------------------------------------
 #t pop=none jul-cc-pvdz guess=read ub3lyp
 -----------------------------------------
 -------------------------
 theory_abbreviation b3lyp
 -------------------------
 Symbolic Z-matrix:
 Charge =  0 Multiplicity = 6

 SCF Done:  E(UB3LYP) =  -3034.34179505     A.U. after   13 cycles
 Normal termination of Gaussian 16 at Tue Feb 11 14:15:04 2020.

 -------------------------------------------------------------------
 #t pop=none jul-cc-pvdz guess=read ub3lyp empiricaldispersion=gd3bj
 -------------------------------------------------------------------
 ------------------------------
 theory_abbreviation b3lyp_d3bj
 ------------------------------
 Symbolic Z-matrix:
 Charge =  0 Multiplicity = 6

 SCF Done:  E(UB3LYP) =  -3034.41134716     A.U. after    1 cycles
 Normal termination of Gaussian 16 at Tue Feb 11 14:16:15 2020.

 ----------------------------------------
 #t pop=none jul-cc-pvdz guess=read ub97d
 ----------------------------------------
 ------------------------
 theory_abbreviation b97d
 ------------------------
 Symbolic Z-matrix:
 Charge =  0 Multiplicity = 6

 SCF Done:  E(UB97D) =  -3034.59467046     A.U. after   15 cycles

 ----------------------------------------------------------------
 #t pop=none jul-cc-pvdz guess=read ub97d empiricaldispersion=gd3
 ----------------------------------------------------------------
 -------------------------
 theory_abbreviation b97d3
 -------------------------
 Symbolic Z-matrix:
 Charge =  0 Multiplicity = 6

 SCF Done:  E(UB97D) =  -3034.59612674     A.U. after    1 cycles
 SCF Done:  E(UBHandHLYP) =  -3033.98330425     A.U. after   18 cycles
 SCF Done:  E(UBHandH) =  -3026.32463420     A.U. after   14 cycles
 SCF Done:  E(ULC-wPBE) =  -3033.46623436     A.U. after   19 cycles
 SCF Done:  E(UB-P86) =  -3034.64539602     A.U. after   16 cycles
 SCF Done:  E(UmPW1LYP) =  -3034.06002994     A.U. after   13 cycles
 SCF Done:  E(UmPW1PBE) =  -3033.89976340     A.U. after   13 cycles
 SCF Done:  E(UmPW3PBE) =  -3033.67263348     A.U. after   13 cycles
 SCF Done:  E(UM11) =  -3033.82350714     A.U. after   16 cycles
 SCF Done:  E(UN12SX) =  -3033.26421383     A.U. after   17 cycles
 SCF Done:  E(UMN12SX) =  -3033.66568534     A.U. after   16 cycles
 SCF Done:  E(UB1B95) =  -3034.39560176     A.U. after   14 cycles
 Normal termination of Gaussian 16 at Tue Feb 11 22:39:50 2020.
 SCF Done:  E(UB3PW91) =  -3033.98848410     A.U. after   13 cycles
 Normal termination of Gaussian 16 at Tue Feb 11 22:54:27 2020.
 SCF Done:  E(UM06L) =  -3034.21081967     A.U. after   17 cycles
 Normal termination of Gaussian 16 at Tue Feb 11 23:13:21 2020.
 Gaussian 16:  ES64L-G16RevA.03 25-Dec-2016

                         Standard orientation:
 ---------------------------------------------------------------------
 Center     Atomic      Atomic             Coordinates (Angstroms)
 Number     Number       Type             X           Y           Z
 ---------------------------------------------------------------------
      1          8           0       -0.279267   -0.233194   -0.787367
      2          6           0       -1.110416   -1.176791   -0.644619
      3          6           0       -3.063422   -0.090494    0.359486
      4          6           0       -2.482055    1.007102   -0.179591
      5          6           0       -2.748323    1.431593   -1.594090
      6         26           0        1.454341    0.116241    0.031291
      7         17           0        2.095649    2.002581   -0.853979
      8          6           0       -1.588193    1.935552    0.583379
      9         17           0        2.584527   -1.660159   -0.578627
     10         17           0        1.186495    0.201720    2.214157
     11          1           0       -3.774825   -0.632628   -0.261729
     12          1           0       -2.145280    2.854736    0.812858
     13          1           0       -1.219450    1.523467    1.521913
     14          1           0       -0.730249    2.238367   -0.026836
     15          1           0       -3.116797    2.465264   -1.601744
     16          1           0       -1.816636    1.430767   -2.174287
     17          1           0       -3.491670    0.804572   -2.093126
     18          6           0       -3.091225   -0.439820    1.824794
     19          1           0       -3.941927    0.059975    2.307359
     20          1           0       -3.226660   -1.513753    1.982335
     21          1           0       -2.188200   -0.130025    2.356502
     22          6           0       -0.954381   -2.151650    0.484186
     23          1           0       -1.836664   -2.778322    0.616697
     24          1           0       -0.109925   -2.796788    0.198220
     25          1           0       -0.682536   -1.659919    1.417873
     26          6           0       -1.821605   -1.659123   -1.878166
     27          1           0       -1.124285   -2.360808   -2.358917
     28          1           0       -2.740381   -2.200612   -1.649262
     29          1           0       -2.008935   -0.849617   -2.581133
 ---------------------------------------------------------------------

 SCF Done:  E(UB97D3) =  -3034.63127610     A.U. after   17 cycles
 Normal termination of Gaussian 16 at Tue Feb 11 23:26:56 2020.
