 Gaussian 16, Revision A.03,

 --------------------------------
 #t pop=none jul-cc-pvdz upbe1pbe
 --------------------------------
 ------------------------
 theory_abbreviation pbe0
 ------------------------
 Symbolic Z-matrix:
 Charge =  0 Multiplicity = 6

 SCF Done:  E(UPBE1PBE) =  -3033.11264176     A.U. after   21 cycles
 Normal termination of Gaussian 16 at Tue Feb 11 13:59:24 2020.

 ---------------------------------------------------------------------
 #t pop=none jul-cc-pvdz guess=read upbe1pbe empiricaldispersion=gd3bj
 ---------------------------------------------------------------------
 -----------------------------
 theory_abbreviation pbe0_d3bj
 -----------------------------
 Symbolic Z-matrix:
 Charge =  0 Multiplicity = 6

 SCF Done:  E(UPBE1PBE) =  -3033.14885232     A.U. after    1 cycles
 Normal termination of Gaussian 16 at Tue Feb 11 14:00:37 2020.

 -----------------------------------------
 #t pop=none jul-cc-pvdz guess=read ub3lyp
 -----------------------------------------
 -------------------------
 theory_abbreviation b3lyp
 -------------------------
 Symbolic Z-matrix:
 Charge =  0 Multiplicity = 6

 SCF Done:  E(UB3LYP) =  -3034.32587396     A.U. after   13 cycles
 Normal termination of Gaussian 16 at Tue Feb 11 14:14:34 2020.

 -------------------------------------------------------------------
 #t pop=none jul-cc-pvdz guess=read ub3lyp empiricaldispersion=gd3bj
 -------------------------------------------------------------------
 ------------------------------
 theory_abbreviation b3lyp_d3bj
 ------------------------------
 Symbolic Z-matrix:
 Charge =  0 Multiplicity = 6

 SCF Done:  E(UB3LYP) =  -3034.39339414     A.U. after    1 cycles
 Normal termination of Gaussian 16 at Tue Feb 11 14:15:45 2020.

 ----------------------------------------
 #t pop=none jul-cc-pvdz guess=read ub97d
 ----------------------------------------
 ------------------------
 theory_abbreviation b97d
 ------------------------
 Symbolic Z-matrix:
 Charge =  0 Multiplicity = 6

 SCF Done:  E(UB97D) =  -3034.57818661     A.U. after   17 cycles

 ----------------------------------------------------------------
 #t pop=none jul-cc-pvdz guess=read ub97d empiricaldispersion=gd3
 ----------------------------------------------------------------
 -------------------------
 theory_abbreviation b97d3
 -------------------------
 Symbolic Z-matrix:
 Charge =  0 Multiplicity = 6

 SCF Done:  E(UB97D) =  -3034.57858561     A.U. after    1 cycles
 SCF Done:  E(UBHandHLYP) =  -3033.96631181     A.U. after   17 cycles
 SCF Done:  E(UBHandH) =  -3026.31371881     A.U. after   16 cycles
 SCF Done:  E(ULC-wPBE) =  -3033.45100579     A.U. after   18 cycles
 SCF Done:  E(UB-P86) =  -3034.63098599     A.U. after   17 cycles
 SCF Done:  E(UmPW1LYP) =  -3034.04364966     A.U. after   15 cycles
 SCF Done:  E(UmPW1PBE) =  -3033.88712006     A.U. after   16 cycles
 SCF Done:  E(UmPW3PBE) =  -3033.65975486     A.U. after   15 cycles
 SCF Done:  E(UM11) =  -3033.80828618     A.U. after   19 cycles
 SCF Done:  E(UN12SX) =  -3033.25228395     A.U. after   17 cycles
 SCF Done:  E(UMN12SX) =  -3033.64813812     A.U. after   17 cycles
 SCF Done:  E(UB1B95) =  -3034.37992267     A.U. after   16 cycles
 Normal termination of Gaussian 16 at Tue Feb 11 23:14:44 2020.
 SCF Done:  E(UB3PW91) =  -3033.97520503     A.U. after   15 cycles
 Normal termination of Gaussian 16 at Tue Feb 11 23:30:03 2020.
 SCF Done:  E(UM06L) =  -3034.19195007     A.U. after   16 cycles
 Normal termination of Gaussian 16 at Tue Feb 11 23:47:40 2020.
 Gaussian 16:  ES64L-G16RevA.03 25-Dec-2016

                         Standard orientation:
 ---------------------------------------------------------------------
 Center     Atomic      Atomic             Coordinates (Angstroms)
 Number     Number       Type             X           Y           Z
 ---------------------------------------------------------------------
      1          8           0       -0.343028   -0.130269   -0.479922
      2          6           0       -1.208130   -1.107461   -0.321130
      3          6           0       -2.622195   -0.380884    0.719308
      4          6           0       -2.859904    0.752653   -0.060641
      5          6           0       -3.837877    0.735418   -1.185239
      6         26           0        1.475898    0.172156   -0.075325
      7         17           0        1.793063    2.195453   -0.877198
      8          6           0       -2.091056    1.992143    0.137324
      9         17           0        2.561927   -1.458508   -1.072152
     10         17           0        1.687833    0.110984    2.125706
     11          1           0       -3.357074   -1.176198    0.591664
     12          1           0       -2.504652    2.843728   -0.406495
     13          1           0       -1.936319    2.241527    1.190023
     14          1           0       -1.084108    1.772323   -0.270936
     15          1           0       -4.650865    1.431469   -0.931852
     16          1           0       -3.385679    1.122552   -2.107119
     17          1           0       -4.272134   -0.248504   -1.367463
     18          6           0       -2.097239   -0.209732    2.137666
     19          1           0       -2.756222    0.461389    2.699925
     20          1           0       -2.078847   -1.166584    2.661443
     21          1           0       -1.087038    0.205795    2.158294
     22          6           0       -0.754234   -2.259349    0.573733
     23          1           0       -1.569226   -2.950131    0.805314
     24          1           0        0.009863   -2.799235    0.001152
     25          1           0       -0.286283   -1.906359    1.491783
     26          6           0       -1.803757   -1.601171   -1.634520
     27          1           0       -1.023837   -2.193908   -2.125538
     28          1           0       -2.678599   -2.241024   -1.487334
     29          1           0       -2.049729   -0.775235   -2.302087
 ---------------------------------------------------------------------

 SCF Done:  E(UB97D3) =  -3034.61278960     A.U. after   16 cycles
 Normal termination of Gaussian 16 at Wed Feb 12 00:01:16 2020.
