 Gaussian 16, Revision A.03,

 --------------------------------
 #t pop=none jul-cc-pvdz upbe1pbe
 --------------------------------
 ------------------------
 theory_abbreviation pbe0
 ------------------------
 Symbolic Z-matrix:
 Charge =  0 Multiplicity = 6

 SCF Done:  E(UPBE1PBE) =  -3033.11046959     A.U. after   21 cycles
 Normal termination of Gaussian 16 at Tue Feb 11 23:50:39 2020.

 ---------------------------------------------------------------------
 #t pop=none jul-cc-pvdz guess=read upbe1pbe empiricaldispersion=gd3bj
 ---------------------------------------------------------------------
 -----------------------------
 theory_abbreviation pbe0_d3bj
 -----------------------------
 Symbolic Z-matrix:
 Charge =  0 Multiplicity = 6

 SCF Done:  E(UPBE1PBE) =  -3033.14768008     A.U. after    1 cycles
 Normal termination of Gaussian 16 at Tue Feb 11 23:51:49 2020.

 -----------------------------------------
 #t pop=none jul-cc-pvdz guess=read ub3lyp
 -----------------------------------------
 -------------------------
 theory_abbreviation b3lyp
 -------------------------
 Symbolic Z-matrix:
 Charge =  0 Multiplicity = 6

 SCF Done:  E(UB3LYP) =  -3034.32403489     A.U. after   13 cycles
 Normal termination of Gaussian 16 at Wed Feb 12 00:06:17 2020.

 -------------------------------------------------------------------
 #t pop=none jul-cc-pvdz guess=read ub3lyp empiricaldispersion=gd3bj
 -------------------------------------------------------------------
 ------------------------------
 theory_abbreviation b3lyp_d3bj
 ------------------------------
 Symbolic Z-matrix:
 Charge =  0 Multiplicity = 6

 SCF Done:  E(UB3LYP) =  -3034.39341236     A.U. after    1 cycles
 Normal termination of Gaussian 16 at Wed Feb 12 00:07:31 2020.

 ----------------------------------------
 #t pop=none jul-cc-pvdz guess=read ub97d
 ----------------------------------------
 ------------------------
 theory_abbreviation b97d
 ------------------------
 Symbolic Z-matrix:
 Charge =  0 Multiplicity = 6

 SCF Done:  E(UB97D) =  -3034.57772010     A.U. after   17 cycles

 ----------------------------------------------------------------
 #t pop=none jul-cc-pvdz guess=read ub97d empiricaldispersion=gd3
 ----------------------------------------------------------------
 -------------------------
 theory_abbreviation b97d3
 -------------------------
 Symbolic Z-matrix:
 Charge =  0 Multiplicity = 6

 SCF Done:  E(UB97D) =  -3034.57783715     A.U. after    1 cycles
 SCF Done:  E(UBHandHLYP) =  -3033.96560182     A.U. after   17 cycles
 SCF Done:  E(UBHandH) =  -3026.31241854     A.U. after   16 cycles
 SCF Done:  E(ULC-wPBE) =  -3033.45018836     A.U. after   19 cycles
 SCF Done:  E(UB-P86) =  -3034.62981863     A.U. after   17 cycles
 SCF Done:  E(UmPW1LYP) =  -3034.04218464     A.U. after   16 cycles
 SCF Done:  E(UmPW1PBE) =  -3033.88480894     A.U. after   16 cycles
 SCF Done:  E(UmPW3PBE) =  -3033.65735152     A.U. after   15 cycles
 SCF Done:  E(UM11) =  -3033.80870814     A.U. after   19 cycles
 SCF Done:  E(UN12SX) =  -3033.25034410     A.U. after   17 cycles
 SCF Done:  E(UMN12SX) =  -3033.64882496     A.U. after   17 cycles
 SCF Done:  E(UB1B95) =  -3034.37903466     A.U. after   16 cycles
 Normal termination of Gaussian 16 at Wed Feb 12 08:51:21 2020.
 SCF Done:  E(UB3PW91) =  -3033.97275896     A.U. after   16 cycles
 Normal termination of Gaussian 16 at Wed Feb 12 09:07:52 2020.
 SCF Done:  E(UM06L) =  -3034.19169868     A.U. after   18 cycles
 Normal termination of Gaussian 16 at Wed Feb 12 09:27:49 2020.
 Gaussian 16:  ES64L-G16RevA.03 25-Dec-2016

                         Standard orientation:
 ---------------------------------------------------------------------
 Center     Atomic      Atomic             Coordinates (Angstroms)
 Number     Number       Type             X           Y           Z
 ---------------------------------------------------------------------
      1          8           0       -0.313653   -0.183285   -0.729779
      2          6           0       -1.234934   -1.099932   -0.577252
      3          6           0       -2.764637   -0.295200    0.428938
      4          6           0       -2.499167    0.961912   -0.085929
      5          6           0       -3.022917    1.404537   -1.409913
      6         26           0        1.412400    0.120399   -0.018933
      7         17           0        1.953173    2.103516   -0.795087
      8          6           0       -1.622832    1.942654    0.605571
      9         17           0        2.644507   -1.556143   -0.719812
     10         17           0        1.194069    0.119998    2.192949
     11          1           0       -3.562354   -0.844261   -0.068681
     12          1           0       -2.252252    2.778140    0.947187
     13          1           0       -1.095322    1.535855    1.466032
     14          1           0       -0.892209    2.363915   -0.094780
     15          1           0       -3.469260    2.401412   -1.306625
     16          1           0       -2.182893    1.517371   -2.108910
     17          1           0       -3.766721    0.726482   -1.831204
     18          6           0       -2.634751   -0.583406    1.914031
     19          1           0       -3.394151   -0.013486    2.462518
     20          1           0       -2.808771   -1.640931    2.121483
     21          1           0       -1.656663   -0.315274    2.318375
     22          6           0       -0.891177   -2.262936    0.336261
     23          1           0       -1.734009   -2.941068    0.485599
     24          1           0       -0.091503   -2.808911   -0.181765
     25          1           0       -0.492133   -1.934589    1.295182
     26          6           0       -1.876541   -1.540065   -1.884347
     27          1           0       -1.112072   -2.127123   -2.407802
     28          1           0       -2.752412   -2.174953   -1.730825
     29          1           0       -2.128457   -0.697372   -2.526322
 ---------------------------------------------------------------------

 SCF Done:  E(UB97D3) =  -3034.61248835     A.U. after   16 cycles
 Normal termination of Gaussian 16 at Wed Feb 12 09:40:52 2020.
