 Gaussian 16, Revision A.03,

 --------------------------------
 #t pop=none jul-cc-pvdz upbe1pbe
 --------------------------------
 ------------------------
 theory_abbreviation pbe0
 ------------------------
 Symbolic Z-matrix:
 Charge =  0 Multiplicity = 6

 SCF Done:  E(UPBE1PBE) =  -3033.10239787     A.U. after   21 cycles
 Normal termination of Gaussian 16 at Tue Feb 11 13:59:37 2020.

 ---------------------------------------------------------------------
 #t pop=none jul-cc-pvdz guess=read upbe1pbe empiricaldispersion=gd3bj
 ---------------------------------------------------------------------
 -----------------------------
 theory_abbreviation pbe0_d3bj
 -----------------------------
 Symbolic Z-matrix:
 Charge =  0 Multiplicity = 6

 SCF Done:  E(UPBE1PBE) =  -3033.13945704     A.U. after    1 cycles
 Normal termination of Gaussian 16 at Tue Feb 11 14:00:49 2020.

 -----------------------------------------
 #t pop=none jul-cc-pvdz guess=read ub3lyp
 -----------------------------------------
 -------------------------
 theory_abbreviation b3lyp
 -------------------------
 Symbolic Z-matrix:
 Charge =  0 Multiplicity = 6

 SCF Done:  E(UB3LYP) =  -3034.31528169     A.U. after   14 cycles
 Normal termination of Gaussian 16 at Tue Feb 11 14:16:13 2020.

 -------------------------------------------------------------------
 #t pop=none jul-cc-pvdz guess=read ub3lyp empiricaldispersion=gd3bj
 -------------------------------------------------------------------
 ------------------------------
 theory_abbreviation b3lyp_d3bj
 ------------------------------
 Symbolic Z-matrix:
 Charge =  0 Multiplicity = 6

 SCF Done:  E(UB3LYP) =  -3034.38426631     A.U. after    1 cycles
 Normal termination of Gaussian 16 at Tue Feb 11 14:17:27 2020.

 ----------------------------------------
 #t pop=none jul-cc-pvdz guess=read ub97d
 ----------------------------------------
 ------------------------
 theory_abbreviation b97d
 ------------------------
 Symbolic Z-matrix:
 Charge =  0 Multiplicity = 6

 SCF Done:  E(UB97D) =  -3034.56588155     A.U. after   15 cycles

 ----------------------------------------------------------------
 #t pop=none jul-cc-pvdz guess=read ub97d empiricaldispersion=gd3
 ----------------------------------------------------------------
 -------------------------
 theory_abbreviation b97d3
 -------------------------
 Symbolic Z-matrix:
 Charge =  0 Multiplicity = 6

 SCF Done:  E(UB97D) =  -3034.56669186     A.U. after    3 cycles
 SCF Done:  E(UBHandHLYP) =  -3033.95937740     A.U. after   17 cycles
 SCF Done:  E(UBHandH) =  -3026.30611908     A.U. after   13 cycles
 SCF Done:  E(ULC-wPBE) =  -3033.44494385     A.U. after   18 cycles
 SCF Done:  E(UB-P86) =  -3034.62019319     A.U. after   15 cycles
 SCF Done:  E(UmPW1LYP) =  -3034.03385267     A.U. after   14 cycles
 SCF Done:  E(UmPW1PBE) =  -3033.87684267     A.U. after   15 cycles
 SCF Done:  E(UmPW3PBE) =  -3033.64891679     A.U. after   13 cycles
 SCF Done:  E(UM11) =  -3033.79930602     A.U. after   16 cycles
 SCF Done:  E(UN12SX) =  -3033.24264982     A.U. after   15 cycles
 SCF Done:  E(UMN12SX) =  -3033.64024865     A.U. after   16 cycles
 SCF Done:  E(UB1B95) =  -3034.36933408     A.U. after   15 cycles
 Normal termination of Gaussian 16 at Tue Feb 11 22:45:24 2020.
 SCF Done:  E(UB3PW91) =  -3033.96426398     A.U. after   14 cycles
 Normal termination of Gaussian 16 at Tue Feb 11 23:01:56 2020.
 SCF Done:  E(UM06L) =  -3034.18050648     A.U. after   18 cycles
 Normal termination of Gaussian 16 at Tue Feb 11 23:22:49 2020.
 Gaussian 16:  ES64L-G16RevA.03 25-Dec-2016

                         Standard orientation:
 ---------------------------------------------------------------------
 Center     Atomic      Atomic             Coordinates (Angstroms)
 Number     Number       Type             X           Y           Z
 ---------------------------------------------------------------------
      1          8           0       -0.335318   -0.220564   -0.584807
      2          6           0       -1.357582   -1.140063   -0.455443
      3          6           0       -2.859377   -0.116112   -0.111011
      4          6           0       -2.115600    1.110218   -0.235395
      5          6           0       -1.974000    1.787773   -1.542921
      6         26           0        1.391673    0.041848    0.031840
      7         17           0        1.800861    2.074819   -0.769690
      8          6           0       -1.576587    1.810561    0.950387
      9         17           0        2.632240   -1.609915   -0.718744
     10         17           0        1.282290    0.074201    2.256728
     11          1           0       -3.494638   -0.300627   -0.977763
     12          1           0       -2.415141    2.383747    1.380801
     13          1           0       -1.226867    1.123359    1.723281
     14          1           0       -0.774744    2.502621    0.687481
     15          1           0       -2.602508    2.692655   -1.500264
     16          1           0       -0.939913    2.117958   -1.687396
     17          1           0       -2.307805    1.174428   -2.380543
     18          6           0       -3.552762   -0.442306    1.200743
     19          1           0       -4.397972    0.236141    1.368250
     20          1           0       -3.951054   -1.459794    1.171317
     21          1           0       -2.886677   -0.369116    2.062765
     22          6           0       -1.160181   -2.100205    0.697298
     23          1           0       -1.998413   -2.792408    0.810236
     24          1           0       -0.259469   -2.684170    0.466096
     25          1           0       -0.971873   -1.579361    1.637207
     26          6           0       -1.636798   -1.829386   -1.777631
     27          1           0       -0.742404   -2.408312   -2.038271
     28          1           0       -2.494202   -2.506505   -1.713383
     29          1           0       -1.801593   -1.101822   -2.576356
 ---------------------------------------------------------------------

 SCF Done:  E(UB97D3) =  -3034.60151085     A.U. after   14 cycles
 Normal termination of Gaussian 16 at Tue Feb 11 23:34:48 2020.
