 Gaussian 16, Revision A.03,

 --------------------------------
 #t pop=none jul-cc-pvdz upbe1pbe
 --------------------------------
 ------------------------
 theory_abbreviation pbe0
 ------------------------
 Symbolic Z-matrix:
 Charge =  0 Multiplicity = 6

 SCF Done:  E(UPBE1PBE) =  -3033.11341080     A.U. after   21 cycles
 Normal termination of Gaussian 16 at Tue Feb 11 13:59:54 2020.

 ---------------------------------------------------------------------
 #t pop=none jul-cc-pvdz guess=read upbe1pbe empiricaldispersion=gd3bj
 ---------------------------------------------------------------------
 -----------------------------
 theory_abbreviation pbe0_d3bj
 -----------------------------
 Symbolic Z-matrix:
 Charge =  0 Multiplicity = 6

 SCF Done:  E(UPBE1PBE) =  -3033.15104514     A.U. after    1 cycles
 Normal termination of Gaussian 16 at Tue Feb 11 14:01:05 2020.

 -----------------------------------------
 #t pop=none jul-cc-pvdz guess=read ub3lyp
 -----------------------------------------
 -------------------------
 theory_abbreviation b3lyp
 -------------------------
 Symbolic Z-matrix:
 Charge =  0 Multiplicity = 6

 SCF Done:  E(UB3LYP) =  -3034.32762998     A.U. after   13 cycles
 Normal termination of Gaussian 16 at Tue Feb 11 14:15:10 2020.

 -------------------------------------------------------------------
 #t pop=none jul-cc-pvdz guess=read ub3lyp empiricaldispersion=gd3bj
 -------------------------------------------------------------------
 ------------------------------
 theory_abbreviation b3lyp_d3bj
 ------------------------------
 Symbolic Z-matrix:
 Charge =  0 Multiplicity = 6

 SCF Done:  E(UB3LYP) =  -3034.39780271     A.U. after    1 cycles
 Normal termination of Gaussian 16 at Tue Feb 11 14:16:21 2020.

 ----------------------------------------
 #t pop=none jul-cc-pvdz guess=read ub97d
 ----------------------------------------
 ------------------------
 theory_abbreviation b97d
 ------------------------
 Symbolic Z-matrix:
 Charge =  0 Multiplicity = 6

 SCF Done:  E(UB97D) =  -3034.58163866     A.U. after   14 cycles

 ----------------------------------------------------------------
 #t pop=none jul-cc-pvdz guess=read ub97d empiricaldispersion=gd3
 ----------------------------------------------------------------
 -------------------------
 theory_abbreviation b97d3
 -------------------------
 Symbolic Z-matrix:
 Charge =  0 Multiplicity = 6

 SCF Done:  E(UB97D) =  -3034.58236715     A.U. after    2 cycles
 SCF Done:  E(UBHandHLYP) =  -3033.96883981     A.U. after   18 cycles
 SCF Done:  E(UBHandH) =  -3026.31469981     A.U. after   16 cycles
 SCF Done:  E(ULC-wPBE) =  -3033.45331851     A.U. after   19 cycles
 SCF Done:  E(UB-P86) =  -3034.63384368     A.U. after   17 cycles
 SCF Done:  E(UmPW1LYP) =  -3034.04575002     A.U. after   15 cycles
 SCF Done:  E(UmPW1PBE) =  -3033.88776954     A.U. after   16 cycles
 SCF Done:  E(UmPW3PBE) =  -3033.66043457     A.U. after   13 cycles
 SCF Done:  E(UM11) =  -3033.81163833     A.U. after   19 cycles
 SCF Done:  E(UN12SX) =  -3033.25298866     A.U. after   17 cycles
 SCF Done:  E(UMN12SX) =  -3033.65219373     A.U. after   17 cycles
 SCF Done:  E(UB1B95) =  -3034.38246054     A.U. after   16 cycles
 Normal termination of Gaussian 16 at Tue Feb 11 23:15:29 2020.
 SCF Done:  E(UB3PW91) =  -3033.97592170     A.U. after   16 cycles
 Normal termination of Gaussian 16 at Tue Feb 11 23:32:17 2020.
 SCF Done:  E(UM06L) =  -3034.19546642     A.U. after   18 cycles
 Normal termination of Gaussian 16 at Tue Feb 11 23:52:09 2020.
 Gaussian 16:  ES64L-G16RevA.03 25-Dec-2016

                         Standard orientation:
 ---------------------------------------------------------------------
 Center     Atomic      Atomic             Coordinates (Angstroms)
 Number     Number       Type             X           Y           Z
 ---------------------------------------------------------------------
      1          8           0       -0.309942   -0.181048   -0.746206
      2          6           0       -1.210300   -1.101245   -0.601815
      3          6           0       -2.831381   -0.248555    0.425327
      4          6           0       -2.491269    0.972827   -0.103645
      5          6           0       -2.961732    1.416738   -1.450262
      6         26           0        1.421250    0.117667   -0.006714
      7         17           0        2.001532    2.078425   -0.796261
      8          6           0       -1.607487    1.943421    0.600318
      9         17           0        2.617810   -1.586943   -0.698100
     10         17           0        1.187535    0.122298    2.198033
     11          1           0       -3.604873   -0.802108   -0.103734
     12          1           0       -2.223567    2.796204    0.921413
     13          1           0       -1.109740    1.533628    1.477224
     14          1           0       -0.850272    2.341409   -0.084501
     15          1           0       -3.398192    2.419811   -1.365498
     16          1           0       -2.101782    1.512422   -2.126474
     17          1           0       -3.705967    0.749830   -1.889355
     18          6           0       -2.725075   -0.555753    1.904574
     19          1           0       -3.499606    0.000712    2.446789
     20          1           0       -2.892972   -1.616837    2.100309
     21          1           0       -1.758317   -0.280858    2.331710
     22          6           0       -0.910841   -2.231177    0.359095
     23          1           0       -1.764799   -2.895572    0.502786
     24          1           0       -0.101216   -2.802684   -0.115734
     25          1           0       -0.536546   -1.874883    1.317889
     26          6           0       -1.871274   -1.545962   -1.892433
     27          1           0       -1.121717   -2.159974   -2.408282
     28          1           0       -2.758332   -2.159929   -1.723117
     29          1           0       -2.105835   -0.708157   -2.546595
 ---------------------------------------------------------------------

 SCF Done:  E(UB97D3) =  -3034.61760807     A.U. after   15 cycles
 Normal termination of Gaussian 16 at Wed Feb 12 00:05:03 2020.
