 Gaussian 16, Revision A.03,

 --------------------------------
 #t pop=none jul-cc-pvdz upbe1pbe
 --------------------------------
 ------------------------
 theory_abbreviation pbe0
 ------------------------
 Symbolic Z-matrix:
 Charge =  0 Multiplicity = 6

 SCF Done:  E(UPBE1PBE) =  -3033.11050673     A.U. after   21 cycles
 Normal termination of Gaussian 16 at Tue Feb 11 13:57:12 2020.

 ---------------------------------------------------------------------
 #t pop=none jul-cc-pvdz guess=read upbe1pbe empiricaldispersion=gd3bj
 ---------------------------------------------------------------------
 -----------------------------
 theory_abbreviation pbe0_d3bj
 -----------------------------
 Symbolic Z-matrix:
 Charge =  0 Multiplicity = 6

 SCF Done:  E(UPBE1PBE) =  -3033.14687913     A.U. after    1 cycles
 Normal termination of Gaussian 16 at Tue Feb 11 13:58:28 2020.

 -----------------------------------------
 #t pop=none jul-cc-pvdz guess=read ub3lyp
 -----------------------------------------
 -------------------------
 theory_abbreviation b3lyp
 -------------------------
 Symbolic Z-matrix:
 Charge =  0 Multiplicity = 6

 SCF Done:  E(UB3LYP) =  -3034.32189804     A.U. after   15 cycles
 Normal termination of Gaussian 16 at Tue Feb 11 14:13:48 2020.

 -------------------------------------------------------------------
 #t pop=none jul-cc-pvdz guess=read ub3lyp empiricaldispersion=gd3bj
 -------------------------------------------------------------------
 ------------------------------
 theory_abbreviation b3lyp_d3bj
 ------------------------------
 Symbolic Z-matrix:
 Charge =  0 Multiplicity = 6

 SCF Done:  E(UB3LYP) =  -3034.38979229     A.U. after    1 cycles
 Normal termination of Gaussian 16 at Tue Feb 11 14:14:59 2020.

 ----------------------------------------
 #t pop=none jul-cc-pvdz guess=read ub97d
 ----------------------------------------
 ------------------------
 theory_abbreviation b97d
 ------------------------
 Symbolic Z-matrix:
 Charge =  0 Multiplicity = 6

 SCF Done:  E(UB97D) =  -3034.57357599     A.U. after   16 cycles

 ----------------------------------------------------------------
 #t pop=none jul-cc-pvdz guess=read ub97d empiricaldispersion=gd3
 ----------------------------------------------------------------
 -------------------------
 theory_abbreviation b97d3
 -------------------------
 Symbolic Z-matrix:
 Charge =  0 Multiplicity = 6

 SCF Done:  E(UB97D) =  -3034.57396886     A.U. after    1 cycles
 SCF Done:  E(UBHandHLYP) =  -3033.96418242     A.U. after   17 cycles
 SCF Done:  E(UBHandH) =  -3026.31434401     A.U. after   14 cycles
 SCF Done:  E(ULC-wPBE) =  -3033.45139611     A.U. after   17 cycles
 SCF Done:  E(UB-P86) =  -3034.62811118     A.U. after   17 cycles
 SCF Done:  E(UmPW1LYP) =  -3034.03978798     A.U. after   15 cycles
 SCF Done:  E(UmPW1PBE) =  -3033.88491101     A.U. after   15 cycles
 SCF Done:  E(UmPW3PBE) =  -3033.65716733     A.U. after   14 cycles
 SCF Done:  E(UM11) =  -3033.80491385     A.U. after   18 cycles
 SCF Done:  E(UN12SX) =  -3033.25008616     A.U. after   17 cycles
 SCF Done:  E(UMN12SX) =  -3033.64528345     A.U. after   16 cycles
 SCF Done:  E(UB1B95) =  -3034.37672756     A.U. after   16 cycles
 Normal termination of Gaussian 16 at Tue Feb 11 22:47:21 2020.
 SCF Done:  E(UB3PW91) =  -3033.97243873     A.U. after   15 cycles
 Normal termination of Gaussian 16 at Tue Feb 11 23:04:39 2020.
 SCF Done:  E(UM06L) =  -3034.18837207     A.U. after   17 cycles
 Normal termination of Gaussian 16 at Tue Feb 11 23:23:19 2020.
 Gaussian 16:  ES64L-G16RevA.03 25-Dec-2016

                         Standard orientation:
 ---------------------------------------------------------------------
 Center     Atomic      Atomic             Coordinates (Angstroms)
 Number     Number       Type             X           Y           Z
 ---------------------------------------------------------------------
      1          8           0       -0.344701   -0.089132   -0.412981
      2          6           0       -1.256289   -1.073178   -0.265272
      3          6           0       -2.522076   -0.443497    0.678807
      4          6           0       -2.888918    0.735504   -0.043004
      5          6           0       -3.960839    0.702608   -1.070129
      6         26           0        1.474862    0.172810   -0.079983
      7         17           0        1.739056    2.247658   -0.789201
      8          6           0       -2.120617    1.957362    0.109750
      9         17           0        2.546643   -1.391098   -1.197758
     10         17           0        1.768998    0.014156    2.112187
     11          1           0       -3.295501   -1.212396    0.605150
     12          1           0       -2.510375    2.815231   -0.438880
     13          1           0       -1.874140    2.206609    1.144837
     14          1           0       -1.133545    1.636635   -0.323969
     15          1           0       -4.797521    1.306019   -0.683847
     16          1           0       -3.638387    1.195375   -1.995480
     17          1           0       -4.329345   -0.301531   -1.281862
     18          6           0       -2.036812   -0.228797    2.117986
     19          1           0       -2.727530    0.426077    2.658933
     20          1           0       -2.001866   -1.181822    2.647818
     21          1           0       -1.036955    0.209344    2.148198
     22          6           0       -0.730924   -2.277739    0.534760
     23          1           0       -1.525466   -2.999115    0.749115
     24          1           0        0.027705   -2.763619   -0.087564
     25          1           0       -0.249577   -1.969611    1.462724
     26          6           0       -1.780067   -1.535315   -1.631173
     27          1           0       -0.959961   -2.053985   -2.136260
     28          1           0       -2.624507   -2.227250   -1.542670
     29          1           0       -2.062447   -0.689823   -2.262047
 ---------------------------------------------------------------------

 SCF Done:  E(UB97D3) =  -3034.60859322     A.U. after   16 cycles
 Normal termination of Gaussian 16 at Tue Feb 11 23:36:04 2020.
