 Gaussian 16, Revision A.03,

 --------------------------------
 #t pop=none jul-cc-pvdz upbe1pbe
 --------------------------------
 ------------------------
 theory_abbreviation pbe0
 ------------------------
 Symbolic Z-matrix:
 Charge =  0 Multiplicity = 6

 SCF Done:  E(UPBE1PBE) =  -3033.10561498     A.U. after   20 cycles
 Normal termination of Gaussian 16 at Tue Feb 11 13:58:48 2020.

 ---------------------------------------------------------------------
 #t pop=none jul-cc-pvdz guess=read upbe1pbe empiricaldispersion=gd3bj
 ---------------------------------------------------------------------
 -----------------------------
 theory_abbreviation pbe0_d3bj
 -----------------------------
 Symbolic Z-matrix:
 Charge =  0 Multiplicity = 6

 SCF Done:  E(UPBE1PBE) =  -3033.14350860     A.U. after    1 cycles
 Normal termination of Gaussian 16 at Tue Feb 11 14:00:00 2020.

 -----------------------------------------
 #t pop=none jul-cc-pvdz guess=read ub3lyp
 -----------------------------------------
 -------------------------
 theory_abbreviation b3lyp
 -------------------------
 Symbolic Z-matrix:
 Charge =  0 Multiplicity = 6

 SCF Done:  E(UB3LYP) =  -3034.31934762     A.U. after   13 cycles
 Normal termination of Gaussian 16 at Tue Feb 11 14:14:05 2020.

 -------------------------------------------------------------------
 #t pop=none jul-cc-pvdz guess=read ub3lyp empiricaldispersion=gd3bj
 -------------------------------------------------------------------
 ------------------------------
 theory_abbreviation b3lyp_d3bj
 ------------------------------
 Symbolic Z-matrix:
 Charge =  0 Multiplicity = 6

 SCF Done:  E(UB3LYP) =  -3034.38997992     A.U. after    1 cycles
 Normal termination of Gaussian 16 at Tue Feb 11 14:15:18 2020.

 ----------------------------------------
 #t pop=none jul-cc-pvdz guess=read ub97d
 ----------------------------------------
 ------------------------
 theory_abbreviation b97d
 ------------------------
 Symbolic Z-matrix:
 Charge =  0 Multiplicity = 6

 SCF Done:  E(UB97D) =  -3034.57236245     A.U. after   15 cycles

 ----------------------------------------------------------------
 #t pop=none jul-cc-pvdz guess=read ub97d empiricaldispersion=gd3
 ----------------------------------------------------------------
 -------------------------
 theory_abbreviation b97d3
 -------------------------
 Symbolic Z-matrix:
 Charge =  0 Multiplicity = 6

 SCF Done:  E(UB97D) =  -3034.57384765     A.U. after    1 cycles
 SCF Done:  E(UBHandHLYP) =  -3033.96151240     A.U. after   18 cycles
 SCF Done:  E(UBHandH) =  -3026.30791824     A.U. after   14 cycles
 SCF Done:  E(ULC-wPBE) =  -3033.44615068     A.U. after   19 cycles
 SCF Done:  E(UB-P86) =  -3034.62589034     A.U. after   18 cycles
 SCF Done:  E(UmPW1LYP) =  -3034.03754260     A.U. after   14 cycles
 SCF Done:  E(UmPW1PBE) =  -3033.88007489     A.U. after   15 cycles
 SCF Done:  E(UmPW3PBE) =  -3033.65255314     A.U. after   13 cycles
 SCF Done:  E(UM11) =  -3033.80350242     A.U. after   18 cycles
 SCF Done:  E(UN12SX) =  -3033.24517789     A.U. after   17 cycles
 SCF Done:  E(UMN12SX) =  -3033.64476375     A.U. after   15 cycles
 SCF Done:  E(UB1B95) =  -3034.37520193     A.U. after   16 cycles
 Normal termination of Gaussian 16 at Tue Feb 11 22:56:03 2020.
 SCF Done:  E(UB3PW91) =  -3033.96800531     A.U. after   13 cycles
 Normal termination of Gaussian 16 at Tue Feb 11 23:10:08 2020.
 SCF Done:  E(UM06L) =  -3034.18712408     A.U. after   17 cycles
 Normal termination of Gaussian 16 at Tue Feb 11 23:29:27 2020.
 Gaussian 16:  ES64L-G16RevA.03 25-Dec-2016

                         Standard orientation:
 ---------------------------------------------------------------------
 Center     Atomic      Atomic             Coordinates (Angstroms)
 Number     Number       Type             X           Y           Z
 ---------------------------------------------------------------------
      1          8           0       -0.332294   -0.109217   -0.584281
      2          6           0       -1.245437   -1.031611   -0.519207
      3          6           0       -3.078324   -0.031850   -0.005885
      4          6           0       -2.273600    1.062881   -0.200172
      5          6           0       -2.157376    1.724961   -1.533957
      6         26           0        1.445772    0.060331    0.049338
      7         17           0        2.040331    2.011691   -0.763796
      8          6           0       -1.577243    1.759191    0.924377
      9         17           0        2.452768   -1.717167   -0.765557
     10         17           0        1.373976    0.027992    2.257164
     11          1           0       -3.668935   -0.355089   -0.859986
     12          1           0       -2.281980    2.490019    1.348139
     13          1           0       -1.274143    1.089536    1.729984
     14          1           0       -0.699446    2.305833    0.572976
     15          1           0       -2.567378    2.740072   -1.439212
     16          1           0       -1.106263    1.829027   -1.819819
     17          1           0       -2.714222    1.208614   -2.318697
     18          6           0       -3.604951   -0.479990    1.334305
     19          1           0       -4.518516    0.081609    1.569999
     20          1           0       -3.875155   -1.539602    1.326917
     21          1           0       -2.899631   -0.312949    2.150958
     22          6           0       -1.154469   -2.008100    0.623895
     23          1           0       -2.018836   -2.669635    0.688345
     24          1           0       -0.266851   -2.620470    0.407158
     25          1           0       -0.972752   -1.509355    1.576239
     26          6           0       -1.674165   -1.602617   -1.849852
     27          1           0       -0.822085   -2.203352   -2.197321
     28          1           0       -2.550086   -2.249589   -1.768226
     29          1           0       -1.842328   -0.819495   -2.589815
 ---------------------------------------------------------------------

 SCF Done:  E(UB97D3) =  -3034.60968227     A.U. after   15 cycles
 Normal termination of Gaussian 16 at Tue Feb 11 23:41:46 2020.
