 Gaussian 16, Revision A.03,

 --------------------------------
 #t pop=none jul-cc-pvdz upbe1pbe
 --------------------------------
 ------------------------
 theory_abbreviation pbe0
 ------------------------
 Symbolic Z-matrix:
 Charge =  0 Multiplicity = 6

 SCF Done:  E(UPBE1PBE) =  -3033.10672953     A.U. after   20 cycles
 Normal termination of Gaussian 16 at Tue Feb 11 13:57:14 2020.

 ---------------------------------------------------------------------
 #t pop=none jul-cc-pvdz guess=read upbe1pbe empiricaldispersion=gd3bj
 ---------------------------------------------------------------------
 -----------------------------
 theory_abbreviation pbe0_d3bj
 -----------------------------
 Symbolic Z-matrix:
 Charge =  0 Multiplicity = 6

 SCF Done:  E(UPBE1PBE) =  -3033.14388458     A.U. after    1 cycles
 Normal termination of Gaussian 16 at Tue Feb 11 13:58:25 2020.

 -----------------------------------------
 #t pop=none jul-cc-pvdz guess=read ub3lyp
 -----------------------------------------
 -------------------------
 theory_abbreviation b3lyp
 -------------------------
 Symbolic Z-matrix:
 Charge =  0 Multiplicity = 6

 SCF Done:  E(UB3LYP) =  -3034.31915340     A.U. after   13 cycles
 Normal termination of Gaussian 16 at Tue Feb 11 14:12:24 2020.

 -------------------------------------------------------------------
 #t pop=none jul-cc-pvdz guess=read ub3lyp empiricaldispersion=gd3bj
 -------------------------------------------------------------------
 ------------------------------
 theory_abbreviation b3lyp_d3bj
 ------------------------------
 Symbolic Z-matrix:
 Charge =  0 Multiplicity = 6

 SCF Done:  E(UB3LYP) =  -3034.38833799     A.U. after    1 cycles
 Normal termination of Gaussian 16 at Tue Feb 11 14:13:38 2020.

 ----------------------------------------
 #t pop=none jul-cc-pvdz guess=read ub97d
 ----------------------------------------
 ------------------------
 theory_abbreviation b97d
 ------------------------
 Symbolic Z-matrix:
 Charge =  0 Multiplicity = 6

 SCF Done:  E(UB97D) =  -3034.56866256     A.U. after   15 cycles

 ----------------------------------------------------------------
 #t pop=none jul-cc-pvdz guess=read ub97d empiricaldispersion=gd3
 ----------------------------------------------------------------
 -------------------------
 theory_abbreviation b97d3
 -------------------------
 Symbolic Z-matrix:
 Charge =  0 Multiplicity = 6

 SCF Done:  E(UB97D) =  -3034.56992275     A.U. after    3 cycles
 SCF Done:  E(UBHandHLYP) =  -3033.96439386     A.U. after   16 cycles
 SCF Done:  E(UBHandH) =  -3026.31209766     A.U. after   13 cycles
 SCF Done:  E(ULC-wPBE) =  -3033.45161988     A.U. after   16 cycles
 SCF Done:  E(UB-P86) =  -3034.62423785     A.U. after   16 cycles
 SCF Done:  E(UmPW1LYP) =  -3034.03790785     A.U. after   13 cycles
 SCF Done:  E(UmPW1PBE) =  -3033.88106916     A.U. after   13 cycles
 SCF Done:  E(UmPW3PBE) =  -3033.65299183     A.U. after   13 cycles
 SCF Done:  E(UM11) =  -3033.80369625     A.U. after   16 cycles
 SCF Done:  E(UN12SX) =  -3033.24686350     A.U. after   15 cycles
 SCF Done:  E(UMN12SX) =  -3033.64398415     A.U. after   16 cycles
 SCF Done:  E(UB1B95) =  -3034.37258656     A.U. after   14 cycles
 Normal termination of Gaussian 16 at Tue Feb 11 22:31:46 2020.
 SCF Done:  E(UB3PW91) =  -3033.96826319     A.U. after   13 cycles
 Normal termination of Gaussian 16 at Tue Feb 11 22:45:30 2020.
 SCF Done:  E(UM06L) =  -3034.18426242     A.U. after   17 cycles
 Normal termination of Gaussian 16 at Tue Feb 11 23:06:25 2020.
 Gaussian 16:  ES64L-G16RevA.03 25-Dec-2016

                         Standard orientation:
 ---------------------------------------------------------------------
 Center     Atomic      Atomic             Coordinates (Angstroms)
 Number     Number       Type             X           Y           Z
 ---------------------------------------------------------------------
      1          8           0       -0.298899   -0.343598   -0.675412
      2          6           0       -1.403003   -1.198901   -0.484023
      3          6           0       -2.700610   -0.185548   -0.060550
      4          6           0       -2.068250    1.139065   -0.235404
      5          6           0       -1.976474    1.768105   -1.562616
      6         26           0        1.362460    0.031364    0.013076
      7         17           0        1.668423    2.100485   -0.767396
      8          6           0       -1.588240    1.906271    0.920887
      9         17           0        2.808447   -1.492766   -0.615918
     10         17           0        1.120948    0.100806    2.244469
     11          1           0       -3.448346   -0.324813   -0.847421
     12          1           0       -2.465495    2.180943    1.527994
     13          1           0       -0.965086    1.277270    1.574052
     14          1           0       -1.029792    2.798010    0.636344
     15          1           0       -2.582005    2.688932   -1.534448
     16          1           0       -0.937583    2.090390   -1.723256
     17          1           0       -2.317656    1.129760   -2.376613
     18          6           0       -3.316834   -0.454835    1.310270
     19          1           0       -4.130143    0.250198    1.517840
     20          1           0       -3.742642   -1.460755    1.332993
     21          1           0       -2.586250   -0.383051    2.118943
     22          6           0       -1.123480   -2.228802    0.601054
     23          1           0       -1.963367   -2.914875    0.745451
     24          1           0       -0.255792   -2.813503    0.273597
     25          1           0       -0.862047   -1.761160    1.551491
     26          6           0       -1.738789   -1.869896   -1.812162
     27          1           0       -0.881069   -2.478227   -2.117116
     28          1           0       -2.619310   -2.515889   -1.725012
     29          1           0       -1.915016   -1.127581   -2.595884
 ---------------------------------------------------------------------

 SCF Done:  E(UB97D3) =  -3034.60484315     A.U. after   14 cycles
 Normal termination of Gaussian 16 at Tue Feb 11 23:17:53 2020.
