 Gaussian 16, Revision A.03,

 --------------------------------
 #t pop=none jul-cc-pvdz upbe1pbe
 --------------------------------
 ------------------------
 theory_abbreviation pbe0
 ------------------------
 Symbolic Z-matrix:
 Charge =  0 Multiplicity = 6

 SCF Done:  E(UPBE1PBE) =  -3033.10350821     A.U. after   21 cycles
 Normal termination of Gaussian 16 at Tue Feb 11 13:59:15 2020.

 ---------------------------------------------------------------------
 #t pop=none jul-cc-pvdz guess=read upbe1pbe empiricaldispersion=gd3bj
 ---------------------------------------------------------------------
 -----------------------------
 theory_abbreviation pbe0_d3bj
 -----------------------------
 Symbolic Z-matrix:
 Charge =  0 Multiplicity = 6

 SCF Done:  E(UPBE1PBE) =  -3033.14069746     A.U. after    1 cycles
 Normal termination of Gaussian 16 at Tue Feb 11 14:00:27 2020.

 -----------------------------------------
 #t pop=none jul-cc-pvdz guess=read ub3lyp
 -----------------------------------------
 -------------------------
 theory_abbreviation b3lyp
 -------------------------
 Symbolic Z-matrix:
 Charge =  0 Multiplicity = 6

 SCF Done:  E(UB3LYP) =  -3034.31593231     A.U. after   14 cycles
 Normal termination of Gaussian 16 at Tue Feb 11 14:15:24 2020.

 -------------------------------------------------------------------
 #t pop=none jul-cc-pvdz guess=read ub3lyp empiricaldispersion=gd3bj
 -------------------------------------------------------------------
 ------------------------------
 theory_abbreviation b3lyp_d3bj
 ------------------------------
 Symbolic Z-matrix:
 Charge =  0 Multiplicity = 6

 SCF Done:  E(UB3LYP) =  -3034.38522509     A.U. after    1 cycles
 Normal termination of Gaussian 16 at Tue Feb 11 14:16:35 2020.

 ----------------------------------------
 #t pop=none jul-cc-pvdz guess=read ub97d
 ----------------------------------------
 ------------------------
 theory_abbreviation b97d
 ------------------------
 Symbolic Z-matrix:
 Charge =  0 Multiplicity = 6

 SCF Done:  E(UB97D) =  -3034.56796784     A.U. after   16 cycles

 ----------------------------------------------------------------
 #t pop=none jul-cc-pvdz guess=read ub97d empiricaldispersion=gd3
 ----------------------------------------------------------------
 -------------------------
 theory_abbreviation b97d3
 -------------------------
 Symbolic Z-matrix:
 Charge =  0 Multiplicity = 6

 SCF Done:  E(UB97D) =  -3034.56813461     A.U. after    1 cycles
 SCF Done:  E(UBHandHLYP) =  -3033.95964670     A.U. after   17 cycles
 SCF Done:  E(UBHandH) =  -3026.30773328     A.U. after   14 cycles
 SCF Done:  E(ULC-wPBE) =  -3033.44494124     A.U. after   18 cycles
 SCF Done:  E(UB-P86) =  -3034.62115957     A.U. after   15 cycles
 SCF Done:  E(UmPW1LYP) =  -3034.03439784     A.U. after   13 cycles
 SCF Done:  E(UmPW1PBE) =  -3033.87787751     A.U. after   13 cycles
 SCF Done:  E(UmPW3PBE) =  -3033.64998220     A.U. after   14 cycles
 SCF Done:  E(UM11) =  -3033.80140406     A.U. after   19 cycles
 SCF Done:  E(UN12SX) =  -3033.24359829     A.U. after   17 cycles
 SCF Done:  E(UMN12SX) =  -3033.64163400     A.U. after   16 cycles
 SCF Done:  E(UB1B95) =  -3034.37114574     A.U. after   16 cycles
 Normal termination of Gaussian 16 at Tue Feb 11 22:55:59 2020.
 SCF Done:  E(UB3PW91) =  -3033.96527107     A.U. after   13 cycles
 Normal termination of Gaussian 16 at Tue Feb 11 23:09:35 2020.
 SCF Done:  E(UM06L) =  -3034.18313974     A.U. after   18 cycles
 Normal termination of Gaussian 16 at Tue Feb 11 23:29:34 2020.
 Gaussian 16:  ES64L-G16RevA.03 25-Dec-2016

                         Standard orientation:
 ---------------------------------------------------------------------
 Center     Atomic      Atomic             Coordinates (Angstroms)
 Number     Number       Type             X           Y           Z
 ---------------------------------------------------------------------
      1          8           0       -0.338134   -0.140375   -0.649060
      2          6           0       -1.294940   -1.075271   -0.545987
      3          6           0       -2.826116   -0.225488    0.191146
      4          6           0       -2.314067    1.034791   -0.162067
      5          6           0       -2.519250    1.618776   -1.511852
      6         26           0        1.392647    0.083439    0.013440
      7         17           0        1.913534    2.101649   -0.714419
      8          6           0       -1.558598    1.875079    0.795042
      9         17           0        2.602326   -1.582973   -0.759948
     10         17           0        1.212921    0.022584    2.236355
     11          1           0       -3.603970   -0.595095   -0.475155
     12          1           0       -2.303882    2.518845    1.292399
     13          1           0       -1.051442    1.302033    1.571032
     14          1           0       -0.838954    2.521561    0.286695
     15          1           0       -2.875958    2.650670   -1.398701
     16          1           0       -1.541834    1.682972   -2.007475
     17          1           0       -3.222517    1.059968   -2.129969
     18          6           0       -3.050890   -0.578874    1.651074
     19          1           0       -3.881889    0.013085    2.052950
     20          1           0       -3.319060   -1.632422    1.754472
     21          1           0       -2.173355   -0.391804    2.273188
     22          6           0       -0.988337   -2.209514    0.413392
     23          1           0       -1.815021   -2.918629    0.498810
     24          1           0       -0.123765   -2.733847   -0.015068
     25          1           0       -0.693176   -1.849045    1.398645
     26          6           0       -1.765326   -1.568114   -1.906772
     27          1           0       -0.915958   -2.101199   -2.350324
     28          1           0       -2.610620   -2.257263   -1.828196
     29          1           0       -2.016483   -0.745975   -2.577928
 ---------------------------------------------------------------------

 SCF Done:  E(UB97D3) =  -3034.60277937     A.U. after   16 cycles
 Normal termination of Gaussian 16 at Tue Feb 11 23:42:22 2020.
