 Gaussian 16, Revision A.03,

 --------------------------------
 #t pop=none jul-cc-pvdz upbe1pbe
 --------------------------------
 ------------------------
 theory_abbreviation pbe0
 ------------------------
 Symbolic Z-matrix:
 Charge =  0 Multiplicity = 6

 SCF Done:  E(UPBE1PBE) =  -3033.14048097     A.U. after   20 cycles
 Normal termination of Gaussian 16 at Wed Feb 12 14:13:00 2020.

 ---------------------------------------------------------------------
 #t pop=none jul-cc-pvdz guess=read upbe1pbe empiricaldispersion=gd3bj
 ---------------------------------------------------------------------
 -----------------------------
 theory_abbreviation pbe0_d3bj
 -----------------------------
 Symbolic Z-matrix:
 Charge =  0 Multiplicity = 6

 SCF Done:  E(UPBE1PBE) =  -3033.17624038     A.U. after    1 cycles
 Normal termination of Gaussian 16 at Wed Feb 12 14:14:05 2020.

 -----------------------------------------
 #t pop=none jul-cc-pvdz guess=read ub3lyp
 -----------------------------------------
 -------------------------
 theory_abbreviation b3lyp
 -------------------------
 Symbolic Z-matrix:
 Charge =  0 Multiplicity = 6

 SCF Done:  E(UB3LYP) =  -3034.35958155     A.U. after   13 cycles
 Normal termination of Gaussian 16 at Wed Feb 12 14:26:56 2020.

 -------------------------------------------------------------------
 #t pop=none jul-cc-pvdz guess=read ub3lyp empiricaldispersion=gd3bj
 -------------------------------------------------------------------
 ------------------------------
 theory_abbreviation b3lyp_d3bj
 ------------------------------
 Symbolic Z-matrix:
 Charge =  0 Multiplicity = 6

 SCF Done:  E(UB3LYP) =  -3034.42561564     A.U. after    1 cycles
 Normal termination of Gaussian 16 at Wed Feb 12 14:28:02 2020.

 ----------------------------------------
 #t pop=none jul-cc-pvdz guess=read ub97d
 ----------------------------------------
 ------------------------
 theory_abbreviation b97d
 ------------------------
 Symbolic Z-matrix:
 Charge =  0 Multiplicity = 6

 SCF Done:  E(UB97D) =  -3034.60821403     A.U. after   16 cycles

 ----------------------------------------------------------------
 #t pop=none jul-cc-pvdz guess=read ub97d empiricaldispersion=gd3
 ----------------------------------------------------------------
 -------------------------
 theory_abbreviation b97d3
 -------------------------
 Symbolic Z-matrix:
 Charge =  0 Multiplicity = 6

 SCF Done:  E(UB97D) =  -3034.61002100     A.U. after    3 cycles
 SCF Done:  E(UBHandHLYP) =  -3034.00154817     A.U. after   18 cycles
 SCF Done:  E(UBHandH) =  -3026.33526973     A.U. after   14 cycles
 SCF Done:  E(ULC-wPBE) =  -3033.48162110     A.U. after   17 cycles
 SCF Done:  E(UB-P86) =  -3034.65694105     A.U. after   17 cycles
 SCF Done:  E(UmPW1LYP) =  -3034.07795081     A.U. after   13 cycles
 SCF Done:  E(UmPW1PBE) =  -3033.91500542     A.U. after   14 cycles
 SCF Done:  E(UmPW3PBE) =  -3033.68799589     A.U. after   13 cycles
 SCF Done:  E(UM11) =  -3033.83894477     A.U. after   16 cycles
 SCF Done:  E(UN12SX) =  -3033.27946751     A.U. after   16 cycles
 SCF Done:  E(UMN12SX) =  -3033.68172758     A.U. after   16 cycles
 SCF Done:  E(UB1B95) =  -3034.41126912     A.U. after   14 cycles
 Normal termination of Gaussian 16 at Wed Feb 12 21:54:34 2020.
 SCF Done:  E(UB3PW91) =  -3034.00440275     A.U. after   13 cycles
 Normal termination of Gaussian 16 at Wed Feb 12 22:07:09 2020.
 SCF Done:  E(UM06L) =  -3034.22575843     A.U. after   17 cycles
 Normal termination of Gaussian 16 at Wed Feb 12 22:25:07 2020.
 Gaussian 16:  ES64L-G16RevA.03 25-Dec-2016

                         Standard orientation:
 ---------------------------------------------------------------------
 Center     Atomic      Atomic             Coordinates (Angstroms)
 Number     Number       Type             X           Y           Z
 ---------------------------------------------------------------------
      1          8           0        0.140663    0.469442   -0.897080
      2          6           0        0.884887    1.446283   -0.670404
      3          6           0        3.173720    0.061922    0.573498
      4          6           0        2.714829   -0.918063   -0.227355
      5          6           0        3.175934   -1.038896   -1.656571
      6         26           0       -1.497497   -0.184814    0.018416
      7         17           0       -2.056850   -1.971382   -1.081194
      8          6           0        1.770743   -2.003207    0.207541
      9         17           0       -2.797371    1.553506   -0.251408
     10         17           0       -1.014348   -0.529494    2.127876
     11          1           0        3.900553    0.754667    0.145857
     12          1           0        2.272574   -2.978617    0.150557
     13          1           0        1.393008   -1.876851    1.221943
     14          1           0        0.912029   -2.064297   -0.473149
     15          1           0        3.693373   -1.995238   -1.809363
     16          1           0        2.320621   -1.039939   -2.345391
     17          1           0        3.862186   -0.236388   -1.943607
     18          6           0        2.921562    0.229944    2.046632
     19          1           0        3.755408   -0.187318    2.627996
     20          1           0        2.853230    1.288653    2.321241
     21          1           0        2.006019   -0.263147    2.381995
     22          6           0        0.747295    2.253217    0.580382
     23          1           0        1.619647    2.883286    0.758503
     24          1           0       -0.133351    2.898347    0.443873
     25          1           0        0.548910    1.615593    1.443294
     26          6           0        1.740740    1.966344   -1.781548
     27          1           0        1.233842    2.856729   -2.181762
     28          1           0        2.720049    2.282386   -1.417500
     29          1           0        1.838954    1.231803   -2.579366
 ---------------------------------------------------------------------

 SCF Done:  E(UB97D3) =  -3034.64457742     A.U. after   16 cycles
 Normal termination of Gaussian 16 at Wed Feb 12 22:37:21 2020.
