 Gaussian 16, Revision A.03,

 --------------------------------
 #t pop=none jul-cc-pvdz upbe1pbe
 --------------------------------
 ------------------------
 theory_abbreviation pbe0
 ------------------------
 Symbolic Z-matrix:
 Charge =  0 Multiplicity = 6

 SCF Done:  E(UPBE1PBE) =  -3033.10614203     A.U. after   21 cycles
 Normal termination of Gaussian 16 at Tue Feb 11 13:58:14 2020.

 ---------------------------------------------------------------------
 #t pop=none jul-cc-pvdz guess=read upbe1pbe empiricaldispersion=gd3bj
 ---------------------------------------------------------------------
 -----------------------------
 theory_abbreviation pbe0_d3bj
 -----------------------------
 Symbolic Z-matrix:
 Charge =  0 Multiplicity = 6

 SCF Done:  E(UPBE1PBE) =  -3033.14307818     A.U. after    1 cycles
 Normal termination of Gaussian 16 at Tue Feb 11 13:59:25 2020.

 -----------------------------------------
 #t pop=none jul-cc-pvdz guess=read ub3lyp
 -----------------------------------------
 -------------------------
 theory_abbreviation b3lyp
 -------------------------
 Symbolic Z-matrix:
 Charge =  0 Multiplicity = 6

 SCF Done:  E(UB3LYP) =  -3034.31953336     A.U. after   13 cycles
 Normal termination of Gaussian 16 at Tue Feb 11 14:13:06 2020.

 -------------------------------------------------------------------
 #t pop=none jul-cc-pvdz guess=read ub3lyp empiricaldispersion=gd3bj
 -------------------------------------------------------------------
 ------------------------------
 theory_abbreviation b3lyp_d3bj
 ------------------------------
 Symbolic Z-matrix:
 Charge =  0 Multiplicity = 6

 SCF Done:  E(UB3LYP) =  -3034.38824771     A.U. after    1 cycles
 Normal termination of Gaussian 16 at Tue Feb 11 14:14:23 2020.

 ----------------------------------------
 #t pop=none jul-cc-pvdz guess=read ub97d
 ----------------------------------------
 ------------------------
 theory_abbreviation b97d
 ------------------------
 Symbolic Z-matrix:
 Charge =  0 Multiplicity = 6

 SCF Done:  E(UB97D) =  -3034.57006428     A.U. after   15 cycles

 ----------------------------------------------------------------
 #t pop=none jul-cc-pvdz guess=read ub97d empiricaldispersion=gd3
 ----------------------------------------------------------------
 -------------------------
 theory_abbreviation b97d3
 -------------------------
 Symbolic Z-matrix:
 Charge =  0 Multiplicity = 6

 SCF Done:  E(UB97D) =  -3034.57103496     A.U. after    3 cycles
 SCF Done:  E(UBHandHLYP) =  -3033.96250428     A.U. after   16 cycles
 SCF Done:  E(UBHandH) =  -3026.30797103     A.U. after   14 cycles
 SCF Done:  E(ULC-wPBE) =  -3033.44977786     A.U. after   17 cycles
 SCF Done:  E(UB-P86) =  -3034.62547989     A.U. after   16 cycles
 SCF Done:  E(UmPW1LYP) =  -3034.03790965     A.U. after   14 cycles
 SCF Done:  E(UmPW1PBE) =  -3033.88064027     A.U. after   14 cycles
 SCF Done:  E(UmPW3PBE) =  -3033.65290509     A.U. after   13 cycles
 SCF Done:  E(UM11) =  -3033.80141816     A.U. after   16 cycles
 SCF Done:  E(UN12SX) =  -3033.24632750     A.U. after   15 cycles
 SCF Done:  E(UMN12SX) =  -3033.64255720     A.U. after   15 cycles
 SCF Done:  E(UB1B95) =  -3034.37218033     A.U. after   14 cycles
 Normal termination of Gaussian 16 at Tue Feb 11 22:24:09 2020.
 SCF Done:  E(UB3PW91) =  -3033.96831904     A.U. after   14 cycles
 Normal termination of Gaussian 16 at Tue Feb 11 22:39:08 2020.
 SCF Done:  E(UM06L) =  -3034.18347657     A.U. after   18 cycles
 Normal termination of Gaussian 16 at Tue Feb 11 23:00:50 2020.
 Gaussian 16:  ES64L-G16RevA.03 25-Dec-2016

                         Standard orientation:
 ---------------------------------------------------------------------
 Center     Atomic      Atomic             Coordinates (Angstroms)
 Number     Number       Type             X           Y           Z
 ---------------------------------------------------------------------
      1          8           0       -0.369488   -0.216748   -0.558510
      2          6           0       -1.390293   -1.197200   -0.404465
      3          6           0       -2.817080   -0.128413   -0.155533
      4          6           0       -2.026405    1.121707   -0.265746
      5          6           0       -1.919012    1.815508   -1.569005
      6         26           0        1.379311    0.042867    0.033907
      7         17           0        1.797303    2.051884   -0.813086
      8          6           0       -1.571272    1.849051    0.939226
      9         17           0        2.575503   -1.640742   -0.708829
     10         17           0        1.302599    0.131275    2.252765
     11          1           0       -3.445268   -0.261796   -1.038992
     12          1           0       -2.434797    2.439800    1.288982
     13          1           0       -1.279668    1.181399    1.751133
     14          1           0       -0.751310    2.533186    0.712559
     15          1           0       -2.662916    2.629975   -1.556477
     16          1           0       -0.929911    2.268185   -1.685270
     17          1           0       -2.144015    1.159429   -2.410775
     18          6           0       -3.596054   -0.372119    1.126560
     19          1           0       -4.407039    0.357208    1.241173
     20          1           0       -4.051562   -1.366024    1.096606
     21          1           0       -2.967497   -0.321565    2.018352
     22          6           0       -1.158497   -2.091915    0.791903
     23          1           0       -1.982011   -2.798933    0.929823
     24          1           0       -0.241456   -2.666418    0.609587
     25          1           0       -1.006423   -1.519861    1.708696
     26          6           0       -1.570437   -1.959390   -1.700461
     27          1           0       -0.643326   -2.506717   -1.908620
     28          1           0       -2.396723   -2.674941   -1.632891
     29          1           0       -1.749862   -1.277949   -2.536721
 ---------------------------------------------------------------------

 SCF Done:  E(UB97D3) =  -3034.60608628     A.U. after   15 cycles
 Normal termination of Gaussian 16 at Tue Feb 11 23:13:00 2020.
