 Gaussian 16, Revision A.03,

 --------------------------------
 #t pop=none jul-cc-pvdz upbe1pbe
 --------------------------------
 ------------------------
 theory_abbreviation pbe0
 ------------------------
 Symbolic Z-matrix:
 Charge =  0 Multiplicity = 6

 SCF Done:  E(UPBE1PBE) =  -3033.11505603     A.U. after   21 cycles
 Normal termination of Gaussian 16 at Tue Feb 11 14:48:48 2020.

 ---------------------------------------------------------------------
 #t pop=none jul-cc-pvdz guess=read upbe1pbe empiricaldispersion=gd3bj
 ---------------------------------------------------------------------
 -----------------------------
 theory_abbreviation pbe0_d3bj
 -----------------------------
 Symbolic Z-matrix:
 Charge =  0 Multiplicity = 6

 SCF Done:  E(UPBE1PBE) =  -3033.15199138     A.U. after    1 cycles
 Normal termination of Gaussian 16 at Tue Feb 11 14:49:59 2020.

 -----------------------------------------
 #t pop=none jul-cc-pvdz guess=read ub3lyp
 -----------------------------------------
 -------------------------
 theory_abbreviation b3lyp
 -------------------------
 Symbolic Z-matrix:
 Charge =  0 Multiplicity = 6

 SCF Done:  E(UB3LYP) =  -3034.32954834     A.U. after   13 cycles
 Normal termination of Gaussian 16 at Tue Feb 11 15:03:48 2020.

 -------------------------------------------------------------------
 #t pop=none jul-cc-pvdz guess=read ub3lyp empiricaldispersion=gd3bj
 -------------------------------------------------------------------
 ------------------------------
 theory_abbreviation b3lyp_d3bj
 ------------------------------
 Symbolic Z-matrix:
 Charge =  0 Multiplicity = 6

 SCF Done:  E(UB3LYP) =  -3034.39835678     A.U. after    1 cycles
 Normal termination of Gaussian 16 at Tue Feb 11 15:04:59 2020.

 ----------------------------------------
 #t pop=none jul-cc-pvdz guess=read ub97d
 ----------------------------------------
 ------------------------
 theory_abbreviation b97d
 ------------------------
 Symbolic Z-matrix:
 Charge =  0 Multiplicity = 6

 SCF Done:  E(UB97D) =  -3034.58293701     A.U. after   15 cycles

 ----------------------------------------------------------------
 #t pop=none jul-cc-pvdz guess=read ub97d empiricaldispersion=gd3
 ----------------------------------------------------------------
 -------------------------
 theory_abbreviation b97d3
 -------------------------
 Symbolic Z-matrix:
 Charge =  0 Multiplicity = 6

 SCF Done:  E(UB97D) =  -3034.58375780     A.U. after    1 cycles
 SCF Done:  E(UBHandHLYP) =  -3033.96962225     A.U. after   17 cycles
 SCF Done:  E(UBHandH) =  -3026.31499536     A.U. after   16 cycles
 SCF Done:  E(ULC-wPBE) =  -3033.45357752     A.U. after   19 cycles
 SCF Done:  E(UB-P86) =  -3034.63503217     A.U. after   17 cycles
 SCF Done:  E(UmPW1LYP) =  -3034.04742379     A.U. after   16 cycles
 SCF Done:  E(UmPW1PBE) =  -3033.88950039     A.U. after   16 cycles
 SCF Done:  E(UmPW3PBE) =  -3033.66232314     A.U. after   13 cycles
 SCF Done:  E(UM11) =  -3033.81193482     A.U. after   19 cycles
 SCF Done:  E(UN12SX) =  -3033.25454276     A.U. after   17 cycles
 SCF Done:  E(UMN12SX) =  -3033.65224973     A.U. after   17 cycles
 SCF Done:  E(UB1B95) =  -3034.38336684     A.U. after   16 cycles
 Normal termination of Gaussian 16 at Tue Feb 11 23:56:30 2020.
 SCF Done:  E(UB3PW91) =  -3033.97788060     A.U. after   15 cycles
 Normal termination of Gaussian 16 at Wed Feb 12 00:12:00 2020.
 SCF Done:  E(UM06L) =  -3034.19603823     A.U. after   18 cycles
 Normal termination of Gaussian 16 at Wed Feb 12 00:31:27 2020.
 Gaussian 16:  ES64L-G16RevA.03 25-Dec-2016

                         Standard orientation:
 ---------------------------------------------------------------------
 Center     Atomic      Atomic             Coordinates (Angstroms)
 Number     Number       Type             X           Y           Z
 ---------------------------------------------------------------------
      1          8           0       -0.303589   -0.205753   -0.678962
      2          6           0       -1.190243   -1.137766   -0.520084
      3          6           0       -2.716627   -0.354752    0.602208
      4          6           0       -2.700967    0.863093   -0.046389
      5          6           0       -3.497724    1.105066   -1.287815
      6         26           0        1.454998    0.152898   -0.041841
      7         17           0        1.923258    2.094908   -0.947651
      8          6           0       -1.825668    1.980590    0.384246
      9         17           0        2.659785   -1.547416   -0.726660
     10         17           0        1.333414    0.273831    2.162154
     11          1           0       -3.477846   -1.056670    0.263873
     12          1           0       -2.288640    2.951534    0.182198
     13          1           0       -1.513383    1.924016    1.426869
     14          1           0       -0.914179    1.931795   -0.234407
     15          1           0       -4.204390    1.923409   -1.094883
     16          1           0       -2.849692    1.446506   -2.105747
     17          1           0       -4.067034    0.231383   -1.609324
     18          6           0       -2.336951   -0.477541    2.066652
     19          1           0       -3.030331    0.117417    2.672940
     20          1           0       -2.416495   -1.512235    2.404816
     21          1           0       -1.323726   -0.129211    2.275937
     22          6           0       -0.818131   -2.294443    0.390873
     23          1           0       -1.662140   -2.957230    0.593719
     24          1           0       -0.052885   -2.859985   -0.156911
     25          1           0       -0.367540   -1.956818    1.323542
     26          6           0       -1.877207   -1.564697   -1.806153
     27          1           0       -1.156257   -2.199207   -2.336396
     28          1           0       -2.782444   -2.150962   -1.631580
     29          1           0       -2.092924   -0.712853   -2.449647
 ---------------------------------------------------------------------

 SCF Done:  E(UB97D3) =  -3034.61847388     A.U. after   15 cycles
 Normal termination of Gaussian 16 at Wed Feb 12 00:43:15 2020.
