 Gaussian 16, Revision A.03,

 --------------------------------
 #t pop=none jul-cc-pvdz upbe1pbe
 --------------------------------
 ------------------------
 theory_abbreviation pbe0
 ------------------------
 Symbolic Z-matrix:
 Charge =  0 Multiplicity = 6

 SCF Done:  E(UPBE1PBE) =  -3033.13945030     A.U. after   20 cycles
 Normal termination of Gaussian 16 at Wed Feb 12 15:27:42 2020.

 ---------------------------------------------------------------------
 #t pop=none jul-cc-pvdz guess=read upbe1pbe empiricaldispersion=gd3bj
 ---------------------------------------------------------------------
 -----------------------------
 theory_abbreviation pbe0_d3bj
 -----------------------------
 Symbolic Z-matrix:
 Charge =  0 Multiplicity = 6

 SCF Done:  E(UPBE1PBE) =  -3033.17540525     A.U. after    1 cycles
 Normal termination of Gaussian 16 at Wed Feb 12 15:28:52 2020.

 -----------------------------------------
 #t pop=none jul-cc-pvdz guess=read ub3lyp
 -----------------------------------------
 -------------------------
 theory_abbreviation b3lyp
 -------------------------
 Symbolic Z-matrix:
 Charge =  0 Multiplicity = 6

 SCF Done:  E(UB3LYP) =  -3034.35831544     A.U. after   13 cycles
 Normal termination of Gaussian 16 at Wed Feb 12 15:42:21 2020.

 -------------------------------------------------------------------
 #t pop=none jul-cc-pvdz guess=read ub3lyp empiricaldispersion=gd3bj
 -------------------------------------------------------------------
 ------------------------------
 theory_abbreviation b3lyp_d3bj
 ------------------------------
 Symbolic Z-matrix:
 Charge =  0 Multiplicity = 6

 SCF Done:  E(UB3LYP) =  -3034.42475555     A.U. after    1 cycles
 Normal termination of Gaussian 16 at Wed Feb 12 15:43:31 2020.

 ----------------------------------------
 #t pop=none jul-cc-pvdz guess=read ub97d
 ----------------------------------------
 ------------------------
 theory_abbreviation b97d
 ------------------------
 Symbolic Z-matrix:
 Charge =  0 Multiplicity = 6

 SCF Done:  E(UB97D) =  -3034.60729378     A.U. after   18 cycles

 ----------------------------------------------------------------
 #t pop=none jul-cc-pvdz guess=read ub97d empiricaldispersion=gd3
 ----------------------------------------------------------------
 -------------------------
 theory_abbreviation b97d3
 -------------------------
 Symbolic Z-matrix:
 Charge =  0 Multiplicity = 6

 SCF Done:  E(UB97D) =  -3034.60926149     A.U. after    1 cycles
 SCF Done:  E(UBHandHLYP) =  -3034.00039414     A.U. after   18 cycles
 SCF Done:  E(UBHandH) =  -3026.33474109     A.U. after   14 cycles
 SCF Done:  E(ULC-wPBE) =  -3033.48096279     A.U. after   17 cycles
 SCF Done:  E(UB-P86) =  -3034.65620843     A.U. after   17 cycles
 SCF Done:  E(UmPW1LYP) =  -3034.07670437     A.U. after   13 cycles
 SCF Done:  E(UmPW1PBE) =  -3033.91394918     A.U. after   14 cycles
 SCF Done:  E(UmPW3PBE) =  -3033.68691167     A.U. after   13 cycles
 SCF Done:  E(UM11) =  -3033.83840589     A.U. after   17 cycles
 SCF Done:  E(UN12SX) =  -3033.27843240     A.U. after   16 cycles
 SCF Done:  E(UMN12SX) =  -3033.68095168     A.U. after   16 cycles
 SCF Done:  E(UB1B95) =  -3034.41043105     A.U. after   14 cycles
 Normal termination of Gaussian 16 at Wed Feb 12 23:10:50 2020.
 SCF Done:  E(UB3PW91) =  -3034.00327333     A.U. after   14 cycles
 Normal termination of Gaussian 16 at Wed Feb 12 23:24:13 2020.
 SCF Done:  E(UM06L) =  -3034.22503330     A.U. after   17 cycles
 Normal termination of Gaussian 16 at Wed Feb 12 23:42:01 2020.
 Gaussian 16:  ES64L-G16RevA.03 25-Dec-2016

                         Standard orientation:
 ---------------------------------------------------------------------
 Center     Atomic      Atomic             Coordinates (Angstroms)
 Number     Number       Type             X           Y           Z
 ---------------------------------------------------------------------
      1          8           0        0.180217    0.455978   -0.867777
      2          6           0        0.902246    1.448444   -0.639129
      3          6           0        3.190698    0.007058    0.538959
      4          6           0        2.653693   -0.931654   -0.262438
      5          6           0        3.053854   -1.044936   -1.710467
      6         26           0       -1.480704   -0.177983    0.024790
      7         17           0       -2.068176   -1.944840   -1.091880
      8          6           0        1.703255   -2.001344    0.195796
      9         17           0       -2.746680    1.584577   -0.257659
     10         17           0       -1.039496   -0.533297    2.141366
     11          1           0        3.925127    0.681189    0.094856
     12          1           0        2.199454   -2.980336    0.147408
     13          1           0        1.338306   -1.860157    1.212887
     14          1           0        0.838390   -2.068247   -0.475222
     15          1           0        3.526834   -2.017952   -1.898175
     16          1           0        2.172872   -1.000875   -2.364119
     17          1           0        3.760149   -0.265146   -2.011353
     18          6           0        2.994888    0.162378    2.021716
     19          1           0        3.840145   -0.276120    2.569992
     20          1           0        2.954954    1.219405    2.309506
     21          1           0        2.082479   -0.318137    2.383504
     22          6           0        0.773542    2.230176    0.628421
     23          1           0        1.643692    2.863653    0.806390
     24          1           0       -0.113075    2.871795    0.516561
     25          1           0        0.592303    1.574108    1.481184
     26          6           0        1.736270    2.003015   -1.749881
     27          1           0        1.229994    2.912735   -2.104367
     28          1           0        2.725769    2.297461   -1.394190
     29          1           0        1.812452    1.298042   -2.576086
 ---------------------------------------------------------------------

 SCF Done:  E(UB97D3) =  -3034.64366546     A.U. after   16 cycles
 Normal termination of Gaussian 16 at Wed Feb 12 23:54:11 2020.
