 Gaussian 16, Revision A.03,

 --------------------------------
 #t pop=none jul-cc-pvdz upbe1pbe
 --------------------------------
 ------------------------
 theory_abbreviation pbe0
 ------------------------
 Symbolic Z-matrix:
 Charge =  0 Multiplicity = 6

 SCF Done:  E(UPBE1PBE) =  -3033.12703871     A.U. after   19 cycles
 Normal termination of Gaussian 16 at Tue Feb 11 13:57:52 2020.

 ---------------------------------------------------------------------
 #t pop=none jul-cc-pvdz guess=read upbe1pbe empiricaldispersion=gd3bj
 ---------------------------------------------------------------------
 -----------------------------
 theory_abbreviation pbe0_d3bj
 -----------------------------
 Symbolic Z-matrix:
 Charge =  0 Multiplicity = 6

 SCF Done:  E(UPBE1PBE) =  -3033.16416350     A.U. after    1 cycles
 Normal termination of Gaussian 16 at Tue Feb 11 13:59:02 2020.

 -----------------------------------------
 #t pop=none jul-cc-pvdz guess=read ub3lyp
 -----------------------------------------
 -------------------------
 theory_abbreviation b3lyp
 -------------------------
 Symbolic Z-matrix:
 Charge =  0 Multiplicity = 6

 SCF Done:  E(UB3LYP) =  -3034.34404966     A.U. after   13 cycles
 Normal termination of Gaussian 16 at Tue Feb 11 14:12:42 2020.

 -------------------------------------------------------------------
 #t pop=none jul-cc-pvdz guess=read ub3lyp empiricaldispersion=gd3bj
 -------------------------------------------------------------------
 ------------------------------
 theory_abbreviation b3lyp_d3bj
 ------------------------------
 Symbolic Z-matrix:
 Charge =  0 Multiplicity = 6

 SCF Done:  E(UB3LYP) =  -3034.41299558     A.U. after    1 cycles
 Normal termination of Gaussian 16 at Tue Feb 11 14:13:52 2020.

 ----------------------------------------
 #t pop=none jul-cc-pvdz guess=read ub97d
 ----------------------------------------
 ------------------------
 theory_abbreviation b97d
 ------------------------
 Symbolic Z-matrix:
 Charge =  0 Multiplicity = 6

 SCF Done:  E(UB97D) =  -3034.59567154     A.U. after   15 cycles

 ----------------------------------------------------------------
 #t pop=none jul-cc-pvdz guess=read ub97d empiricaldispersion=gd3
 ----------------------------------------------------------------
 -------------------------
 theory_abbreviation b97d3
 -------------------------
 Symbolic Z-matrix:
 Charge =  0 Multiplicity = 6

 SCF Done:  E(UB97D) =  -3034.59767300     A.U. after    1 cycles
 SCF Done:  E(UBHandHLYP) =  -3033.98598259     A.U. after   15 cycles
 SCF Done:  E(UBHandH) =  -3026.32573053     A.U. after   14 cycles
 SCF Done:  E(ULC-wPBE) =  -3033.46850977     A.U. after   17 cycles
 SCF Done:  E(UB-P86) =  -3034.64635400     A.U. after   17 cycles
 SCF Done:  E(UmPW1LYP) =  -3034.06233343     A.U. after   13 cycles
 SCF Done:  E(UmPW1PBE) =  -3033.90152563     A.U. after   14 cycles
 SCF Done:  E(UmPW3PBE) =  -3033.67438151     A.U. after   13 cycles
 SCF Done:  E(UM11) =  -3033.82575246     A.U. after   17 cycles
 SCF Done:  E(UN12SX) =  -3033.26580638     A.U. after   17 cycles
 SCF Done:  E(UMN12SX) =  -3033.66799424     A.U. after   16 cycles
 SCF Done:  E(UB1B95) =  -3034.39772954     A.U. after   14 cycles
 Normal termination of Gaussian 16 at Tue Feb 11 22:24:42 2020.
 SCF Done:  E(UB3PW91) =  -3033.99036867     A.U. after   15 cycles
 Normal termination of Gaussian 16 at Tue Feb 11 22:40:15 2020.
 SCF Done:  E(UM06L) =  -3034.21301182     A.U. after   17 cycles
 Normal termination of Gaussian 16 at Tue Feb 11 23:00:50 2020.
 Gaussian 16:  ES64L-G16RevA.03 25-Dec-2016

                         Standard orientation:
 ---------------------------------------------------------------------
 Center     Atomic      Atomic             Coordinates (Angstroms)
 Number     Number       Type             X           Y           Z
 ---------------------------------------------------------------------
      1          8           0       -0.285412   -0.234464   -0.737732
      2          6           0       -1.081961   -1.200878   -0.615198
      3          6           0       -3.221102    0.021994    0.214654
      4          6           0       -2.437721    1.031913   -0.221672
      5          6           0       -2.493870    1.510317   -1.644786
      6         26           0        1.473249    0.107741    0.054039
      7         17           0        2.106283    1.979259   -0.862372
      8          6           0       -1.569784    1.861687    0.679377
      9         17           0        2.542092   -1.695251   -0.590212
     10         17           0        1.277465    0.190515    2.238338
     11          1           0       -3.886624   -0.443257   -0.511944
     12          1           0       -2.117499    2.771814    0.961122
     13          1           0       -1.276198    1.354539    1.598918
     14          1           0       -0.664867    2.192605    0.160576
     15          1           0       -2.783479    2.569028   -1.662428
     16          1           0       -1.504167    1.450371   -2.113040
     17          1           0       -3.218354    0.955132   -2.247449
     18          6           0       -3.447118   -0.386321    1.644338
     19          1           0       -4.357176    0.092752    2.030796
     20          1           0       -3.599785   -1.466815    1.739445
     21          1           0       -2.625540   -0.099604    2.305611
     22          6           0       -1.016419   -2.090399    0.586059
     23          1           0       -1.911829   -2.701865    0.698436
     24          1           0       -0.158440   -2.759250    0.418155
     25          1           0       -0.811688   -1.525434    1.495954
     26          6           0       -1.760926   -1.713323   -1.849302
     27          1           0       -1.058344   -2.434291   -2.293942
     28          1           0       -2.689777   -2.239871   -1.626407
     29          1           0       -1.923267   -0.918223   -2.575599
 ---------------------------------------------------------------------

 SCF Done:  E(UB97D3) =  -3034.63263233     A.U. after   17 cycles
 Normal termination of Gaussian 16 at Tue Feb 11 23:14:25 2020.
