 Gaussian 16, Revision A.03,

 --------------------------------
 #t pop=none jul-cc-pvdz upbe1pbe
 --------------------------------
 ------------------------
 theory_abbreviation pbe0
 ------------------------
 Symbolic Z-matrix:
 Charge =  0 Multiplicity = 6

 SCF Done:  E(UPBE1PBE) =  -3033.11422639     A.U. after   21 cycles
 Normal termination of Gaussian 16 at Tue Feb 11 20:06:39 2020.

 ---------------------------------------------------------------------
 #t pop=none jul-cc-pvdz guess=read upbe1pbe empiricaldispersion=gd3bj
 ---------------------------------------------------------------------
 -----------------------------
 theory_abbreviation pbe0_d3bj
 -----------------------------
 Symbolic Z-matrix:
 Charge =  0 Multiplicity = 6

 SCF Done:  E(UPBE1PBE) =  -3033.15069321     A.U. after    1 cycles
 Normal termination of Gaussian 16 at Tue Feb 11 20:07:51 2020.

 -----------------------------------------
 #t pop=none jul-cc-pvdz guess=read ub3lyp
 -----------------------------------------
 -------------------------
 theory_abbreviation b3lyp
 -------------------------
 Symbolic Z-matrix:
 Charge =  0 Multiplicity = 6

 SCF Done:  E(UB3LYP) =  -3034.32836066     A.U. after   13 cycles
 Normal termination of Gaussian 16 at Tue Feb 11 20:21:39 2020.

 -------------------------------------------------------------------
 #t pop=none jul-cc-pvdz guess=read ub3lyp empiricaldispersion=gd3bj
 -------------------------------------------------------------------
 ------------------------------
 theory_abbreviation b3lyp_d3bj
 ------------------------------
 Symbolic Z-matrix:
 Charge =  0 Multiplicity = 6

 SCF Done:  E(UB3LYP) =  -3034.39631824     A.U. after    1 cycles
 Normal termination of Gaussian 16 at Tue Feb 11 20:22:51 2020.

 ----------------------------------------
 #t pop=none jul-cc-pvdz guess=read ub97d
 ----------------------------------------
 ------------------------
 theory_abbreviation b97d
 ------------------------
 Symbolic Z-matrix:
 Charge =  0 Multiplicity = 6

 SCF Done:  E(UB97D) =  -3034.58106301     A.U. after   17 cycles

 ----------------------------------------------------------------
 #t pop=none jul-cc-pvdz guess=read ub97d empiricaldispersion=gd3
 ----------------------------------------------------------------
 -------------------------
 theory_abbreviation b97d3
 -------------------------
 Symbolic Z-matrix:
 Charge =  0 Multiplicity = 6

 SCF Done:  E(UB97D) =  -3034.58176006     A.U. after    1 cycles
 SCF Done:  E(UBHandHLYP) =  -3033.96835078     A.U. after   17 cycles
 SCF Done:  E(UBHandH) =  -3026.31435208     A.U. after   16 cycles
 SCF Done:  E(ULC-wPBE) =  -3033.45229651     A.U. after   18 cycles
 SCF Done:  E(UB-P86) =  -3034.63336515     A.U. after   17 cycles
 SCF Done:  E(UmPW1LYP) =  -3034.04614738     A.U. after   16 cycles
 SCF Done:  E(UmPW1PBE) =  -3033.88872428     A.U. after   16 cycles
 SCF Done:  E(UmPW3PBE) =  -3033.66150604     A.U. after   15 cycles
 SCF Done:  E(UM11) =  -3033.81038774     A.U. after   19 cycles
 SCF Done:  E(UN12SX) =  -3033.25370815     A.U. after   17 cycles
 SCF Done:  E(UMN12SX) =  -3033.65039406     A.U. after   17 cycles
 SCF Done:  E(UB1B95) =  -3034.38198968     A.U. after   16 cycles
 Normal termination of Gaussian 16 at Wed Feb 12 05:22:40 2020.
 SCF Done:  E(UB3PW91) =  -3033.97704794     A.U. after   15 cycles
 Normal termination of Gaussian 16 at Wed Feb 12 05:38:25 2020.
 SCF Done:  E(UM06L) =  -3034.19423595     A.U. after   17 cycles
 Normal termination of Gaussian 16 at Wed Feb 12 05:57:28 2020.
 Gaussian 16:  ES64L-G16RevA.03 25-Dec-2016

                         Standard orientation:
 ---------------------------------------------------------------------
 Center     Atomic      Atomic             Coordinates (Angstroms)
 Number     Number       Type             X           Y           Z
 ---------------------------------------------------------------------
      1          8           0       -0.333095   -0.162800   -0.553599
      2          6           0       -1.189134   -1.129790   -0.395302
      3          6           0       -2.678534   -0.362636    0.697018
      4          6           0       -2.811647    0.788126   -0.061165
      5          6           0       -3.721288    0.850096   -1.244064
      6         26           0        1.472068    0.168545   -0.063266
      7         17           0        1.838742    2.157803   -0.915616
      8          6           0       -2.008350    1.999837    0.212826
      9         17           0        2.599762   -1.494459   -0.948905
     10         17           0        1.570717    0.177975    2.144012
     11          1           0       -3.411489   -1.142897    0.493747
     12          1           0       -2.440210    2.895153   -0.241014
     13          1           0       -1.819809    2.165615    1.275392
     14          1           0       -1.023845    1.830003   -0.258832
     15          1           0       -4.504302    1.591901   -1.033063
     16          1           0       -3.188555    1.214757   -2.131729
     17          1           0       -4.204291   -0.102362   -1.467791
     18          6           0       -2.181689   -0.289142    2.129819
     19          1           0       -2.840861    0.362323    2.715518
     20          1           0       -2.195432   -1.274232    2.599069
     21          1           0       -1.165714    0.105896    2.202349
     22          6           0       -0.774920   -2.268685    0.525439
     23          1           0       -1.603097   -2.944251    0.752589
     24          1           0       -0.009449   -2.828556   -0.027342
     25          1           0       -0.315080   -1.909168    1.445015
     26          6           0       -1.831223   -1.607772   -1.687781
     27          1           0       -1.080549   -2.231315   -2.188149
     28          1           0       -2.722627   -2.217419   -1.518688
     29          1           0       -2.059735   -0.777831   -2.355430
 ---------------------------------------------------------------------

 SCF Done:  E(UB97D3) =  -3034.61619731     A.U. after   17 cycles
 Normal termination of Gaussian 16 at Wed Feb 12 06:11:10 2020.
