 Gaussian 16, Revision A.03,

 --------------------------------
 #t pop=none jul-cc-pvdz upbe1pbe
 --------------------------------
 ------------------------
 theory_abbreviation pbe0
 ------------------------
 Symbolic Z-matrix:
 Charge =  0 Multiplicity = 6

 SCF Done:  E(UPBE1PBE) =  -3033.11954191     A.U. after   20 cycles
 Normal termination of Gaussian 16 at Tue Feb 11 13:57:50 2020.

 ---------------------------------------------------------------------
 #t pop=none jul-cc-pvdz guess=read upbe1pbe empiricaldispersion=gd3bj
 ---------------------------------------------------------------------
 -----------------------------
 theory_abbreviation pbe0_d3bj
 -----------------------------
 Symbolic Z-matrix:
 Charge =  0 Multiplicity = 6

 SCF Done:  E(UPBE1PBE) =  -3033.15704327     A.U. after    1 cycles
 Normal termination of Gaussian 16 at Tue Feb 11 13:59:44 2020.

 -----------------------------------------
 #t pop=none jul-cc-pvdz guess=read ub3lyp
 -----------------------------------------
 -------------------------
 theory_abbreviation b3lyp
 -------------------------
 Symbolic Z-matrix:
 Charge =  0 Multiplicity = 6

 SCF Done:  E(UB3LYP) =  -3034.33495126     A.U. after   13 cycles
 Normal termination of Gaussian 16 at Tue Feb 11 14:13:05 2020.

 -------------------------------------------------------------------
 #t pop=none jul-cc-pvdz guess=read ub3lyp empiricaldispersion=gd3bj
 -------------------------------------------------------------------
 ------------------------------
 theory_abbreviation b3lyp_d3bj
 ------------------------------
 Symbolic Z-matrix:
 Charge =  0 Multiplicity = 6

 SCF Done:  E(UB3LYP) =  -3034.40480821     A.U. after    1 cycles
 Normal termination of Gaussian 16 at Tue Feb 11 14:14:22 2020.

 ----------------------------------------
 #t pop=none jul-cc-pvdz guess=read ub97d
 ----------------------------------------
 ------------------------
 theory_abbreviation b97d
 ------------------------
 Symbolic Z-matrix:
 Charge =  0 Multiplicity = 6

 SCF Done:  E(UB97D) =  -3034.58892746     A.U. after   15 cycles

 ----------------------------------------------------------------
 #t pop=none jul-cc-pvdz guess=read ub97d empiricaldispersion=gd3
 ----------------------------------------------------------------
 -------------------------
 theory_abbreviation b97d3
 -------------------------
 Symbolic Z-matrix:
 Charge =  0 Multiplicity = 6

 SCF Done:  E(UB97D) =  -3034.58997412     A.U. after    1 cycles
 SCF Done:  E(UBHandHLYP) =  -3033.97544552     A.U. after   18 cycles
 SCF Done:  E(UBHandH) =  -3026.31914266     A.U. after   16 cycles
 SCF Done:  E(ULC-wPBE) =  -3033.45905533     A.U. after   19 cycles
 SCF Done:  E(UB-P86) =  -3034.64036817     A.U. after   17 cycles
 SCF Done:  E(UmPW1LYP) =  -3034.05299257     A.U. after   15 cycles
 SCF Done:  E(UmPW1PBE) =  -3033.89394368     A.U. after   15 cycles
 SCF Done:  E(UmPW3PBE) =  -3033.66682606     A.U. after   13 cycles
 SCF Done:  E(UM11) =  -3033.81713109     A.U. after   19 cycles
 SCF Done:  E(UN12SX) =  -3033.25877405     A.U. after   17 cycles
 SCF Done:  E(UMN12SX) =  -3033.65843564     A.U. after   16 cycles
 SCF Done:  E(UB1B95) =  -3034.38883063     A.U. after   15 cycles
 Normal termination of Gaussian 16 at Tue Feb 11 23:06:11 2020.
 SCF Done:  E(UB3PW91) =  -3033.98248601     A.U. after   15 cycles
 Normal termination of Gaussian 16 at Tue Feb 11 23:22:41 2020.
 SCF Done:  E(UM06L) =  -3034.20264559     A.U. after   18 cycles
 Normal termination of Gaussian 16 at Tue Feb 11 23:42:20 2020.
 Gaussian 16:  ES64L-G16RevA.03 25-Dec-2016

                         Standard orientation:
 ---------------------------------------------------------------------
 Center     Atomic      Atomic             Coordinates (Angstroms)
 Number     Number       Type             X           Y           Z
 ---------------------------------------------------------------------
      1          8           0       -0.277352   -0.234701   -0.776840
      2          6           0       -1.156718   -1.152807   -0.612167
      3          6           0       -2.816054   -0.279101    0.538156
      4          6           0       -2.611951    0.925694   -0.074603
      5          6           0       -3.246622    1.263267   -1.388497
      6         26           0        1.448287    0.141209   -0.018358
      7         17           0        2.006351    2.061466   -0.904224
      8          6           0       -1.705533    1.975126    0.473438
      9         17           0        2.662949   -1.580776   -0.620930
     10         17           0        1.188706    0.253852    2.171795
     11          1           0       -3.570883   -0.925834    0.093992
     12          1           0       -2.240230    2.930967    0.541691
     13          1           0       -1.285512    1.733553    1.448445
     14          1           0       -0.875117    2.136851   -0.227844
     15          1           0       -3.827881    2.187951   -1.280264
     16          1           0       -2.478106    1.470216   -2.145130
     17          1           0       -3.916040    0.480979   -1.752154
     18          6           0       -2.548918   -0.520867    2.008202
     19          1           0       -3.285954    0.030737    2.605136
     20          1           0       -2.657630   -1.577483    2.261595
     21          1           0       -1.555817   -0.196603    2.325389
     22          6           0       -0.857516   -2.263611    0.366153
     23          1           0       -1.720771   -2.905662    0.548585
     24          1           0       -0.072354   -2.863539   -0.115179
     25          1           0       -0.450322   -1.891686    1.305530
     26          6           0       -1.888760   -1.577558   -1.866225
     27          1           0       -1.194339   -2.238977   -2.401395
     28          1           0       -2.799871   -2.141221   -1.657435
     29          1           0       -2.099455   -0.732145   -2.518574
 ---------------------------------------------------------------------

 SCF Done:  E(UB97D3) =  -3034.62525165     A.U. after   15 cycles
 Normal termination of Gaussian 16 at Tue Feb 11 23:54:38 2020.
