 Gaussian 16, Revision A.03,

 --------------------------------
 #t pop=none jul-cc-pvdz upbe1pbe
 --------------------------------
 ------------------------
 theory_abbreviation pbe0
 ------------------------
 Symbolic Z-matrix:
 Charge =  0 Multiplicity = 6

 SCF Done:  E(UPBE1PBE) =  -3033.11399343     A.U. after   21 cycles
 Normal termination of Gaussian 16 at Tue Feb 11 14:01:25 2020.

 ---------------------------------------------------------------------
 #t pop=none jul-cc-pvdz guess=read upbe1pbe empiricaldispersion=gd3bj
 ---------------------------------------------------------------------
 -----------------------------
 theory_abbreviation pbe0_d3bj
 -----------------------------
 Symbolic Z-matrix:
 Charge =  0 Multiplicity = 6

 SCF Done:  E(UPBE1PBE) =  -3033.15117793     A.U. after    1 cycles
 Normal termination of Gaussian 16 at Tue Feb 11 14:02:36 2020.

 -----------------------------------------
 #t pop=none jul-cc-pvdz guess=read ub3lyp
 -----------------------------------------
 -------------------------
 theory_abbreviation b3lyp
 -------------------------
 Symbolic Z-matrix:
 Charge =  0 Multiplicity = 6

 SCF Done:  E(UB3LYP) =  -3034.32824055     A.U. after   13 cycles
 Normal termination of Gaussian 16 at Tue Feb 11 14:16:36 2020.

 -------------------------------------------------------------------
 #t pop=none jul-cc-pvdz guess=read ub3lyp empiricaldispersion=gd3bj
 -------------------------------------------------------------------
 ------------------------------
 theory_abbreviation b3lyp_d3bj
 ------------------------------
 Symbolic Z-matrix:
 Charge =  0 Multiplicity = 6

 SCF Done:  E(UB3LYP) =  -3034.39754763     A.U. after    1 cycles
 Normal termination of Gaussian 16 at Tue Feb 11 14:17:47 2020.

 ----------------------------------------
 #t pop=none jul-cc-pvdz guess=read ub97d
 ----------------------------------------
 ------------------------
 theory_abbreviation b97d
 ------------------------
 Symbolic Z-matrix:
 Charge =  0 Multiplicity = 6

 SCF Done:  E(UB97D) =  -3034.58208876     A.U. after   15 cycles

 ----------------------------------------------------------------
 #t pop=none jul-cc-pvdz guess=read ub97d empiricaldispersion=gd3
 ----------------------------------------------------------------
 -------------------------
 theory_abbreviation b97d3
 -------------------------
 Symbolic Z-matrix:
 Charge =  0 Multiplicity = 6

 SCF Done:  E(UB97D) =  -3034.58271373     A.U. after    1 cycles
 SCF Done:  E(UBHandHLYP) =  -3033.96879254     A.U. after   17 cycles
 SCF Done:  E(UBHandH) =  -3026.31461965     A.U. after   16 cycles
 SCF Done:  E(ULC-wPBE) =  -3033.45304590     A.U. after   19 cycles
 SCF Done:  E(UB-P86) =  -3034.63407678     A.U. after   17 cycles
 SCF Done:  E(UmPW1LYP) =  -3034.04622423     A.U. after   16 cycles
 SCF Done:  E(UmPW1PBE) =  -3033.88837574     A.U. after   16 cycles
 SCF Done:  E(UmPW3PBE) =  -3033.66112350     A.U. after   14 cycles
 SCF Done:  E(UM11) =  -3033.81159252     A.U. after   19 cycles
 SCF Done:  E(UN12SX) =  -3033.25361855     A.U. after   17 cycles
 SCF Done:  E(UMN12SX) =  -3033.65195836     A.U. after   17 cycles
 SCF Done:  E(UB1B95) =  -3034.38264475     A.U. after   16 cycles
 Normal termination of Gaussian 16 at Tue Feb 11 23:17:11 2020.
 SCF Done:  E(UB3PW91) =  -3033.97662652     A.U. after   16 cycles
 Normal termination of Gaussian 16 at Tue Feb 11 23:33:58 2020.
 SCF Done:  E(UM06L) =  -3034.19547071     A.U. after   18 cycles
 Normal termination of Gaussian 16 at Tue Feb 11 23:53:56 2020.
 Gaussian 16:  ES64L-G16RevA.03 25-Dec-2016

                         Standard orientation:
 ---------------------------------------------------------------------
 Center     Atomic      Atomic             Coordinates (Angstroms)
 Number     Number       Type             X           Y           Z
 ---------------------------------------------------------------------
      1          8           0       -0.301628   -0.203275   -0.723131
      2          6           0       -1.201107   -1.125167   -0.565787
      3          6           0       -2.736823   -0.331978    0.536453
      4          6           0       -2.612206    0.908311   -0.053746
      5          6           0       -3.310065    1.245718   -1.331870
      6         26           0        1.436771    0.139631   -0.030226
      7         17           0        1.954528    2.087801   -0.896807
      8          6           0       -1.717463    1.966471    0.480656
      9         17           0        2.659844   -1.559126   -0.685930
     10         17           0        1.236702    0.234343    2.172593
     11          1           0       -3.516009   -0.971574    0.124292
     12          1           0       -2.227167    2.937036    0.471310
     13          1           0       -1.332458    1.763685    1.478600
     14          1           0       -0.858310    2.063610   -0.200293
     15          1           0       -3.935505    2.133295   -1.170235
     16          1           0       -2.580398    1.520976   -2.104962
     17          1           0       -3.947438    0.439163   -1.697983
     18          6           0       -2.453712   -0.547870    2.011808
     19          1           0       -3.176086    0.024265    2.606160
     20          1           0       -2.572512   -1.598807    2.281918
     21          1           0       -1.451209   -0.232887    2.307110
     22          6           0       -0.845953   -2.286875    0.343953
     23          1           0       -1.692783   -2.952192    0.524599
     24          1           0       -0.069718   -2.847110   -0.194017
     25          1           0       -0.413445   -1.956773    1.287763
     26          6           0       -1.886490   -1.544915   -1.855257
     27          1           0       -1.161013   -2.171984   -2.388297
     28          1           0       -2.788549   -2.137109   -1.685118
     29          1           0       -2.105755   -0.691279   -2.494753
 ---------------------------------------------------------------------

 SCF Done:  E(UB97D3) =  -3034.61741273     A.U. after   15 cycles
 Normal termination of Gaussian 16 at Wed Feb 12 00:06:38 2020.
