 Gaussian 16, Revision A.03,

 --------------------------------
 #t pop=none jul-cc-pvdz upbe1pbe
 --------------------------------
 ------------------------
 theory_abbreviation pbe0
 ------------------------
 Symbolic Z-matrix:
 Charge =  0 Multiplicity = 6

 SCF Done:  E(UPBE1PBE) =  -3033.10732290     A.U. after   21 cycles
 Normal termination of Gaussian 16 at Tue Feb 11 13:59:44 2020.

 ---------------------------------------------------------------------
 #t pop=none jul-cc-pvdz guess=read upbe1pbe empiricaldispersion=gd3bj
 ---------------------------------------------------------------------
 -----------------------------
 theory_abbreviation pbe0_d3bj
 -----------------------------
 Symbolic Z-matrix:
 Charge =  0 Multiplicity = 6

 SCF Done:  E(UPBE1PBE) =  -3033.14425114     A.U. after    1 cycles
 Normal termination of Gaussian 16 at Tue Feb 11 14:00:57 2020.

 -----------------------------------------
 #t pop=none jul-cc-pvdz guess=read ub3lyp
 -----------------------------------------
 -------------------------
 theory_abbreviation b3lyp
 -------------------------
 Symbolic Z-matrix:
 Charge =  0 Multiplicity = 6

 SCF Done:  E(UB3LYP) =  -3034.31965904     A.U. after   14 cycles
 Normal termination of Gaussian 16 at Tue Feb 11 14:16:24 2020.

 -------------------------------------------------------------------
 #t pop=none jul-cc-pvdz guess=read ub3lyp empiricaldispersion=gd3bj
 -------------------------------------------------------------------
 ------------------------------
 theory_abbreviation b3lyp_d3bj
 ------------------------------
 Symbolic Z-matrix:
 Charge =  0 Multiplicity = 6

 SCF Done:  E(UB3LYP) =  -3034.38852419     A.U. after    1 cycles
 Normal termination of Gaussian 16 at Tue Feb 11 14:17:38 2020.

 ----------------------------------------
 #t pop=none jul-cc-pvdz guess=read ub97d
 ----------------------------------------
 ------------------------
 theory_abbreviation b97d
 ------------------------
 Symbolic Z-matrix:
 Charge =  0 Multiplicity = 6

 SCF Done:  E(UB97D) =  -3034.57242981     A.U. after   17 cycles

 ----------------------------------------------------------------
 #t pop=none jul-cc-pvdz guess=read ub97d empiricaldispersion=gd3
 ----------------------------------------------------------------
 -------------------------
 theory_abbreviation b97d3
 -------------------------
 Symbolic Z-matrix:
 Charge =  0 Multiplicity = 6

 SCF Done:  E(UB97D) =  -3034.57271314     A.U. after    1 cycles
 SCF Done:  E(UBHandHLYP) =  -3033.96200313     A.U. after   17 cycles
 SCF Done:  E(UBHandH) =  -3026.31072611     A.U. after   16 cycles
 SCF Done:  E(ULC-wPBE) =  -3033.44785338     A.U. after   18 cycles
 SCF Done:  E(UB-P86) =  -3034.62560302     A.U. after   17 cycles
 SCF Done:  E(UmPW1LYP) =  -3034.03782526     A.U. after   15 cycles
 SCF Done:  E(UmPW1PBE) =  -3033.88163538     A.U. after   16 cycles
 SCF Done:  E(UmPW3PBE) =  -3033.65396324     A.U. after   15 cycles
 SCF Done:  E(UM11) =  -3033.80471022     A.U. after   19 cycles
 SCF Done:  E(UN12SX) =  -3033.24738889     A.U. after   17 cycles
 SCF Done:  E(UMN12SX) =  -3033.64473686     A.U. after   16 cycles
 SCF Done:  E(UB1B95) =  -3034.37510445     A.U. after   16 cycles
 Normal termination of Gaussian 16 at Tue Feb 11 23:36:45 2020.
 SCF Done:  E(UB3PW91) =  -3033.96924561     A.U. after   16 cycles
 Normal termination of Gaussian 16 at Tue Feb 11 23:53:43 2020.
 SCF Done:  E(UM06L) =  -3034.18759595     A.U. after   17 cycles
 Normal termination of Gaussian 16 at Wed Feb 12 00:14:31 2020.
 Gaussian 16:  ES64L-G16RevA.03 25-Dec-2016

                         Standard orientation:
 ---------------------------------------------------------------------
 Center     Atomic      Atomic             Coordinates (Angstroms)
 Number     Number       Type             X           Y           Z
 ---------------------------------------------------------------------
      1          8           0       -0.328821   -0.180058   -0.665497
      2          6           0       -1.253242   -1.121770   -0.504101
      3          6           0       -2.641050   -0.389091    0.475528
      4          6           0       -2.553407    0.908095   -0.057483
      5          6           0       -3.247170    1.273866   -1.322607
      6         26           0        1.407620    0.132472   -0.039751
      7         17           0        1.834906    2.145225   -0.843596
      8          6           0       -1.702693    1.954772    0.537053
      9         17           0        2.683210   -1.498690   -0.771100
     10         17           0        1.259881    0.175705    2.179450
     11          1           0       -3.474638   -0.966543    0.074924
     12          1           0       -2.177763    2.938539    0.459801
     13          1           0       -1.390702    1.755649    1.560590
     14          1           0       -0.789684    2.008396   -0.081795
     15          1           0       -3.877136    2.153790   -1.137867
     16          1           0       -2.505746    1.581895   -2.072684
     17          1           0       -3.869759    0.473460   -1.722625
     18          6           0       -2.424433   -0.590144    1.971323
     19          1           0       -3.154437    0.003543    2.532703
     20          1           0       -2.577449   -1.637026    2.239153
     21          1           0       -1.423130   -0.299877    2.294607
     22          6           0       -0.820389   -2.319332    0.337252
     23          1           0       -1.637005   -3.026794    0.503544
     24          1           0       -0.034288   -2.821066   -0.239775
     25          1           0       -0.386044   -2.018264    1.290175
     26          6           0       -1.855184   -1.562199   -1.837521
     27          1           0       -1.074475   -2.128634   -2.356834
     28          1           0       -2.726843   -2.210847   -1.711889
     29          1           0       -2.108982   -0.713314   -2.472005
 ---------------------------------------------------------------------

 SCF Done:  E(UB97D3) =  -3034.60683364     A.U. after   16 cycles
 Normal termination of Gaussian 16 at Wed Feb 12 00:27:47 2020.
