 Gaussian 16, Revision A.03,

 --------------------------------
 #t pop=none jul-cc-pvdz upbe1pbe
 --------------------------------
 ------------------------
 theory_abbreviation pbe0
 ------------------------
 Symbolic Z-matrix:
 Charge =  0 Multiplicity = 6

 SCF Done:  E(UPBE1PBE) =  -3033.12641081     A.U. after   21 cycles
 Normal termination of Gaussian 16 at Tue Feb 11 14:47:15 2020.

 ---------------------------------------------------------------------
 #t pop=none jul-cc-pvdz guess=read upbe1pbe empiricaldispersion=gd3bj
 ---------------------------------------------------------------------
 -----------------------------
 theory_abbreviation pbe0_d3bj
 -----------------------------
 Symbolic Z-matrix:
 Charge =  0 Multiplicity = 6

 SCF Done:  E(UPBE1PBE) =  -3033.16257583     A.U. after    1 cycles
 Normal termination of Gaussian 16 at Tue Feb 11 14:48:25 2020.

 -----------------------------------------
 #t pop=none jul-cc-pvdz guess=read ub3lyp
 -----------------------------------------
 -------------------------
 theory_abbreviation b3lyp
 -------------------------
 Symbolic Z-matrix:
 Charge =  0 Multiplicity = 6

 SCF Done:  E(UB3LYP) =  -3034.34392193     A.U. after   14 cycles
 Normal termination of Gaussian 16 at Tue Feb 11 15:02:58 2020.

 -------------------------------------------------------------------
 #t pop=none jul-cc-pvdz guess=read ub3lyp empiricaldispersion=gd3bj
 -------------------------------------------------------------------
 ------------------------------
 theory_abbreviation b3lyp_d3bj
 ------------------------------
 Symbolic Z-matrix:
 Charge =  0 Multiplicity = 6

 SCF Done:  E(UB3LYP) =  -3034.41119283     A.U. after    1 cycles
 Normal termination of Gaussian 16 at Tue Feb 11 15:04:07 2020.

 ----------------------------------------
 #t pop=none jul-cc-pvdz guess=read ub97d
 ----------------------------------------
 ------------------------
 theory_abbreviation b97d
 ------------------------
 Symbolic Z-matrix:
 Charge =  0 Multiplicity = 6

 SCF Done:  E(UB97D) =  -3034.59561179     A.U. after   15 cycles

 ----------------------------------------------------------------
 #t pop=none jul-cc-pvdz guess=read ub97d empiricaldispersion=gd3
 ----------------------------------------------------------------
 -------------------------
 theory_abbreviation b97d3
 -------------------------
 Symbolic Z-matrix:
 Charge =  0 Multiplicity = 6

 SCF Done:  E(UB97D) =  -3034.59685350     A.U. after    1 cycles
 SCF Done:  E(UBHandHLYP) =  -3033.98374013     A.U. after   17 cycles
 SCF Done:  E(UBHandH) =  -3026.32273372     A.U. after   16 cycles
 SCF Done:  E(ULC-wPBE) =  -3033.46481436     A.U. after   19 cycles
 SCF Done:  E(UB-P86) =  -3034.64551220     A.U. after   16 cycles
 SCF Done:  E(UmPW1LYP) =  -3034.06179529     A.U. after   16 cycles
 SCF Done:  E(UmPW1PBE) =  -3033.90110891     A.U. after   16 cycles
 SCF Done:  E(UmPW3PBE) =  -3033.67421594     A.U. after   13 cycles
 SCF Done:  E(UM11) =  -3033.82228553     A.U. after   17 cycles
 SCF Done:  E(UN12SX) =  -3033.26506605     A.U. after   15 cycles
 SCF Done:  E(UMN12SX) =  -3033.66442872     A.U. after   16 cycles
 SCF Done:  E(UB1B95) =  -3034.39572163     A.U. after   14 cycles
 Normal termination of Gaussian 16 at Tue Feb 11 23:18:06 2020.
 SCF Done:  E(UB3PW91) =  -3033.99030287     A.U. after   15 cycles
 Normal termination of Gaussian 16 at Tue Feb 11 23:32:53 2020.
 SCF Done:  E(UM06L) =  -3034.20931977     A.U. after   17 cycles
 Normal termination of Gaussian 16 at Tue Feb 11 23:51:08 2020.
 Gaussian 16:  ES64L-G16RevA.03 25-Dec-2016

                         Standard orientation:
 ---------------------------------------------------------------------
 Center     Atomic      Atomic             Coordinates (Angstroms)
 Number     Number       Type             X           Y           Z
 ---------------------------------------------------------------------
      1          8           0        0.272643    0.281537   -0.561458
      2          6           0        1.066763    1.235869   -0.305436
      3          6           0        2.779596    0.179303    0.907979
      4          6           0        3.068021   -0.699889   -0.089576
      5          6           0        4.106053   -0.410951   -1.132466
      6         26           0       -1.552190   -0.188200   -0.091449
      7         17           0       -1.863740   -2.081326   -1.127991
      8          6           0        2.325882   -1.993054   -0.226241
      9         17           0       -2.634515    1.551809   -0.869960
     10         17           0       -1.727198   -0.357027    2.090230
     11          1           0        3.388946    1.080239    0.968211
     12          1           0        2.856734   -2.702783   -0.866703
     13          1           0        2.124974   -2.466220    0.738938
     14          1           0        1.347258   -1.792065   -0.690735
     15          1           0        4.928584   -1.131537   -1.027618
     16          1           0        3.708945   -0.548010   -2.146611
     17          1           0        4.525676    0.594456   -1.045011
     18          6           0        2.021003   -0.213329    2.153581
     19          1           0        2.564758   -0.998915    2.693261
     20          1           0        1.910471    0.630527    2.837560
     21          1           0        1.022358   -0.602002    1.938338
     22          6           0        0.737285    2.184643    0.817226
     23          1           0        1.598151    2.774465    1.136397
     24          1           0       -0.016579    2.870203    0.402710
     25          1           0        0.279582    1.674989    1.664099
     26          6           0        1.851448    1.794820   -1.461474
     27          1           0        1.190096    2.525704   -1.947982
     28          1           0        2.755715    2.316606   -1.143855
     29          1           0        2.086516    1.022028   -2.191956
 ---------------------------------------------------------------------

 SCF Done:  E(UB97D3) =  -3034.63204364     A.U. after   15 cycles
 Normal termination of Gaussian 16 at Wed Feb 12 00:03:29 2020.
