 Gaussian 16, Revision A.03,

 --------------------------------
 #t pop=none jul-cc-pvdz upbe1pbe
 --------------------------------
 ------------------------
 theory_abbreviation pbe0
 ------------------------
 Symbolic Z-matrix:
 Charge =  0 Multiplicity = 6

 SCF Done:  E(UPBE1PBE) =  -3033.09763687     A.U. after   21 cycles
 Normal termination of Gaussian 16 at Tue Feb 11 14:47:02 2020.

 ---------------------------------------------------------------------
 #t pop=none jul-cc-pvdz guess=read upbe1pbe empiricaldispersion=gd3bj
 ---------------------------------------------------------------------
 -----------------------------
 theory_abbreviation pbe0_d3bj
 -----------------------------
 Symbolic Z-matrix:
 Charge =  0 Multiplicity = 6

 SCF Done:  E(UPBE1PBE) =  -3033.13484882     A.U. after    1 cycles
 Normal termination of Gaussian 16 at Tue Feb 11 14:48:15 2020.

 -----------------------------------------
 #t pop=none jul-cc-pvdz guess=read ub3lyp
 -----------------------------------------
 -------------------------
 theory_abbreviation b3lyp
 -------------------------
 Symbolic Z-matrix:
 Charge =  0 Multiplicity = 6

 SCF Done:  E(UB3LYP) =  -3034.31066454     A.U. after   14 cycles
 Normal termination of Gaussian 16 at Tue Feb 11 15:03:21 2020.

 -------------------------------------------------------------------
 #t pop=none jul-cc-pvdz guess=read ub3lyp empiricaldispersion=gd3bj
 -------------------------------------------------------------------
 ------------------------------
 theory_abbreviation b3lyp_d3bj
 ------------------------------
 Symbolic Z-matrix:
 Charge =  0 Multiplicity = 6

 SCF Done:  E(UB3LYP) =  -3034.37993989     A.U. after    1 cycles
 Normal termination of Gaussian 16 at Tue Feb 11 15:04:32 2020.

 ----------------------------------------
 #t pop=none jul-cc-pvdz guess=read ub97d
 ----------------------------------------
 ------------------------
 theory_abbreviation b97d
 ------------------------
 Symbolic Z-matrix:
 Charge =  0 Multiplicity = 6

 SCF Done:  E(UB97D) =  -3034.56238442     A.U. after   16 cycles

 ----------------------------------------------------------------
 #t pop=none jul-cc-pvdz guess=read ub97d empiricaldispersion=gd3
 ----------------------------------------------------------------
 -------------------------
 theory_abbreviation b97d3
 -------------------------
 Symbolic Z-matrix:
 Charge =  0 Multiplicity = 6

 SCF Done:  E(UB97D) =  -3034.56325546     A.U. after    1 cycles
 SCF Done:  E(UBHandHLYP) =  -3033.95345708     A.U. after   17 cycles
 SCF Done:  E(UBHandH) =  -3026.30026275     A.U. after   15 cycles
 SCF Done:  E(ULC-wPBE) =  -3033.43877572     A.U. after   15 cycles
 SCF Done:  E(UB-P86) =  -3034.61676252     A.U. after   16 cycles
 SCF Done:  E(UmPW1LYP) =  -3034.02899580     A.U. after   15 cycles
 SCF Done:  E(UmPW1PBE) =  -3033.87211837     A.U. after   15 cycles
 SCF Done:  E(UmPW3PBE) =  -3033.64438885     A.U. after   13 cycles
 SCF Done:  E(UM11) =  -3033.79380965     A.U. after   18 cycles
 SCF Done:  E(UN12SX) =  -3033.23787960     A.U. after   16 cycles
 SCF Done:  E(UMN12SX) =  -3033.63555929     A.U. after   15 cycles
 SCF Done:  E(UB1B95) =  -3034.36529265     A.U. after   15 cycles
 Normal termination of Gaussian 16 at Tue Feb 11 23:28:57 2020.
 SCF Done:  E(UB3PW91) =  -3033.95973329     A.U. after   14 cycles
 Normal termination of Gaussian 16 at Tue Feb 11 23:43:59 2020.
 SCF Done:  E(UM06L) =  -3034.17634388     A.U. after   18 cycles
 Normal termination of Gaussian 16 at Wed Feb 12 00:05:32 2020.
 Gaussian 16:  ES64L-G16RevA.03 25-Dec-2016

                         Standard orientation:
 ---------------------------------------------------------------------
 Center     Atomic      Atomic             Coordinates (Angstroms)
 Number     Number       Type             X           Y           Z
 ---------------------------------------------------------------------
      1          8           0       -0.365315   -0.137222   -0.515656
      2          6           0       -1.324062   -1.112456   -0.428888
      3          6           0       -2.944356   -0.066870   -0.139246
      4          6           0       -2.112573    1.087201   -0.250368
      5          6           0       -1.937127    1.771321   -1.557306
      6         26           0        1.405430    0.048155    0.044152
      7         17           0        1.898513    2.035067   -0.797845
      8          6           0       -1.589780    1.789940    0.949440
      9         17           0        2.485373   -1.697074   -0.749815
     10         17           0        1.360287    0.083445    2.262932
     11          1           0       -3.523922   -0.275142   -1.037521
     12          1           0       -2.405652    2.435323    1.313770
     13          1           0       -1.324082    1.109643    1.759461
     14          1           0       -0.729940    2.416900    0.707929
     15          1           0       -2.615961    2.639675   -1.545346
     16          1           0       -0.916077    2.143028   -1.673840
     17          1           0       -2.215907    1.140995   -2.403214
     18          6           0       -3.666193   -0.404857    1.147556
     19          1           0       -4.529073    0.257989    1.289621
     20          1           0       -4.046045   -1.429829    1.112269
     21          1           0       -3.028993   -0.314577    2.029736
     22          6           0       -1.179789   -2.031035    0.757146
     23          1           0       -2.015858   -2.728774    0.845302
     24          1           0       -0.261787   -2.611781    0.590083
     25          1           0       -1.043512   -1.479657    1.688458
     26          6           0       -1.556766   -1.809362   -1.748596
     27          1           0       -0.635191   -2.358787   -1.982799
     28          1           0       -2.390922   -2.515028   -1.699248
     29          1           0       -1.722805   -1.091963   -2.555424
 ---------------------------------------------------------------------

 SCF Done:  E(UB97D3) =  -3034.59825547     A.U. after   14 cycles
 Normal termination of Gaussian 16 at Wed Feb 12 00:17:17 2020.
