 Gaussian 16, Revision A.03,

 --------------------------------
 #t pop=none jul-cc-pvdz upbe1pbe
 --------------------------------
 ------------------------
 theory_abbreviation pbe0
 ------------------------
 Symbolic Z-matrix:
 Charge =  0 Multiplicity = 6

 SCF Done:  E(UPBE1PBE) =  -3033.11359771     A.U. after   20 cycles
 Normal termination of Gaussian 16 at Tue Feb 11 13:57:53 2020.

 ---------------------------------------------------------------------
 #t pop=none jul-cc-pvdz guess=read upbe1pbe empiricaldispersion=gd3bj
 ---------------------------------------------------------------------
 -----------------------------
 theory_abbreviation pbe0_d3bj
 -----------------------------
 Symbolic Z-matrix:
 Charge =  0 Multiplicity = 6

 SCF Done:  E(UPBE1PBE) =  -3033.15140643     A.U. after    1 cycles
 Normal termination of Gaussian 16 at Tue Feb 11 13:59:09 2020.

 -----------------------------------------
 #t pop=none jul-cc-pvdz guess=read ub3lyp
 -----------------------------------------
 -------------------------
 theory_abbreviation b3lyp
 -------------------------
 Symbolic Z-matrix:
 Charge =  0 Multiplicity = 6

 SCF Done:  E(UB3LYP) =  -3034.32795901     A.U. after   13 cycles
 Normal termination of Gaussian 16 at Tue Feb 11 14:12:48 2020.

 -------------------------------------------------------------------
 #t pop=none jul-cc-pvdz guess=read ub3lyp empiricaldispersion=gd3bj
 -------------------------------------------------------------------
 ------------------------------
 theory_abbreviation b3lyp_d3bj
 ------------------------------
 Symbolic Z-matrix:
 Charge =  0 Multiplicity = 6

 SCF Done:  E(UB3LYP) =  -3034.39845077     A.U. after    1 cycles
 Normal termination of Gaussian 16 at Tue Feb 11 14:13:58 2020.

 ----------------------------------------
 #t pop=none jul-cc-pvdz guess=read ub97d
 ----------------------------------------
 ------------------------
 theory_abbreviation b97d
 ------------------------
 Symbolic Z-matrix:
 Charge =  0 Multiplicity = 6

 SCF Done:  E(UB97D) =  -3034.58190625     A.U. after   15 cycles

 ----------------------------------------------------------------
 #t pop=none jul-cc-pvdz guess=read ub97d empiricaldispersion=gd3
 ----------------------------------------------------------------
 -------------------------
 theory_abbreviation b97d3
 -------------------------
 Symbolic Z-matrix:
 Charge =  0 Multiplicity = 6

 SCF Done:  E(UB97D) =  -3034.58288972     A.U. after    1 cycles
 SCF Done:  E(UBHandHLYP) =  -3033.96933558     A.U. after   17 cycles
 SCF Done:  E(UBHandH) =  -3026.31496991     A.U. after   16 cycles
 SCF Done:  E(ULC-wPBE) =  -3033.45380170     A.U. after   19 cycles
 SCF Done:  E(UB-P86) =  -3034.63425326     A.U. after   17 cycles
 SCF Done:  E(UmPW1LYP) =  -3034.04610210     A.U. after   14 cycles
 SCF Done:  E(UmPW1PBE) =  -3033.88797504     A.U. after   14 cycles
 SCF Done:  E(UmPW3PBE) =  -3033.66063614     A.U. after   13 cycles
 SCF Done:  E(UM11) =  -3033.81173541     A.U. after   19 cycles
 SCF Done:  E(UN12SX) =  -3033.25303417     A.U. after   17 cycles
 SCF Done:  E(UMN12SX) =  -3033.65258540     A.U. after   16 cycles
 SCF Done:  E(UB1B95) =  -3034.38285905     A.U. after   16 cycles
 Normal termination of Gaussian 16 at Tue Feb 11 22:54:43 2020.
 SCF Done:  E(UB3PW91) =  -3033.97614747     A.U. after   15 cycles
 Normal termination of Gaussian 16 at Tue Feb 11 23:10:10 2020.
 SCF Done:  E(UM06L) =  -3034.19606134     A.U. after   17 cycles
 Normal termination of Gaussian 16 at Tue Feb 11 23:29:04 2020.
 Gaussian 16:  ES64L-G16RevA.03 25-Dec-2016

                         Standard orientation:
 ---------------------------------------------------------------------
 Center     Atomic      Atomic             Coordinates (Angstroms)
 Number     Number       Type             X           Y           Z
 ---------------------------------------------------------------------
      1          8           0       -0.314302   -0.163537   -0.736543
      2          6           0       -1.207309   -1.087720   -0.609880
      3          6           0       -2.905503   -0.192728    0.358431
      4          6           0       -2.444032    0.998946   -0.134112
      5          6           0       -2.789366    1.483989   -1.504903
      6         26           0        1.424049    0.105643    0.010531
      7         17           0        2.034966    2.058826   -0.770124
      8          6           0       -1.574120    1.921333    0.651113
      9         17           0        2.580395   -1.618391   -0.702234
     10         17           0        1.198312    0.090341    2.213670
     11          1           0       -3.656008   -0.707487   -0.237954
     12          1           0       -2.200665    2.751982    1.008767
     13          1           0       -1.106137    1.456958    1.517551
     14          1           0       -0.795719    2.359006    0.017825
     15          1           0       -3.165908    2.512204   -1.436001
     16          1           0       -1.879837    1.528852   -2.117924
     17          1           0       -3.543985    0.871756   -2.002558
     18          6           0       -2.908517   -0.537946    1.830484
     19          1           0       -3.718224    0.009191    2.329916
     20          1           0       -3.093886   -1.602620    1.989636
     21          1           0       -1.975108   -0.276732    2.334094
     22          6           0       -0.953893   -2.187542    0.393124
     23          1           0       -1.813145   -2.848949    0.514507
     24          1           0       -0.122851   -2.771460   -0.027673
     25          1           0       -0.623271   -1.803874    1.357466
     26          6           0       -1.844583   -1.547510   -1.904056
     27          1           0       -1.081943   -2.162581   -2.400151
     28          1           0       -2.730090   -2.165165   -1.741940
     29          1           0       -2.072580   -0.717626   -2.570542
 ---------------------------------------------------------------------

 SCF Done:  E(UB97D3) =  -3034.61837041     A.U. after   15 cycles
 Normal termination of Gaussian 16 at Tue Feb 11 23:40:59 2020.
