 Gaussian 16, Revision A.03,

 --------------------------------
 #t pop=none jul-cc-pvdz upbe1pbe
 --------------------------------
 ------------------------
 theory_abbreviation pbe0
 ------------------------
 Symbolic Z-matrix:
 Charge =  0 Multiplicity = 6

 SCF Done:  E(UPBE1PBE) =  -3033.10800623     A.U. after   21 cycles
 Normal termination of Gaussian 16 at Tue Feb 11 13:59:50 2020.

 ---------------------------------------------------------------------
 #t pop=none jul-cc-pvdz guess=read upbe1pbe empiricaldispersion=gd3bj
 ---------------------------------------------------------------------
 -----------------------------
 theory_abbreviation pbe0_d3bj
 -----------------------------
 Symbolic Z-matrix:
 Charge =  0 Multiplicity = 6

 SCF Done:  E(UPBE1PBE) =  -3033.14499742     A.U. after    1 cycles
 Normal termination of Gaussian 16 at Tue Feb 11 14:01:02 2020.

 -----------------------------------------
 #t pop=none jul-cc-pvdz guess=read ub3lyp
 -----------------------------------------
 -------------------------
 theory_abbreviation b3lyp
 -------------------------
 Symbolic Z-matrix:
 Charge =  0 Multiplicity = 6

 SCF Done:  E(UB3LYP) =  -3034.32090618     A.U. after   14 cycles
 Normal termination of Gaussian 16 at Tue Feb 11 14:16:17 2020.

 -------------------------------------------------------------------
 #t pop=none jul-cc-pvdz guess=read ub3lyp empiricaldispersion=gd3bj
 -------------------------------------------------------------------
 ------------------------------
 theory_abbreviation b3lyp_d3bj
 ------------------------------
 Symbolic Z-matrix:
 Charge =  0 Multiplicity = 6

 SCF Done:  E(UB3LYP) =  -3034.38987617     A.U. after    1 cycles
 Normal termination of Gaussian 16 at Tue Feb 11 14:17:29 2020.

 ----------------------------------------
 #t pop=none jul-cc-pvdz guess=read ub97d
 ----------------------------------------
 ------------------------
 theory_abbreviation b97d
 ------------------------
 Symbolic Z-matrix:
 Charge =  0 Multiplicity = 6

 SCF Done:  E(UB97D) =  -3034.57394396     A.U. after   17 cycles

 ----------------------------------------------------------------
 #t pop=none jul-cc-pvdz guess=read ub97d empiricaldispersion=gd3
 ----------------------------------------------------------------
 -------------------------
 theory_abbreviation b97d3
 -------------------------
 Symbolic Z-matrix:
 Charge =  0 Multiplicity = 6

 SCF Done:  E(UB97D) =  -3034.57382543     A.U. after    1 cycles
 SCF Done:  E(UBHandHLYP) =  -3033.96328812     A.U. after   17 cycles
 SCF Done:  E(UBHandH) =  -3026.31090983     A.U. after   16 cycles
 SCF Done:  E(ULC-wPBE) =  -3033.44830353     A.U. after   18 cycles
 SCF Done:  E(UB-P86) =  -3034.62637429     A.U. after   16 cycles
 SCF Done:  E(UmPW1LYP) =  -3034.03915608     A.U. after   15 cycles
 SCF Done:  E(UmPW1PBE) =  -3033.88232170     A.U. after   16 cycles
 SCF Done:  E(UmPW3PBE) =  -3033.65468533     A.U. after   15 cycles
 SCF Done:  E(UM11) =  -3033.80610747     A.U. after   19 cycles
 SCF Done:  E(UN12SX) =  -3033.24813121     A.U. after   17 cycles
 SCF Done:  E(UMN12SX) =  -3033.64609525     A.U. after   17 cycles
 SCF Done:  E(UB1B95) =  -3034.37604609     A.U. after   16 cycles
 Normal termination of Gaussian 16 at Tue Feb 11 23:23:36 2020.
 SCF Done:  E(UB3PW91) =  -3033.97002381     A.U. after   16 cycles
 Normal termination of Gaussian 16 at Tue Feb 11 23:40:02 2020.
 SCF Done:  E(UM06L) =  -3034.18860939     A.U. after   18 cycles
 Normal termination of Gaussian 16 at Wed Feb 12 00:01:15 2020.
 Gaussian 16:  ES64L-G16RevA.03 25-Dec-2016

                         Standard orientation:
 ---------------------------------------------------------------------
 Center     Atomic      Atomic             Coordinates (Angstroms)
 Number     Number       Type             X           Y           Z
 ---------------------------------------------------------------------
      1          8           0       -0.313662   -0.195862   -0.716340
      2          6           0       -1.259430   -1.108214   -0.550205
      3          6           0       -2.701743   -0.335355    0.415415
      4          6           0       -2.496351    0.956794   -0.076262
      5          6           0       -3.051587    1.402244   -1.381919
      6         26           0        1.402402    0.121417   -0.029973
      7         17           0        1.893591    2.129910   -0.791969
      8          6           0       -1.634076    1.940048    0.619899
      9         17           0        2.680063   -1.520197   -0.735503
     10         17           0        1.197027    0.117878    2.189489
     11          1           0       -3.527167   -0.867600   -0.056069
     12          1           0       -2.283133    2.744728    0.999341
     13          1           0       -1.074004    1.525141    1.455372
     14          1           0       -0.935797    2.405081   -0.086429
     15          1           0       -3.481577    2.405572   -1.274736
     16          1           0       -2.219833    1.504080   -2.093833
     17          1           0       -3.805138    0.727071   -1.789233
     18          6           0       -2.573392   -0.604337    1.908883
     19          1           0       -3.325351   -0.020832    2.452196
     20          1           0       -2.758252   -1.658250    2.124079
     21          1           0       -1.590100   -0.345322    2.305784
     22          6           0       -0.875436   -2.294685    0.324154
     23          1           0       -1.706766   -2.986701    0.478697
     24          1           0       -0.082569   -2.817615   -0.225457
     25          1           0       -0.458835   -1.984979    1.282048
     26          6           0       -1.877681   -1.550648   -1.872747
     27          1           0       -1.096669   -2.108307   -2.401943
     28          1           0       -2.739017   -2.209129   -1.732208
     29          1           0       -2.152340   -0.707013   -2.505173
 ---------------------------------------------------------------------

 SCF Done:  E(UB97D3) =  -3034.60822332     A.U. after   16 cycles
 Normal termination of Gaussian 16 at Wed Feb 12 00:13:50 2020.
