 Gaussian 16, Revision A.03,

 --------------------------------
 #t pop=none jul-cc-pvdz upbe1pbe
 --------------------------------
 ------------------------
 theory_abbreviation pbe0
 ------------------------
 Symbolic Z-matrix:
 Charge =  0 Multiplicity = 6

 SCF Done:  E(UPBE1PBE) =  -3033.13033857     A.U. after   21 cycles
 Normal termination of Gaussian 16 at Tue Feb 11 14:49:24 2020.

 ---------------------------------------------------------------------
 #t pop=none jul-cc-pvdz guess=read upbe1pbe empiricaldispersion=gd3bj
 ---------------------------------------------------------------------
 -----------------------------
 theory_abbreviation pbe0_d3bj
 -----------------------------
 Symbolic Z-matrix:
 Charge =  0 Multiplicity = 6

 SCF Done:  E(UPBE1PBE) =  -3033.16734897     A.U. after    1 cycles
 Normal termination of Gaussian 16 at Tue Feb 11 14:50:41 2020.

 -----------------------------------------
 #t pop=none jul-cc-pvdz guess=read ub3lyp
 -----------------------------------------
 -------------------------
 theory_abbreviation b3lyp
 -------------------------
 Symbolic Z-matrix:
 Charge =  0 Multiplicity = 6

 SCF Done:  E(UB3LYP) =  -3034.34759789     A.U. after   13 cycles
 Normal termination of Gaussian 16 at Tue Feb 11 15:05:22 2020.

 -------------------------------------------------------------------
 #t pop=none jul-cc-pvdz guess=read ub3lyp empiricaldispersion=gd3bj
 -------------------------------------------------------------------
 ------------------------------
 theory_abbreviation b3lyp_d3bj
 ------------------------------
 Symbolic Z-matrix:
 Charge =  0 Multiplicity = 6

 SCF Done:  E(UB3LYP) =  -3034.41632707     A.U. after    1 cycles
 Normal termination of Gaussian 16 at Tue Feb 11 15:06:37 2020.

 ----------------------------------------
 #t pop=none jul-cc-pvdz guess=read ub97d
 ----------------------------------------
 ------------------------
 theory_abbreviation b97d
 ------------------------
 Symbolic Z-matrix:
 Charge =  0 Multiplicity = 6

 SCF Done:  E(UB97D) =  -3034.60004502     A.U. after   15 cycles

 ----------------------------------------------------------------
 #t pop=none jul-cc-pvdz guess=read ub97d empiricaldispersion=gd3
 ----------------------------------------------------------------
 -------------------------
 theory_abbreviation b97d3
 -------------------------
 Symbolic Z-matrix:
 Charge =  0 Multiplicity = 6

 SCF Done:  E(UB97D) =  -3034.60128238     A.U. after    1 cycles
 SCF Done:  E(UBHandHLYP) =  -3033.98886616     A.U. after   17 cycles
 SCF Done:  E(UBHandH) =  -3026.32829086     A.U. after   14 cycles
 SCF Done:  E(ULC-wPBE) =  -3033.47092323     A.U. after   19 cycles
 SCF Done:  E(UB-P86) =  -3034.64984020     A.U. after   16 cycles
 SCF Done:  E(UmPW1LYP) =  -3034.06584266     A.U. after   13 cycles
 SCF Done:  E(UmPW1PBE) =  -3033.90475784     A.U. after   14 cycles
 SCF Done:  E(UmPW3PBE) =  -3033.67773035     A.U. after   13 cycles
 SCF Done:  E(UM11) =  -3033.82848006     A.U. after   17 cycles
 SCF Done:  E(UN12SX) =  -3033.26919454     A.U. after   16 cycles
 SCF Done:  E(UMN12SX) =  -3033.67086515     A.U. after   16 cycles
 SCF Done:  E(UB1B95) =  -3034.40052153     A.U. after   14 cycles
 Normal termination of Gaussian 16 at Wed Feb 12 00:07:23 2020.
 SCF Done:  E(UB3PW91) =  -3033.99370972     A.U. after   13 cycles
 Normal termination of Gaussian 16 at Wed Feb 12 00:20:09 2020.
 SCF Done:  E(UM06L) =  -3034.21593535     A.U. after   17 cycles
 Normal termination of Gaussian 16 at Wed Feb 12 00:37:54 2020.
 Gaussian 16:  ES64L-G16RevA.03 25-Dec-2016

                         Standard orientation:
 ---------------------------------------------------------------------
 Center     Atomic      Atomic             Coordinates (Angstroms)
 Number     Number       Type             X           Y           Z
 ---------------------------------------------------------------------
      1          8           0        0.229525    0.316232   -0.846881
      2          6           0        1.055660    1.252359   -0.663448
      3          6           0        2.969633    0.179419    0.534685
      4          6           0        2.625466   -0.945461   -0.134467
      5          6           0        3.145674   -1.236118   -1.513361
      6         26           0       -1.468936   -0.150667    0.002781
      7         17           0       -2.053501   -2.019193   -0.951516
      8          6           0        1.710407   -1.995784    0.415854
      9         17           0       -2.691572    1.598746   -0.484507
     10         17           0       -1.117571   -0.335247    2.166025
     11          1           0        3.694913    0.837753    0.057630
     12          1           0        2.244955   -2.952213    0.489035
     13          1           0        1.302310   -1.754853    1.396629
     14          1           0        0.873170   -2.165496   -0.273708
     15          1           0        3.676012   -2.197113   -1.512962
     16          1           0        2.317222   -1.342755   -2.226517
     17          1           0        3.836948   -0.470242   -1.874533
     18          6           0        2.739857    0.428771    2.004366
     19          1           0        3.517373   -0.078584    2.590942
     20          1           0        2.807547    1.492794    2.246513
     21          1           0        1.772728    0.062695    2.356804
     22          6           0        0.845911    2.237087    0.448076
     23          1           0        1.729114    2.849556    0.632265
     24          1           0        0.031341    2.893322    0.106726
     25          1           0        0.509633    1.756302    1.366264
     26          6           0        1.852196    1.707287   -1.853886
     27          1           0        1.217528    2.443102   -2.368925
     28          1           0        2.781226    2.205112   -1.573437
     29          1           0        2.040242    0.889544   -2.546932
 ---------------------------------------------------------------------

 SCF Done:  E(UB97D3) =  -3034.63627315     A.U. after   16 cycles
 Normal termination of Gaussian 16 at Wed Feb 12 00:49:42 2020.
