 Gaussian 16, Revision A.03,

 --------------------------------
 #t pop=none jul-cc-pvdz upbe1pbe
 --------------------------------
 ------------------------
 theory_abbreviation pbe0
 ------------------------
 Symbolic Z-matrix:
 Charge =  0 Multiplicity = 6

 SCF Done:  E(UPBE1PBE) =  -3033.11536628     A.U. after   19 cycles
 Normal termination of Gaussian 16 at Tue Feb 11 13:55:52 2020.

 ---------------------------------------------------------------------
 #t pop=none jul-cc-pvdz guess=read upbe1pbe empiricaldispersion=gd3bj
 ---------------------------------------------------------------------
 -----------------------------
 theory_abbreviation pbe0_d3bj
 -----------------------------
 Symbolic Z-matrix:
 Charge =  0 Multiplicity = 6

 SCF Done:  E(UPBE1PBE) =  -3033.15217615     A.U. after    1 cycles
 Normal termination of Gaussian 16 at Tue Feb 11 13:57:09 2020.

 -----------------------------------------
 #t pop=none jul-cc-pvdz guess=read ub3lyp
 -----------------------------------------
 -------------------------
 theory_abbreviation b3lyp
 -------------------------
 Symbolic Z-matrix:
 Charge =  0 Multiplicity = 6

 SCF Done:  E(UB3LYP) =  -3034.32845649     A.U. after   13 cycles
 Normal termination of Gaussian 16 at Tue Feb 11 14:10:46 2020.

 -------------------------------------------------------------------
 #t pop=none jul-cc-pvdz guess=read ub3lyp empiricaldispersion=gd3bj
 -------------------------------------------------------------------
 ------------------------------
 theory_abbreviation b3lyp_d3bj
 ------------------------------
 Symbolic Z-matrix:
 Charge =  0 Multiplicity = 6

 SCF Done:  E(UB3LYP) =  -3034.39691879     A.U. after    1 cycles
 Normal termination of Gaussian 16 at Tue Feb 11 14:11:56 2020.

 ----------------------------------------
 #t pop=none jul-cc-pvdz guess=read ub97d
 ----------------------------------------
 ------------------------
 theory_abbreviation b97d
 ------------------------
 Symbolic Z-matrix:
 Charge =  0 Multiplicity = 6

 SCF Done:  E(UB97D) =  -3034.57898825     A.U. after   16 cycles

 ----------------------------------------------------------------
 #t pop=none jul-cc-pvdz guess=read ub97d empiricaldispersion=gd3
 ----------------------------------------------------------------
 -------------------------
 theory_abbreviation b97d3
 -------------------------
 Symbolic Z-matrix:
 Charge =  0 Multiplicity = 6

 SCF Done:  E(UB97D) =  -3034.57978911     A.U. after    1 cycles
 SCF Done:  E(UBHandHLYP) =  -3033.96968206     A.U. after   16 cycles
 SCF Done:  E(UBHandH) =  -3026.31512543     A.U. after   14 cycles
 SCF Done:  E(ULC-wPBE) =  -3033.46026865     A.U. after   17 cycles
 SCF Done:  E(UB-P86) =  -3034.63534232     A.U. after   16 cycles
 SCF Done:  E(UmPW1LYP) =  -3034.04652207     A.U. after   14 cycles
 SCF Done:  E(UmPW1PBE) =  -3033.88986675     A.U. after   14 cycles
 SCF Done:  E(UmPW3PBE) =  -3033.66224703     A.U. after   13 cycles
 SCF Done:  E(UM11) =  -3033.81021139     A.U. after   16 cycles
 SCF Done:  E(UN12SX) =  -3033.25582766     A.U. after   16 cycles
 SCF Done:  E(UMN12SX) =  -3033.64992211     A.U. after   15 cycles
 SCF Done:  E(UB1B95) =  -3034.38114939     A.U. after   14 cycles
 Normal termination of Gaussian 16 at Tue Feb 11 22:15:08 2020.
 SCF Done:  E(UB3PW91) =  -3033.97765178     A.U. after   14 cycles
 Normal termination of Gaussian 16 at Tue Feb 11 22:29:29 2020.
 SCF Done:  E(UM06L) =  -3034.19106535     A.U. after   18 cycles
 Normal termination of Gaussian 16 at Tue Feb 11 22:49:20 2020.
 Gaussian 16:  ES64L-G16RevA.03 25-Dec-2016

                         Standard orientation:
 ---------------------------------------------------------------------
 Center     Atomic      Atomic             Coordinates (Angstroms)
 Number     Number       Type             X           Y           Z
 ---------------------------------------------------------------------
      1          8           0       -0.442793   -0.151494   -0.484194
      2          6           0       -1.420742   -1.219924   -0.346443
      3          6           0       -2.818870   -0.095114   -0.204881
      4          6           0       -1.910295    1.117612   -0.288386
      5          6           0       -1.825867    1.851033   -1.581704
      6         26           0        1.370763    0.044719    0.044278
      7         17           0        1.872732    1.994408   -0.856367
      8          6           0       -1.547061    1.873489    0.942299
      9         17           0        2.394405   -1.724731   -0.744428
     10         17           0        1.385473    0.146846    2.249509
     11          1           0       -3.403729   -0.194850   -1.122132
     12          1           0       -2.408318    2.509679    1.197771
     13          1           0       -1.343004    1.222045    1.792177
     14          1           0       -0.684724    2.520577    0.767446
     15          1           0       -2.640216    2.592574   -1.589592
     16          1           0       -0.875201    2.382323   -1.671451
     17          1           0       -1.963769    1.185218   -2.435475
     18          6           0       -3.687008   -0.259419    1.027708
     19          1           0       -4.449645    0.527057    1.085053
     20          1           0       -4.210402   -1.219532    0.984646
     21          1           0       -3.109722   -0.236192    1.955090
     22          6           0       -1.193195   -2.044848    0.896740
     23          1           0       -2.007070   -2.763559    1.036355
     24          1           0       -0.258309   -2.608030    0.787402
     25          1           0       -1.102347   -1.423717    1.789755
     26          6           0       -1.478763   -2.026946   -1.621729
     27          1           0       -0.515584   -2.529004   -1.771488
     28          1           0       -2.265446   -2.787028   -1.565850
     29          1           0       -1.663567   -1.384495   -2.487137
 ---------------------------------------------------------------------

 SCF Done:  E(UB97D3) =  -3034.61481973     A.U. after   15 cycles
 Normal termination of Gaussian 16 at Tue Feb 11 23:03:03 2020.
