 Gaussian 16, Revision A.03,

 --------------------------------
 #t pop=none jul-cc-pvdz upbe1pbe
 --------------------------------
 ------------------------
 theory_abbreviation pbe0
 ------------------------
 Symbolic Z-matrix:
 Charge =  0 Multiplicity = 6

 SCF Done:  E(UPBE1PBE) =  -3033.10126015     A.U. after   21 cycles
 Normal termination of Gaussian 16 at Tue Feb 11 14:45:39 2020.

 ---------------------------------------------------------------------
 #t pop=none jul-cc-pvdz guess=read upbe1pbe empiricaldispersion=gd3bj
 ---------------------------------------------------------------------
 -----------------------------
 theory_abbreviation pbe0_d3bj
 -----------------------------
 Symbolic Z-matrix:
 Charge =  0 Multiplicity = 6

 SCF Done:  E(UPBE1PBE) =  -3033.13838831     A.U. after    1 cycles
 Normal termination of Gaussian 16 at Tue Feb 11 14:46:55 2020.

 -----------------------------------------
 #t pop=none jul-cc-pvdz guess=read ub3lyp
 -----------------------------------------
 -------------------------
 theory_abbreviation b3lyp
 -------------------------
 Symbolic Z-matrix:
 Charge =  0 Multiplicity = 6

 SCF Done:  E(UB3LYP) =  -3034.31402436     A.U. after   14 cycles
 Normal termination of Gaussian 16 at Tue Feb 11 15:01:23 2020.

 -------------------------------------------------------------------
 #t pop=none jul-cc-pvdz guess=read ub3lyp empiricaldispersion=gd3bj
 -------------------------------------------------------------------
 ------------------------------
 theory_abbreviation b3lyp_d3bj
 ------------------------------
 Symbolic Z-matrix:
 Charge =  0 Multiplicity = 6

 SCF Done:  E(UB3LYP) =  -3034.38315267     A.U. after    1 cycles
 Normal termination of Gaussian 16 at Tue Feb 11 15:02:36 2020.

 ----------------------------------------
 #t pop=none jul-cc-pvdz guess=read ub97d
 ----------------------------------------
 ------------------------
 theory_abbreviation b97d
 ------------------------
 Symbolic Z-matrix:
 Charge =  0 Multiplicity = 6

 SCF Done:  E(UB97D) =  -3034.56514810     A.U. after   15 cycles

 ----------------------------------------------------------------
 #t pop=none jul-cc-pvdz guess=read ub97d empiricaldispersion=gd3
 ----------------------------------------------------------------
 -------------------------
 theory_abbreviation b97d3
 -------------------------
 Symbolic Z-matrix:
 Charge =  0 Multiplicity = 6

 SCF Done:  E(UB97D) =  -3034.56583568     A.U. after    1 cycles
 SCF Done:  E(UBHandHLYP) =  -3033.95785312     A.U. after   17 cycles
 SCF Done:  E(UBHandH) =  -3026.30500342     A.U. after   13 cycles
 SCF Done:  E(ULC-wPBE) =  -3033.44298110     A.U. after   18 cycles
 SCF Done:  E(UB-P86) =  -3034.61908095     A.U. after   15 cycles
 SCF Done:  E(UmPW1LYP) =  -3034.03253219     A.U. after   14 cycles
 SCF Done:  E(UmPW1PBE) =  -3033.87569941     A.U. after   15 cycles
 SCF Done:  E(UmPW3PBE) =  -3033.64780268     A.U. after   13 cycles
 SCF Done:  E(UM11) =  -3033.79851705     A.U. after   17 cycles
 SCF Done:  E(UN12SX) =  -3033.24150136     A.U. after   15 cycles
 SCF Done:  E(UMN12SX) =  -3033.63946421     A.U. after   16 cycles
 SCF Done:  E(UB1B95) =  -3034.36886255     A.U. after   15 cycles
 Normal termination of Gaussian 16 at Tue Feb 11 23:08:55 2020.
 SCF Done:  E(UB3PW91) =  -3033.96313354     A.U. after   14 cycles
 Normal termination of Gaussian 16 at Tue Feb 11 23:23:22 2020.
 SCF Done:  E(UM06L) =  -3034.17998232     A.U. after   18 cycles
 Normal termination of Gaussian 16 at Tue Feb 11 23:43:11 2020.
 Gaussian 16:  ES64L-G16RevA.03 25-Dec-2016

                         Standard orientation:
 ---------------------------------------------------------------------
 Center     Atomic      Atomic             Coordinates (Angstroms)
 Number     Number       Type             X           Y           Z
 ---------------------------------------------------------------------
      1          8           0       -0.336532   -0.185312   -0.571950
      2          6           0       -1.335986   -1.103245   -0.462724
      3          6           0       -2.906838   -0.096836   -0.102773
      4          6           0       -2.151031    1.099580   -0.226733
      5          6           0       -1.994674    1.779494   -1.534449
      6         26           0        1.403317    0.044936    0.035637
      7         17           0        1.852966    2.063848   -0.766103
      8          6           0       -1.582308    1.787873    0.956466
      9         17           0        2.583541   -1.641934   -0.738142
     10         17           0        1.312599    0.058782    2.258374
     11          1           0       -3.521239   -0.310838   -0.976316
     12          1           0       -2.395322    2.395439    1.387274
     13          1           0       -1.250857    1.095228    1.731928
     14          1           0       -0.757262    2.448894    0.685364
     15          1           0       -2.592246    2.703970   -1.483880
     16          1           0       -0.951809    2.074206   -1.687981
     17          1           0       -2.356769    1.183202   -2.372969
     18          6           0       -3.581276   -0.458215    1.206934
     19          1           0       -4.447137    0.192861    1.378732
     20          1           0       -3.948447   -1.487220    1.175042
     21          1           0       -2.917130   -0.365388    2.068444
     22          6           0       -1.165738   -2.068449    0.688904
     23          1           0       -2.007260   -2.757914    0.786716
     24          1           0       -0.263918   -2.653715    0.463353
     25          1           0       -0.983818   -1.553015    1.632861
     26          6           0       -1.633361   -1.772062   -1.790593
     27          1           0       -0.740764   -2.350516   -2.060200
     28          1           0       -2.491881   -2.447226   -1.729780
     29          1           0       -1.795666   -1.034484   -2.579907
 ---------------------------------------------------------------------

 SCF Done:  E(UB97D3) =  -3034.60065099     A.U. after   14 cycles
 Normal termination of Gaussian 16 at Tue Feb 11 23:54:33 2020.
