 Gaussian 16, Revision A.03,

 --------------------------------
 #t pop=none jul-cc-pvdz upbe1pbe
 --------------------------------
 ------------------------
 theory_abbreviation pbe0
 ------------------------
 Symbolic Z-matrix:
 Charge =  0 Multiplicity = 6

 SCF Done:  E(UPBE1PBE) =  -3033.11817072     A.U. after   21 cycles
 Normal termination of Gaussian 16 at Tue Feb 11 14:46:35 2020.

 ---------------------------------------------------------------------
 #t pop=none jul-cc-pvdz guess=read upbe1pbe empiricaldispersion=gd3bj
 ---------------------------------------------------------------------
 -----------------------------
 theory_abbreviation pbe0_d3bj
 -----------------------------
 Symbolic Z-matrix:
 Charge =  0 Multiplicity = 6

 SCF Done:  E(UPBE1PBE) =  -3033.15477661     A.U. after    1 cycles
 Normal termination of Gaussian 16 at Tue Feb 11 14:47:46 2020.

 -----------------------------------------
 #t pop=none jul-cc-pvdz guess=read ub3lyp
 -----------------------------------------
 -------------------------
 theory_abbreviation b3lyp
 -------------------------
 Symbolic Z-matrix:
 Charge =  0 Multiplicity = 6

 SCF Done:  E(UB3LYP) =  -3034.33345870     A.U. after   15 cycles
 Normal termination of Gaussian 16 at Tue Feb 11 15:03:26 2020.

 -------------------------------------------------------------------
 #t pop=none jul-cc-pvdz guess=read ub3lyp empiricaldispersion=gd3bj
 -------------------------------------------------------------------
 ------------------------------
 theory_abbreviation b3lyp_d3bj
 ------------------------------
 Symbolic Z-matrix:
 Charge =  0 Multiplicity = 6

 SCF Done:  E(UB3LYP) =  -3034.40167794     A.U. after    1 cycles
 Normal termination of Gaussian 16 at Tue Feb 11 15:04:36 2020.

 ----------------------------------------
 #t pop=none jul-cc-pvdz guess=read ub97d
 ----------------------------------------
 ------------------------
 theory_abbreviation b97d
 ------------------------
 Symbolic Z-matrix:
 Charge =  0 Multiplicity = 6

 SCF Done:  E(UB97D) =  -3034.58612892     A.U. after   16 cycles

 ----------------------------------------------------------------
 #t pop=none jul-cc-pvdz guess=read ub97d empiricaldispersion=gd3
 ----------------------------------------------------------------
 -------------------------
 theory_abbreviation b97d3
 -------------------------
 Symbolic Z-matrix:
 Charge =  0 Multiplicity = 6

 SCF Done:  E(UB97D) =  -3034.58735933     A.U. after    1 cycles
 SCF Done:  E(UBHandHLYP) =  -3033.97294370     A.U. after   17 cycles
 SCF Done:  E(UBHandH) =  -3026.31683188     A.U. after   16 cycles
 SCF Done:  E(ULC-wPBE) =  -3033.45606160     A.U. after   19 cycles
 SCF Done:  E(UB-P86) =  -3034.63807396     A.U. after   17 cycles
 SCF Done:  E(UmPW1LYP) =  -3034.05120542     A.U. after   15 cycles
 SCF Done:  E(UmPW1PBE) =  -3033.89274557     A.U. after   16 cycles
 SCF Done:  E(UmPW3PBE) =  -3033.66569543     A.U. after   13 cycles
 SCF Done:  E(UM11) =  -3033.81411780     A.U. after   19 cycles
 SCF Done:  E(UN12SX) =  -3033.25735587     A.U. after   17 cycles
 SCF Done:  E(UMN12SX) =  -3033.65468640     A.U. after   17 cycles
 SCF Done:  E(UB1B95) =  -3034.38638584     A.U. after   16 cycles
 Normal termination of Gaussian 16 at Tue Feb 11 23:53:52 2020.
 SCF Done:  E(UB3PW91) =  -3033.98140458     A.U. after   15 cycles
 Normal termination of Gaussian 16 at Wed Feb 12 00:10:24 2020.
 SCF Done:  E(UM06L) =  -3034.19867129     A.U. after   17 cycles
 Normal termination of Gaussian 16 at Wed Feb 12 00:29:17 2020.
 Gaussian 16:  ES64L-G16RevA.03 25-Dec-2016

                         Standard orientation:
 ---------------------------------------------------------------------
 Center     Atomic      Atomic             Coordinates (Angstroms)
 Number     Number       Type             X           Y           Z
 ---------------------------------------------------------------------
      1          8           0       -0.318051   -0.190361   -0.538261
      2          6           0       -1.154650   -1.152703   -0.351246
      3          6           0       -2.702537   -0.307502    0.788793
      4          6           0       -2.913516    0.748635   -0.067322
      5          6           0       -3.893132    0.670600   -1.194838
      6         26           0        1.501477    0.176879   -0.076054
      7         17           0        1.844621    2.142263   -0.978479
      8          6           0       -2.130371    2.006075    0.044376
      9         17           0        2.588628   -1.510973   -0.963176
     10         17           0        1.667006    0.214861    2.121417
     11          1           0       -3.388160   -1.148366    0.690070
     12          1           0       -2.590675    2.830761   -0.505307
     13          1           0       -1.948039    2.305915    1.079279
     14          1           0       -1.141050    1.812595   -0.405375
     15          1           0       -4.696806    1.395466   -1.004061
     16          1           0       -3.432533    0.970483   -2.144732
     17          1           0       -4.345153   -0.317281   -1.302901
     18          6           0       -2.093906   -0.100145    2.160980
     19          1           0       -2.708145    0.602941    2.736296
     20          1           0       -2.057976   -1.035493    2.722100
     21          1           0       -1.079969    0.304603    2.115413
     22          6           0       -0.766434   -2.238410    0.635182
     23          1           0       -1.605695   -2.885515    0.899214
     24          1           0       -0.010376   -2.843734    0.116771
     25          1           0       -0.298858   -1.833118    1.531414
     26          6           0       -1.840588   -1.660926   -1.603015
     27          1           0       -1.114856   -2.316597   -2.100916
     28          1           0       -2.736086   -2.248020   -1.386250
     29          1           0       -2.073141   -0.848943   -2.290931
 ---------------------------------------------------------------------

 SCF Done:  E(UB97D3) =  -3034.62237154     A.U. after   15 cycles
 Normal termination of Gaussian 16 at Wed Feb 12 00:41:26 2020.
