 Gaussian 16, Revision A.03,

 --------------------------------
 #t pop=none jul-cc-pvdz upbe1pbe
 --------------------------------
 ------------------------
 theory_abbreviation pbe0
 ------------------------
 Symbolic Z-matrix:
 Charge =  0 Multiplicity = 6

 SCF Done:  E(UPBE1PBE) =  -3033.10554013     A.U. after   21 cycles
 Normal termination of Gaussian 16 at Tue Feb 11 14:49:06 2020.

 ---------------------------------------------------------------------
 #t pop=none jul-cc-pvdz guess=read upbe1pbe empiricaldispersion=gd3bj
 ---------------------------------------------------------------------
 -----------------------------
 theory_abbreviation pbe0_d3bj
 -----------------------------
 Symbolic Z-matrix:
 Charge =  0 Multiplicity = 6

 SCF Done:  E(UPBE1PBE) =  -3033.14270588     A.U. after    1 cycles
 Normal termination of Gaussian 16 at Tue Feb 11 14:50:24 2020.

 -----------------------------------------
 #t pop=none jul-cc-pvdz guess=read ub3lyp
 -----------------------------------------
 -------------------------
 theory_abbreviation b3lyp
 -------------------------
 Symbolic Z-matrix:
 Charge =  0 Multiplicity = 6

 SCF Done:  E(UB3LYP) =  -3034.31776533     A.U. after   14 cycles
 Normal termination of Gaussian 16 at Tue Feb 11 15:06:52 2020.

 -------------------------------------------------------------------
 #t pop=none jul-cc-pvdz guess=read ub3lyp empiricaldispersion=gd3bj
 -------------------------------------------------------------------
 ------------------------------
 theory_abbreviation b3lyp_d3bj
 ------------------------------
 Symbolic Z-matrix:
 Charge =  0 Multiplicity = 6

 SCF Done:  E(UB3LYP) =  -3034.38706079     A.U. after    1 cycles
 Normal termination of Gaussian 16 at Tue Feb 11 15:08:10 2020.

 ----------------------------------------
 #t pop=none jul-cc-pvdz guess=read ub97d
 ----------------------------------------
 ------------------------
 theory_abbreviation b97d
 ------------------------
 Symbolic Z-matrix:
 Charge =  0 Multiplicity = 6

 SCF Done:  E(UB97D) =  -3034.56992880     A.U. after   17 cycles

 ----------------------------------------------------------------
 #t pop=none jul-cc-pvdz guess=read ub97d empiricaldispersion=gd3
 ----------------------------------------------------------------
 -------------------------
 theory_abbreviation b97d3
 -------------------------
 Symbolic Z-matrix:
 Charge =  0 Multiplicity = 6

 SCF Done:  E(UB97D) =  -3034.57002421     A.U. after    1 cycles
 SCF Done:  E(UBHandHLYP) =  -3033.96157647     A.U. after   17 cycles
 SCF Done:  E(UBHandH) =  -3026.30998208     A.U. after   14 cycles
 SCF Done:  E(ULC-wPBE) =  -3033.44735410     A.U. after   18 cycles
 SCF Done:  E(UB-P86) =  -3034.62307713     A.U. after   17 cycles
 SCF Done:  E(UmPW1LYP) =  -3034.03624856     A.U. after   14 cycles
 SCF Done:  E(UmPW1PBE) =  -3033.87984704     A.U. after   14 cycles
 SCF Done:  E(UmPW3PBE) =  -3033.65193441     A.U. after   15 cycles
 SCF Done:  E(UM11) =  -3033.80394780     A.U. after   19 cycles
 SCF Done:  E(UN12SX) =  -3033.24570141     A.U. after   17 cycles
 SCF Done:  E(UMN12SX) =  -3033.64387581     A.U. after   16 cycles
 SCF Done:  E(UB1B95) =  -3034.37329220     A.U. after   16 cycles
 Normal termination of Gaussian 16 at Tue Feb 11 23:54:41 2020.
 SCF Done:  E(UB3PW91) =  -3033.96719899     A.U. after   15 cycles
 Normal termination of Gaussian 16 at Wed Feb 12 00:11:09 2020.
 SCF Done:  E(UM06L) =  -3034.18548391     A.U. after   18 cycles
 Normal termination of Gaussian 16 at Wed Feb 12 00:30:51 2020.
 Gaussian 16:  ES64L-G16RevA.03 25-Dec-2016

                         Standard orientation:
 ---------------------------------------------------------------------
 Center     Atomic      Atomic             Coordinates (Angstroms)
 Number     Number       Type             X           Y           Z
 ---------------------------------------------------------------------
      1          8           0       -0.327209   -0.180372   -0.697422
      2          6           0       -1.288314   -1.104933   -0.540920
      3          6           0       -2.717331   -0.307129    0.321590
      4          6           0       -2.398854    0.993364   -0.120278
      5          6           0       -2.809618    1.496431   -1.453458
      6         26           0        1.385583    0.105186   -0.019001
      7         17           0        1.874354    2.130363   -0.749385
      8          6           0       -1.593589    1.923808    0.698381
      9         17           0        2.669698   -1.527616   -0.738456
     10         17           0        1.171644    0.073593    2.207174
     11          1           0       -3.554829   -0.756735   -0.211406
     12          1           0       -2.314391    2.573644    1.224287
     13          1           0       -0.986846    1.427564    1.454907
     14          1           0       -0.961710    2.565347    0.077603
     15          1           0       -3.157135    2.532787   -1.364065
     16          1           0       -1.906222    1.532765   -2.079890
     17          1           0       -3.575113    0.889854   -1.938061
     18          6           0       -2.726480   -0.595709    1.817271
     19          1           0       -3.505205    0.000940    2.306188
     20          1           0       -2.955164   -1.647478    1.999403
     21          1           0       -1.772245   -0.369622    2.297290
     22          6           0       -0.906572   -2.279814    0.348727
     23          1           0       -1.729401   -2.987501    0.478451
     24          1           0       -0.085330   -2.790749   -0.169520
     25          1           0       -0.530137   -1.958317    1.319427
     26          6           0       -1.842378   -1.574598   -1.883153
     27          1           0       -1.026816   -2.107078   -2.384992
     28          1           0       -2.686778   -2.259582   -1.764911
     29          1           0       -2.128178   -0.744009   -2.528934
 ---------------------------------------------------------------------

 SCF Done:  E(UB97D3) =  -3034.60451902     A.U. after   16 cycles
 Normal termination of Gaussian 16 at Wed Feb 12 00:43:59 2020.
