 Gaussian 16, Revision A.03,

 --------------------------------
 #t pop=none jul-cc-pvdz upbe1pbe
 --------------------------------
 ------------------------
 theory_abbreviation pbe0
 ------------------------
 Symbolic Z-matrix:
 Charge =  0 Multiplicity = 6

 SCF Done:  E(UPBE1PBE) =  -3033.10492778     A.U. after   21 cycles
 Normal termination of Gaussian 16 at Tue Feb 11 14:48:49 2020.

 ---------------------------------------------------------------------
 #t pop=none jul-cc-pvdz guess=read upbe1pbe empiricaldispersion=gd3bj
 ---------------------------------------------------------------------
 -----------------------------
 theory_abbreviation pbe0_d3bj
 -----------------------------
 Symbolic Z-matrix:
 Charge =  0 Multiplicity = 6

 SCF Done:  E(UPBE1PBE) =  -3033.14219738     A.U. after    1 cycles
 Normal termination of Gaussian 16 at Tue Feb 11 14:50:02 2020.

 -----------------------------------------
 #t pop=none jul-cc-pvdz guess=read ub3lyp
 -----------------------------------------
 -------------------------
 theory_abbreviation b3lyp
 -------------------------
 Symbolic Z-matrix:
 Charge =  0 Multiplicity = 6

 SCF Done:  E(UB3LYP) =  -3034.31679646     A.U. after   13 cycles
 Normal termination of Gaussian 16 at Tue Feb 11 15:04:09 2020.

 -------------------------------------------------------------------
 #t pop=none jul-cc-pvdz guess=read ub3lyp empiricaldispersion=gd3bj
 -------------------------------------------------------------------
 ------------------------------
 theory_abbreviation b3lyp_d3bj
 ------------------------------
 Symbolic Z-matrix:
 Charge =  0 Multiplicity = 6

 SCF Done:  E(UB3LYP) =  -3034.38624803     A.U. after    1 cycles
 Normal termination of Gaussian 16 at Tue Feb 11 15:05:20 2020.

 ----------------------------------------
 #t pop=none jul-cc-pvdz guess=read ub97d
 ----------------------------------------
 ------------------------
 theory_abbreviation b97d
 ------------------------
 Symbolic Z-matrix:
 Charge =  0 Multiplicity = 6

 SCF Done:  E(UB97D) =  -3034.56735748     A.U. after   15 cycles

 ----------------------------------------------------------------
 #t pop=none jul-cc-pvdz guess=read ub97d empiricaldispersion=gd3
 ----------------------------------------------------------------
 -------------------------
 theory_abbreviation b97d3
 -------------------------
 Symbolic Z-matrix:
 Charge =  0 Multiplicity = 6

 SCF Done:  E(UB97D) =  -3034.56785974     A.U. after    3 cycles
 SCF Done:  E(UBHandHLYP) =  -3033.96237329     A.U. after   17 cycles
 SCF Done:  E(UBHandH) =  -3026.31077232     A.U. after   13 cycles
 SCF Done:  E(ULC-wPBE) =  -3033.44917686     A.U. after   17 cycles
 SCF Done:  E(UB-P86) =  -3034.62150414     A.U. after   16 cycles
 SCF Done:  E(UmPW1LYP) =  -3034.03560616     A.U. after   13 cycles
 SCF Done:  E(UmPW1PBE) =  -3033.87922527     A.U. after   13 cycles
 SCF Done:  E(UmPW3PBE) =  -3033.65101960     A.U. after   12 cycles
 SCF Done:  E(UM11) =  -3033.80334776     A.U. after   16 cycles
 SCF Done:  E(UN12SX) =  -3033.24510369     A.U. after   15 cycles
 SCF Done:  E(UMN12SX) =  -3033.64331194     A.U. after   16 cycles
 SCF Done:  E(UB1B95) =  -3034.37179437     A.U. after   15 cycles
 Normal termination of Gaussian 16 at Tue Feb 11 23:14:30 2020.
 SCF Done:  E(UB3PW91) =  -3033.96625085     A.U. after   13 cycles
 Normal termination of Gaussian 16 at Tue Feb 11 23:27:30 2020.
 SCF Done:  E(UM06L) =  -3034.18344961     A.U. after   18 cycles
 Normal termination of Gaussian 16 at Tue Feb 11 23:46:58 2020.
 Gaussian 16:  ES64L-G16RevA.03 25-Dec-2016

                         Standard orientation:
 ---------------------------------------------------------------------
 Center     Atomic      Atomic             Coordinates (Angstroms)
 Number     Number       Type             X           Y           Z
 ---------------------------------------------------------------------
      1          8           0       -0.321369   -0.229746   -0.698652
      2          6           0       -1.329077   -1.154618   -0.521738
      3          6           0       -2.664616   -0.313101    0.233702
      4          6           0       -2.290724    1.027693   -0.150505
      5          6           0       -2.609688    1.571405   -1.487275
      6         26           0        1.365056    0.091378   -0.017185
      7         17           0        1.758633    2.151088   -0.741310
      8          6           0       -1.578569    1.926143    0.770872
      9         17           0        2.740183   -1.477230   -0.709162
     10         17           0        1.128256    0.067863    2.215778
     11          1           0       -3.538280   -0.655918   -0.324851
     12          1           0       -2.369416    2.452337    1.336627
     13          1           0       -0.962297    1.397341    1.499994
     14          1           0       -0.983558    2.673754    0.240985
     15          1           0       -2.943400    2.612231   -1.397514
     16          1           0       -1.656152    1.605482   -2.036315
     17          1           0       -3.338661    0.983621   -2.044492
     18          6           0       -2.799015   -0.587888    1.729858
     19          1           0       -3.579659    0.045132    2.166905
     20          1           0       -3.089873   -1.628115    1.890466
     21          1           0       -1.868200   -0.411568    2.272761
     22          6           0       -0.923196   -2.320683    0.369502
     23          1           0       -1.733833   -3.044093    0.497380
     24          1           0       -0.087661   -2.820910   -0.134895
     25          1           0       -0.565516   -1.988255    1.344263
     26          6           0       -1.822580   -1.651810   -1.879672
     27          1           0       -0.987246   -2.173719   -2.357978
     28          1           0       -2.661691   -2.347420   -1.777916
     29          1           0       -2.110512   -0.829866   -2.538033
 ---------------------------------------------------------------------

 SCF Done:  E(UB97D3) =  -3034.60257929     A.U. after   14 cycles
 Normal termination of Gaussian 16 at Tue Feb 11 23:58:08 2020.
