 Gaussian 16, Revision A.03,

 --------------------------------
 #t pop=none jul-cc-pvdz upbe1pbe
 --------------------------------
 ------------------------
 theory_abbreviation pbe0
 ------------------------
 Symbolic Z-matrix:
 Charge =  0 Multiplicity = 6

 SCF Done:  E(UPBE1PBE) =  -3033.11293721     A.U. after   21 cycles
 Normal termination of Gaussian 16 at Tue Feb 11 14:01:36 2020.

 ---------------------------------------------------------------------
 #t pop=none jul-cc-pvdz guess=read upbe1pbe empiricaldispersion=gd3bj
 ---------------------------------------------------------------------
 -----------------------------
 theory_abbreviation pbe0_d3bj
 -----------------------------
 Symbolic Z-matrix:
 Charge =  0 Multiplicity = 6

 SCF Done:  E(UPBE1PBE) =  -3033.15027582     A.U. after    1 cycles
 Normal termination of Gaussian 16 at Tue Feb 11 14:02:47 2020.

 -----------------------------------------
 #t pop=none jul-cc-pvdz guess=read ub3lyp
 -----------------------------------------
 -------------------------
 theory_abbreviation b3lyp
 -------------------------
 Symbolic Z-matrix:
 Charge =  0 Multiplicity = 6

 SCF Done:  E(UB3LYP) =  -3034.32701230     A.U. after   13 cycles
 Normal termination of Gaussian 16 at Tue Feb 11 14:16:53 2020.

 -------------------------------------------------------------------
 #t pop=none jul-cc-pvdz guess=read ub3lyp empiricaldispersion=gd3bj
 -------------------------------------------------------------------
 ------------------------------
 theory_abbreviation b3lyp_d3bj
 ------------------------------
 Symbolic Z-matrix:
 Charge =  0 Multiplicity = 6

 SCF Done:  E(UB3LYP) =  -3034.39662671     A.U. after    1 cycles
 Normal termination of Gaussian 16 at Tue Feb 11 14:18:05 2020.

 ----------------------------------------
 #t pop=none jul-cc-pvdz guess=read ub97d
 ----------------------------------------
 ------------------------
 theory_abbreviation b97d
 ------------------------
 Symbolic Z-matrix:
 Charge =  0 Multiplicity = 6

 SCF Done:  E(UB97D) =  -3034.58099985     A.U. after   16 cycles

 ----------------------------------------------------------------
 #t pop=none jul-cc-pvdz guess=read ub97d empiricaldispersion=gd3
 ----------------------------------------------------------------
 -------------------------
 theory_abbreviation b97d3
 -------------------------
 Symbolic Z-matrix:
 Charge =  0 Multiplicity = 6

 SCF Done:  E(UB97D) =  -3034.58144617     A.U. after    1 cycles
 SCF Done:  E(UBHandHLYP) =  -3033.96800796     A.U. after   17 cycles
 SCF Done:  E(UBHandH) =  -3026.31409454     A.U. after   16 cycles
 SCF Done:  E(ULC-wPBE) =  -3033.45239995     A.U. after   19 cycles
 SCF Done:  E(UB-P86) =  -3034.63298016     A.U. after   17 cycles
 SCF Done:  E(UmPW1LYP) =  -3034.04508554     A.U. after   16 cycles
 SCF Done:  E(UmPW1PBE) =  -3033.88729037     A.U. after   16 cycles
 SCF Done:  E(UmPW3PBE) =  -3033.65996570     A.U. after   14 cycles
 SCF Done:  E(UM11) =  -3033.81098357     A.U. after   19 cycles
 SCF Done:  E(UN12SX) =  -3033.25264617     A.U. after   17 cycles
 SCF Done:  E(UMN12SX) =  -3033.65134070     A.U. after   17 cycles
 SCF Done:  E(UB1B95) =  -3034.38172055     A.U. after   16 cycles
 Normal termination of Gaussian 16 at Tue Feb 11 23:22:35 2020.
 SCF Done:  E(UB3PW91) =  -3033.97543576     A.U. after   16 cycles
 Normal termination of Gaussian 16 at Tue Feb 11 23:39:24 2020.
 SCF Done:  E(UM06L) =  -3034.19458830     A.U. after   18 cycles
 Normal termination of Gaussian 16 at Tue Feb 11 23:59:18 2020.
 Gaussian 16:  ES64L-G16RevA.03 25-Dec-2016

                         Standard orientation:
 ---------------------------------------------------------------------
 Center     Atomic      Atomic             Coordinates (Angstroms)
 Number     Number       Type             X           Y           Z
 ---------------------------------------------------------------------
      1          8           0       -0.305470   -0.195039   -0.741229
      2          6           0       -1.212902   -1.112215   -0.585681
      3          6           0       -2.766197   -0.301062    0.478183
      4          6           0       -2.544672    0.943909   -0.071308
      5          6           0       -3.135300    1.346689   -1.382958
      6         26           0        1.423557    0.128500   -0.021321
      7         17           0        1.967584    2.092089   -0.836161
      8          6           0       -1.651428    1.954762    0.554613
      9         17           0        2.649220   -1.562127   -0.694832
     10         17           0        1.199145    0.167339    2.184296
     11          1           0       -3.552640   -0.890213    0.009241
     12          1           0       -2.227537    2.869808    0.748641
     13          1           0       -1.188110    1.625441    1.482472
     14          1           0       -0.858669    2.232518   -0.152555
     15          1           0       -3.653365    2.306635   -1.264181
     16          1           0       -2.333864    1.519498   -2.113813
     17          1           0       -3.843377    0.616528   -1.778474
     18          6           0       -2.570087   -0.571632    1.958193
     19          1           0       -3.315036   -0.006633    2.531280
     20          1           0       -2.720462   -1.628810    2.185194
     21          1           0       -1.580841   -0.284516    2.319848
     22          6           0       -0.874428   -2.268890    0.335146
     23          1           0       -1.722540   -2.936964    0.497812
     24          1           0       -0.084791   -2.827613   -0.185103
     25          1           0       -0.463133   -1.935953    1.287285
     26          6           0       -1.886672   -1.541065   -1.878110
     27          1           0       -1.146465   -2.152864   -2.408823
     28          1           0       -2.776904   -2.151247   -1.709793
     29          1           0       -2.121988   -0.693403   -2.519482
 ---------------------------------------------------------------------

 SCF Done:  E(UB97D3) =  -3034.61627143     A.U. after   15 cycles
 Normal termination of Gaussian 16 at Wed Feb 12 00:12:19 2020.
