 Gaussian 16, Revision A.03,

 --------------------------------
 #t pop=none jul-cc-pvdz upbe1pbe
 --------------------------------
 ------------------------
 theory_abbreviation pbe0
 ------------------------
 Symbolic Z-matrix:
 Charge =  0 Multiplicity = 6

 SCF Done:  E(UPBE1PBE) =  -3033.11092795     A.U. after   21 cycles
 Normal termination of Gaussian 16 at Tue Feb 11 13:58:55 2020.

 ---------------------------------------------------------------------
 #t pop=none jul-cc-pvdz guess=read upbe1pbe empiricaldispersion=gd3bj
 ---------------------------------------------------------------------
 -----------------------------
 theory_abbreviation pbe0_d3bj
 -----------------------------
 Symbolic Z-matrix:
 Charge =  0 Multiplicity = 6

 SCF Done:  E(UPBE1PBE) =  -3033.14724427     A.U. after    1 cycles
 Normal termination of Gaussian 16 at Tue Feb 11 14:00:05 2020.

 -----------------------------------------
 #t pop=none jul-cc-pvdz guess=read ub3lyp
 -----------------------------------------
 -------------------------
 theory_abbreviation b3lyp
 -------------------------
 Symbolic Z-matrix:
 Charge =  0 Multiplicity = 6

 SCF Done:  E(UB3LYP) =  -3034.32372846     A.U. after   15 cycles
 Normal termination of Gaussian 16 at Tue Feb 11 14:16:05 2020.

 -------------------------------------------------------------------
 #t pop=none jul-cc-pvdz guess=read ub3lyp empiricaldispersion=gd3bj
 -------------------------------------------------------------------
 ------------------------------
 theory_abbreviation b3lyp_d3bj
 ------------------------------
 Symbolic Z-matrix:
 Charge =  0 Multiplicity = 6

 SCF Done:  E(UB3LYP) =  -3034.39157706     A.U. after    1 cycles
 Normal termination of Gaussian 16 at Tue Feb 11 14:17:15 2020.

 ----------------------------------------
 #t pop=none jul-cc-pvdz guess=read ub97d
 ----------------------------------------
 ------------------------
 theory_abbreviation b97d
 ------------------------
 Symbolic Z-matrix:
 Charge =  0 Multiplicity = 6

 SCF Done:  E(UB97D) =  -3034.57753589     A.U. after   16 cycles

 ----------------------------------------------------------------
 #t pop=none jul-cc-pvdz guess=read ub97d empiricaldispersion=gd3
 ----------------------------------------------------------------
 -------------------------
 theory_abbreviation b97d3
 -------------------------
 Symbolic Z-matrix:
 Charge =  0 Multiplicity = 6

 SCF Done:  E(UB97D) =  -3034.57780913     A.U. after    1 cycles
 SCF Done:  E(UBHandHLYP) =  -3033.96384925     A.U. after   17 cycles
 SCF Done:  E(UBHandH) =  -3026.31154752     A.U. after   16 cycles
 SCF Done:  E(ULC-wPBE) =  -3033.44945807     A.U. after   18 cycles
 SCF Done:  E(UB-P86) =  -3034.63034535     A.U. after   18 cycles
 SCF Done:  E(UmPW1LYP) =  -3034.04137877     A.U. after   15 cycles
 SCF Done:  E(UmPW1PBE) =  -3033.88536827     A.U. after   15 cycles
 SCF Done:  E(UmPW3PBE) =  -3033.65802877     A.U. after   15 cycles
 SCF Done:  E(UM11) =  -3033.80648776     A.U. after   19 cycles
 SCF Done:  E(UN12SX) =  -3033.25096183     A.U. after   17 cycles
 SCF Done:  E(UMN12SX) =  -3033.64733312     A.U. after   17 cycles
 SCF Done:  E(UB1B95) =  -3034.37868728     A.U. after   17 cycles
 Normal termination of Gaussian 16 at Tue Feb 11 23:20:44 2020.
 SCF Done:  E(UB3PW91) =  -3033.97346074     A.U. after   15 cycles
 Normal termination of Gaussian 16 at Tue Feb 11 23:35:53 2020.
 SCF Done:  E(UM06L) =  -3034.19141724     A.U. after   16 cycles
 Normal termination of Gaussian 16 at Tue Feb 11 23:53:15 2020.
 Gaussian 16:  ES64L-G16RevA.03 25-Dec-2016

                         Standard orientation:
 ---------------------------------------------------------------------
 Center     Atomic      Atomic             Coordinates (Angstroms)
 Number     Number       Type             X           Y           Z
 ---------------------------------------------------------------------
      1          8           0       -0.247953   -0.388626   -0.584775
      2          6           0       -1.276075   -1.161841   -0.251804
      3          6           0       -2.347446   -0.234571    0.858300
      4          6           0       -2.994323    0.675015   -0.013659
      5          6           0       -4.335588    0.389726   -0.583912
      6         26           0        1.496444    0.128310   -0.104206
      7         17           0        2.789387   -0.520620   -1.750434
      8          6           0       -2.272682    1.871954   -0.475922
      9         17           0        2.064565   -0.788296    1.822219
     10         17           0        1.327333    2.333422    0.088869
     11          1           0       -3.023730   -1.011341    1.220178
     12          1           0       -2.824370    2.459163   -1.211822
     13          1           0       -1.951318    2.509645    0.355582
     14          1           0       -1.315630    1.510192   -0.903704
     15          1           0       -5.027923    1.152357   -0.194345
     16          1           0       -4.339303    0.511431   -1.673989
     17          1           0       -4.719670   -0.595200   -0.313206
     18          6           0       -1.463408    0.351965    1.958147
     19          1           0       -2.084887    0.928973    2.651544
     20          1           0       -0.966795   -0.432079    2.528877
     21          1           0       -0.694578    1.012649    1.558053
     22          6           0       -0.911209   -2.375850    0.616036
     23          1           0       -1.798402   -2.940696    0.914429
     24          1           0       -0.281498   -3.020881   -0.006942
     25          1           0       -0.326364   -2.100901    1.492038
     26          6           0       -2.059820   -1.596192   -1.493277
     27          1           0       -1.431338   -2.299240   -2.048919
     28          1           0       -2.997793   -2.100121   -1.240983
     29          1           0       -2.258874   -0.748859   -2.153793
 ---------------------------------------------------------------------

 SCF Done:  E(UB97D3) =  -3034.61158371     A.U. after   16 cycles
 Normal termination of Gaussian 16 at Wed Feb 12 00:06:30 2020.
