 Gaussian 16, Revision A.03,

 --------------------------------
 #t pop=none jul-cc-pvdz upbe1pbe
 --------------------------------
 ------------------------
 theory_abbreviation pbe0
 ------------------------
 Symbolic Z-matrix:
 Charge =  0 Multiplicity = 6

 SCF Done:  E(UPBE1PBE) =  -3033.10727553     A.U. after   20 cycles
 Normal termination of Gaussian 16 at Tue Feb 11 14:45:01 2020.

 ---------------------------------------------------------------------
 #t pop=none jul-cc-pvdz guess=read upbe1pbe empiricaldispersion=gd3bj
 ---------------------------------------------------------------------
 -----------------------------
 theory_abbreviation pbe0_d3bj
 -----------------------------
 Symbolic Z-matrix:
 Charge =  0 Multiplicity = 6

 SCF Done:  E(UPBE1PBE) =  -3033.14412669     A.U. after    1 cycles
 Normal termination of Gaussian 16 at Tue Feb 11 14:46:12 2020.

 -----------------------------------------
 #t pop=none jul-cc-pvdz guess=read ub3lyp
 -----------------------------------------
 -------------------------
 theory_abbreviation b3lyp
 -------------------------
 Symbolic Z-matrix:
 Charge =  0 Multiplicity = 6

 SCF Done:  E(UB3LYP) =  -3034.32091342     A.U. after   13 cycles
 Normal termination of Gaussian 16 at Tue Feb 11 15:00:06 2020.

 -------------------------------------------------------------------
 #t pop=none jul-cc-pvdz guess=read ub3lyp empiricaldispersion=gd3bj
 -------------------------------------------------------------------
 ------------------------------
 theory_abbreviation b3lyp_d3bj
 ------------------------------
 Symbolic Z-matrix:
 Charge =  0 Multiplicity = 6

 SCF Done:  E(UB3LYP) =  -3034.38943914     A.U. after    1 cycles
 Normal termination of Gaussian 16 at Tue Feb 11 15:01:17 2020.

 ----------------------------------------
 #t pop=none jul-cc-pvdz guess=read ub97d
 ----------------------------------------
 ------------------------
 theory_abbreviation b97d
 ------------------------
 Symbolic Z-matrix:
 Charge =  0 Multiplicity = 6

 SCF Done:  E(UB97D) =  -3034.57199083     A.U. after   16 cycles

 ----------------------------------------------------------------
 #t pop=none jul-cc-pvdz guess=read ub97d empiricaldispersion=gd3
 ----------------------------------------------------------------
 -------------------------
 theory_abbreviation b97d3
 -------------------------
 Symbolic Z-matrix:
 Charge =  0 Multiplicity = 6

 SCF Done:  E(UB97D) =  -3034.57291654     A.U. after    1 cycles
 SCF Done:  E(UBHandHLYP) =  -3033.96177061     A.U. after   17 cycles
 SCF Done:  E(UBHandH) =  -3026.30674942     A.U. after   14 cycles
 SCF Done:  E(ULC-wPBE) =  -3033.45088171     A.U. after   17 cycles
 SCF Done:  E(UB-P86) =  -3034.62803652     A.U. after   16 cycles
 SCF Done:  E(UmPW1LYP) =  -3034.03894301     A.U. after   14 cycles
 SCF Done:  E(UmPW1PBE) =  -3033.88180860     A.U. after   14 cycles
 SCF Done:  E(UmPW3PBE) =  -3033.65433266     A.U. after   14 cycles
 SCF Done:  E(UM11) =  -3033.80178491     A.U. after   16 cycles
 SCF Done:  E(UN12SX) =  -3033.24762915     A.U. after   16 cycles
 SCF Done:  E(UMN12SX) =  -3033.64227812     A.U. after   15 cycles
 SCF Done:  E(UB1B95) =  -3034.37316926     A.U. after   15 cycles
 Normal termination of Gaussian 16 at Tue Feb 11 23:13:27 2020.
 SCF Done:  E(UB3PW91) =  -3033.96976897     A.U. after   14 cycles
 Normal termination of Gaussian 16 at Tue Feb 11 23:27:47 2020.
 SCF Done:  E(UM06L) =  -3034.18382655     A.U. after   18 cycles
 Normal termination of Gaussian 16 at Tue Feb 11 23:47:33 2020.
 Gaussian 16:  ES64L-G16RevA.03 25-Dec-2016

                         Standard orientation:
 ---------------------------------------------------------------------
 Center     Atomic      Atomic             Coordinates (Angstroms)
 Number     Number       Type             X           Y           Z
 ---------------------------------------------------------------------
      1          8           0       -0.424200   -0.163390   -0.492572
      2          6           0       -1.391193   -1.226047   -0.362416
      3          6           0       -2.845637   -0.095876   -0.189773
      4          6           0       -1.952948    1.110102   -0.289808
      5          6           0       -1.853059    1.820029   -1.592680
      6         26           0        1.374669    0.049629    0.045353
      7         17           0        1.854763    2.010905   -0.850237
      8          6           0       -1.562061    1.867569    0.928380
      9         17           0        2.435281   -1.705223   -0.732067
     10         17           0        1.366813    0.152860    2.254021
     11          1           0       -3.438763   -0.215785   -1.098521
     12          1           0       -2.420929    2.502071    1.198607
     13          1           0       -1.343418    1.218601    1.776609
     14          1           0       -0.704349    2.515204    0.735318
     15          1           0       -2.651995    2.578846   -1.606993
     16          1           0       -0.892031    2.330905   -1.690415
     17          1           0       -2.009851    1.146924   -2.437239
     18          6           0       -3.675961   -0.285891    1.063576
     19          1           0       -4.452052    0.485046    1.149671
     20          1           0       -4.181804   -1.255496    1.026724
     21          1           0       -3.074209   -0.259352    1.975181
     22          6           0       -1.173827   -2.063629    0.871669
     23          1           0       -1.987714   -2.783610    1.002490
     24          1           0       -0.238118   -2.625355    0.755395
     25          1           0       -1.079744   -1.451647    1.770496
     26          6           0       -1.477105   -2.013109   -1.646825
     27          1           0       -0.515998   -2.514548   -1.815466
     28          1           0       -2.264778   -2.771800   -1.591783
     29          1           0       -1.667853   -1.357325   -2.500610
 ---------------------------------------------------------------------

 SCF Done:  E(UB97D3) =  -3034.60797123     A.U. after   16 cycles
 Normal termination of Gaussian 16 at Wed Feb 12 00:01:16 2020.
