 Gaussian 16, Revision A.03,

 --------------------------------
 #t pop=none jul-cc-pvdz upbe1pbe
 --------------------------------
 ------------------------
 theory_abbreviation pbe0
 ------------------------
 Symbolic Z-matrix:
 Charge =  0 Multiplicity = 6

 SCF Done:  E(UPBE1PBE) =  -3033.13435776     A.U. after   20 cycles
 Normal termination of Gaussian 16 at Tue Feb 11 13:59:05 2020.

 ---------------------------------------------------------------------
 #t pop=none jul-cc-pvdz guess=read upbe1pbe empiricaldispersion=gd3bj
 ---------------------------------------------------------------------
 -----------------------------
 theory_abbreviation pbe0_d3bj
 -----------------------------
 Symbolic Z-matrix:
 Charge =  0 Multiplicity = 6

 SCF Done:  E(UPBE1PBE) =  -3033.17090065     A.U. after    1 cycles
 Normal termination of Gaussian 16 at Tue Feb 11 14:00:15 2020.

 -----------------------------------------
 #t pop=none jul-cc-pvdz guess=read ub3lyp
 -----------------------------------------
 -------------------------
 theory_abbreviation b3lyp
 -------------------------
 Symbolic Z-matrix:
 Charge =  0 Multiplicity = 6

 SCF Done:  E(UB3LYP) =  -3034.35242548     A.U. after   13 cycles
 Normal termination of Gaussian 16 at Tue Feb 11 14:13:54 2020.

 -------------------------------------------------------------------
 #t pop=none jul-cc-pvdz guess=read ub3lyp empiricaldispersion=gd3bj
 -------------------------------------------------------------------
 ------------------------------
 theory_abbreviation b3lyp_d3bj
 ------------------------------
 Symbolic Z-matrix:
 Charge =  0 Multiplicity = 6

 SCF Done:  E(UB3LYP) =  -3034.42011746     A.U. after    1 cycles
 Normal termination of Gaussian 16 at Tue Feb 11 14:15:04 2020.

 ----------------------------------------
 #t pop=none jul-cc-pvdz guess=read ub97d
 ----------------------------------------
 ------------------------
 theory_abbreviation b97d
 ------------------------
 Symbolic Z-matrix:
 Charge =  0 Multiplicity = 6

 SCF Done:  E(UB97D) =  -3034.60274411     A.U. after   16 cycles

 ----------------------------------------------------------------
 #t pop=none jul-cc-pvdz guess=read ub97d empiricaldispersion=gd3
 ----------------------------------------------------------------
 -------------------------
 theory_abbreviation b97d3
 -------------------------
 Symbolic Z-matrix:
 Charge =  0 Multiplicity = 6

 SCF Done:  E(UB97D) =  -3034.60478429     A.U. after    2 cycles
 SCF Done:  E(UBHandHLYP) =  -3033.99454217     A.U. after   18 cycles
 SCF Done:  E(UBHandH) =  -3026.33134640     A.U. after   14 cycles
 SCF Done:  E(ULC-wPBE) =  -3033.47615757     A.U. after   17 cycles
 SCF Done:  E(UB-P86) =  -3034.65234426     A.U. after   17 cycles
 SCF Done:  E(UmPW1LYP) =  -3034.07079577     A.U. after   13 cycles
 SCF Done:  E(UmPW1PBE) =  -3033.90883217     A.U. after   14 cycles
 SCF Done:  E(UmPW3PBE) =  -3033.68174425     A.U. after   13 cycles
 SCF Done:  E(UM11) =  -3033.83365419     A.U. after   17 cycles
 SCF Done:  E(UN12SX) =  -3033.27322371     A.U. after   17 cycles
 SCF Done:  E(UMN12SX) =  -3033.67590112     A.U. after   16 cycles
 SCF Done:  E(UB1B95) =  -3034.40529098     A.U. after   14 cycles
 Normal termination of Gaussian 16 at Tue Feb 11 22:42:05 2020.
 SCF Done:  E(UB3PW91) =  -3033.99793822     A.U. after   15 cycles
 Normal termination of Gaussian 16 at Tue Feb 11 22:59:17 2020.
 SCF Done:  E(UM06L) =  -3034.22050460     A.U. after   17 cycles
 Normal termination of Gaussian 16 at Tue Feb 11 23:18:09 2020.
 Gaussian 16:  ES64L-G16RevA.03 25-Dec-2016

                         Standard orientation:
 ---------------------------------------------------------------------
 Center     Atomic      Atomic             Coordinates (Angstroms)
 Number     Number       Type             X           Y           Z
 ---------------------------------------------------------------------
      1          8           0        0.250544    0.344272   -0.808840
      2          6           0        0.987393    1.339975   -0.631662
      3          6           0        3.211103   -0.018414    0.392981
      4          6           0        2.534965   -0.985224   -0.257648
      5          6           0        2.774480   -1.262479   -1.717404
      6         26           0       -1.468495   -0.146109    0.042860
      7         17           0       -2.099084   -1.952990   -0.987335
      8          6           0        1.605642   -1.959462    0.407826
      9         17           0       -2.631296    1.654237   -0.410498
     10         17           0       -1.151130   -0.379495    2.199435
     11          1           0        3.928922    0.565297   -0.184643
     12          1           0        2.112222   -2.929186    0.510466
     13          1           0        1.276544   -1.649520    1.399543
     14          1           0        0.720408   -2.144176   -0.210409
     15          1           0        3.147090   -2.287076   -1.846898
     16          1           0        1.836985   -1.201061   -2.284422
     17          1           0        3.508242   -0.581114   -2.158336
     18          6           0        3.202801    0.255953    1.871537
     19          1           0        4.077247   -0.204950    2.351263
     20          1           0        3.264163    1.329917    2.081169
     21          1           0        2.312986   -0.134876    2.371995
     22          6           0        0.885052    2.170099    0.607419
     23          1           0        1.770167    2.789357    0.758226
     24          1           0        0.015767    2.830483    0.469249
     25          1           0        0.687951    1.553862    1.485475
     26          6           0        1.756814    1.878749   -1.796623
     27          1           0        1.156440    2.706352   -2.203254
     28          1           0        2.721648    2.288594   -1.493174
     29          1           0        1.875882    1.127793   -2.575680
 ---------------------------------------------------------------------

 SCF Done:  E(UB97D3) =  -3034.63925593     A.U. after   16 cycles
 Normal termination of Gaussian 16 at Tue Feb 11 23:30:46 2020.
