 Gaussian 16, Revision A.03,

 --------------------------------
 #t pop=none jul-cc-pvdz upbe1pbe
 --------------------------------
 ------------------------
 theory_abbreviation pbe0
 ------------------------
 Symbolic Z-matrix:
 Charge =  0 Multiplicity = 6

 SCF Done:  E(UPBE1PBE) =  -3033.12937630     A.U. after   21 cycles
 Normal termination of Gaussian 16 at Tue Feb 11 23:39:17 2020.

 ---------------------------------------------------------------------
 #t pop=none jul-cc-pvdz guess=read upbe1pbe empiricaldispersion=gd3bj
 ---------------------------------------------------------------------
 -----------------------------
 theory_abbreviation pbe0_d3bj
 -----------------------------
 Symbolic Z-matrix:
 Charge =  0 Multiplicity = 6

 SCF Done:  E(UPBE1PBE) =  -3033.16616882     A.U. after    1 cycles
 Normal termination of Gaussian 16 at Tue Feb 11 23:40:25 2020.

 -----------------------------------------
 #t pop=none jul-cc-pvdz guess=read ub3lyp
 -----------------------------------------
 -------------------------
 theory_abbreviation b3lyp
 -------------------------
 Symbolic Z-matrix:
 Charge =  0 Multiplicity = 6

 SCF Done:  E(UB3LYP) =  -3034.34681723     A.U. after   13 cycles
 Normal termination of Gaussian 16 at Tue Feb 11 23:53:35 2020.

 -------------------------------------------------------------------
 #t pop=none jul-cc-pvdz guess=read ub3lyp empiricaldispersion=gd3bj
 -------------------------------------------------------------------
 ------------------------------
 theory_abbreviation b3lyp_d3bj
 ------------------------------
 Symbolic Z-matrix:
 Charge =  0 Multiplicity = 6

 SCF Done:  E(UB3LYP) =  -3034.41511995     A.U. after    1 cycles
 Normal termination of Gaussian 16 at Tue Feb 11 23:54:43 2020.

 ----------------------------------------
 #t pop=none jul-cc-pvdz guess=read ub97d
 ----------------------------------------
 ------------------------
 theory_abbreviation b97d
 ------------------------
 Symbolic Z-matrix:
 Charge =  0 Multiplicity = 6

 SCF Done:  E(UB97D) =  -3034.59915948     A.U. after   15 cycles

 ----------------------------------------------------------------
 #t pop=none jul-cc-pvdz guess=read ub97d empiricaldispersion=gd3
 ----------------------------------------------------------------
 -------------------------
 theory_abbreviation b97d3
 -------------------------
 Symbolic Z-matrix:
 Charge =  0 Multiplicity = 6

 SCF Done:  E(UB97D) =  -3034.60016960     A.U. after    1 cycles
 SCF Done:  E(UBHandHLYP) =  -3033.98760484     A.U. after   18 cycles
 SCF Done:  E(UBHandH) =  -3026.32665057     A.U. after   15 cycles
 SCF Done:  E(ULC-wPBE) =  -3033.46919149     A.U. after   19 cycles
 SCF Done:  E(UB-P86) =  -3034.64885375     A.U. after   16 cycles
 SCF Done:  E(UmPW1LYP) =  -3034.06496873     A.U. after   14 cycles
 SCF Done:  E(UmPW1PBE) =  -3033.90385524     A.U. after   14 cycles
 SCF Done:  E(UmPW3PBE) =  -3033.67689018     A.U. after   13 cycles
 SCF Done:  E(UM11) =  -3033.82667093     A.U. after   17 cycles
 SCF Done:  E(UN12SX) =  -3033.26819243     A.U. after   17 cycles
 SCF Done:  E(UMN12SX) =  -3033.66920164     A.U. after   16 cycles
 SCF Done:  E(UB1B95) =  -3034.39920082     A.U. after   14 cycles
 Normal termination of Gaussian 16 at Wed Feb 12 08:03:03 2020.
 SCF Done:  E(UB3PW91) =  -3033.99290381     A.U. after   13 cycles
 Normal termination of Gaussian 16 at Wed Feb 12 08:15:54 2020.
 SCF Done:  E(UM06L) =  -3034.21432797     A.U. after   18 cycles
 Normal termination of Gaussian 16 at Wed Feb 12 08:35:10 2020.
 Gaussian 16:  ES64L-G16RevA.03 25-Dec-2016

                         Standard orientation:
 ---------------------------------------------------------------------
 Center     Atomic      Atomic             Coordinates (Angstroms)
 Number     Number       Type             X           Y           Z
 ---------------------------------------------------------------------
      1          8           0        0.205558    0.334028   -0.844227
      2          6           0        1.051266    1.254533   -0.654629
      3          6           0        2.908879    0.251137    0.588343
      4          6           0        2.717309   -0.905654   -0.093035
      5          6           0        3.364670   -1.155351   -1.424747
      6         26           0       -1.486375   -0.164511   -0.013241
      7         17           0       -2.024054   -2.037449   -0.988733
      8          6           0        1.814241   -2.001788    0.381207
      9         17           0       -2.741601    1.565350   -0.484498
     10         17           0       -1.138590   -0.377537    2.147684
     11          1           0        3.623206    0.957756    0.167263
     12          1           0        2.348704   -2.960088    0.389897
     13          1           0        1.394182   -1.827417    1.371315
     14          1           0        0.980549   -2.120888   -0.325417
     15          1           0        3.983611   -2.060264   -1.368889
     16          1           0        2.608926   -1.348268   -2.198237
     17          1           0        4.004497   -0.329002   -1.744612
     18          6           0        2.580253    0.458814    2.047683
     19          1           0        3.325466   -0.056896    2.667422
     20          1           0        2.620755    1.516150    2.320484
     21          1           0        1.597451    0.074764    2.328892
     22          6           0        0.810866    2.273966    0.421315
     23          1           0        1.692106    2.883165    0.624887
     24          1           0        0.018169    2.927318    0.027573
     25          1           0        0.431718    1.823559    1.338245
     26          6           0        1.862830    1.680821   -1.847552
     27          1           0        1.230874    2.394823   -2.395030
     28          1           0        2.785392    2.192541   -1.571012
     29          1           0        2.065938    0.842739   -2.511905
 ---------------------------------------------------------------------

 SCF Done:  E(UB97D3) =  -3034.63536622     A.U. after   15 cycles
 Normal termination of Gaussian 16 at Wed Feb 12 08:46:55 2020.
