 Gaussian 16, Revision A.03,

 --------------------------------
 #t pop=none jul-cc-pvdz upbe1pbe
 --------------------------------
 ------------------------
 theory_abbreviation pbe0
 ------------------------
 Symbolic Z-matrix:
 Charge =  0 Multiplicity = 6

 SCF Done:  E(UPBE1PBE) =  -3033.13833817     A.U. after   20 cycles
 Normal termination of Gaussian 16 at Wed Feb 12 15:27:24 2020.

 ---------------------------------------------------------------------
 #t pop=none jul-cc-pvdz guess=read upbe1pbe empiricaldispersion=gd3bj
 ---------------------------------------------------------------------
 -----------------------------
 theory_abbreviation pbe0_d3bj
 -----------------------------
 Symbolic Z-matrix:
 Charge =  0 Multiplicity = 6

 SCF Done:  E(UPBE1PBE) =  -3033.17448541     A.U. after    1 cycles
 Normal termination of Gaussian 16 at Wed Feb 12 15:28:30 2020.

 -----------------------------------------
 #t pop=none jul-cc-pvdz guess=read ub3lyp
 -----------------------------------------
 -------------------------
 theory_abbreviation b3lyp
 -------------------------
 Symbolic Z-matrix:
 Charge =  0 Multiplicity = 6

 SCF Done:  E(UB3LYP) =  -3034.35697863     A.U. after   13 cycles
 Normal termination of Gaussian 16 at Wed Feb 12 15:41:09 2020.

 -------------------------------------------------------------------
 #t pop=none jul-cc-pvdz guess=read ub3lyp empiricaldispersion=gd3bj
 -------------------------------------------------------------------
 ------------------------------
 theory_abbreviation b3lyp_d3bj
 ------------------------------
 Symbolic Z-matrix:
 Charge =  0 Multiplicity = 6

 SCF Done:  E(UB3LYP) =  -3034.42382468     A.U. after    1 cycles
 Normal termination of Gaussian 16 at Wed Feb 12 15:42:13 2020.

 ----------------------------------------
 #t pop=none jul-cc-pvdz guess=read ub97d
 ----------------------------------------
 ------------------------
 theory_abbreviation b97d
 ------------------------
 Symbolic Z-matrix:
 Charge =  0 Multiplicity = 6

 SCF Done:  E(UB97D) =  -3034.60645033     A.U. after   17 cycles

 ----------------------------------------------------------------
 #t pop=none jul-cc-pvdz guess=read ub97d empiricaldispersion=gd3
 ----------------------------------------------------------------
 -------------------------
 theory_abbreviation b97d3
 -------------------------
 Symbolic Z-matrix:
 Charge =  0 Multiplicity = 6

 SCF Done:  E(UB97D) =  -3034.60839811     A.U. after    1 cycles
 SCF Done:  E(UBHandHLYP) =  -3033.99907287     A.U. after   18 cycles
 SCF Done:  E(UBHandH) =  -3026.33414996     A.U. after   14 cycles
 SCF Done:  E(ULC-wPBE) =  -3033.47996108     A.U. after   17 cycles
 SCF Done:  E(UB-P86) =  -3034.65548483     A.U. after   17 cycles
 SCF Done:  E(UmPW1LYP) =  -3034.07537165     A.U. after   13 cycles
 SCF Done:  E(UmPW1PBE) =  -3033.91281589     A.U. after   14 cycles
 SCF Done:  E(UmPW3PBE) =  -3033.68576731     A.U. after   13 cycles
 SCF Done:  E(UM11) =  -3033.83747491     A.U. after   17 cycles
 SCF Done:  E(UN12SX) =  -3033.27730455     A.U. after   16 cycles
 SCF Done:  E(UMN12SX) =  -3033.67991635     A.U. after   16 cycles
 SCF Done:  E(UB1B95) =  -3034.40931892     A.U. after   14 cycles
 Normal termination of Gaussian 16 at Wed Feb 12 23:03:46 2020.
 SCF Done:  E(UB3PW91) =  -3034.00207566     A.U. after   14 cycles
 Normal termination of Gaussian 16 at Wed Feb 12 23:17:18 2020.
 SCF Done:  E(UM06L) =  -3034.22414115     A.U. after   17 cycles
 Normal termination of Gaussian 16 at Wed Feb 12 23:35:17 2020.
 Gaussian 16:  ES64L-G16RevA.03 25-Dec-2016

                         Standard orientation:
 ---------------------------------------------------------------------
 Center     Atomic      Atomic             Coordinates (Angstroms)
 Number     Number       Type             X           Y           Z
 ---------------------------------------------------------------------
      1          8           0        0.200120    0.427608   -0.857133
      2          6           0        0.927619    1.419536   -0.639285
      3          6           0        3.181178    0.006977    0.516632
      4          6           0        2.625389   -0.943962   -0.257622
      5          6           0        3.004612   -1.093096   -1.707578
      6         26           0       -1.475718   -0.170187    0.027042
      7         17           0       -2.076205   -1.946672   -1.068316
      8          6           0        1.677327   -1.998073    0.238841
      9         17           0       -2.717079    1.603603   -0.295302
     10         17           0       -1.063652   -0.498401    2.154504
     11          1           0        3.914972    0.665516    0.049131
     12          1           0        2.176810   -2.976555    0.225173
     13          1           0        1.312987   -1.821909    1.250640
     14          1           0        0.812645   -2.091356   -0.428921
     15          1           0        3.461970   -2.076428   -1.879348
     16          1           0        2.115298   -1.051653   -2.349917
     17          1           0        3.717490   -0.330042   -2.034389
     18          6           0        3.013156    0.186541    2.000229
     19          1           0        3.859162   -0.261050    2.539901
     20          1           0        2.997698    1.247594    2.274568
     21          1           0        2.098581   -0.272653    2.383892
     22          6           0        0.799602    2.218233    0.617796
     23          1           0        1.675370    2.844496    0.793484
     24          1           0       -0.078276    2.868873    0.489572
     25          1           0        0.604085    1.576563    1.478064
     26          6           0        1.750063    1.968277   -1.761979
     27          1           0        1.221026    2.858227   -2.133455
     28          1           0        2.733520    2.292618   -1.416302
     29          1           0        1.838599    1.250159   -2.575411
 ---------------------------------------------------------------------

 SCF Done:  E(UB97D3) =  -3034.64279899     A.U. after   16 cycles
 Normal termination of Gaussian 16 at Wed Feb 12 23:47:31 2020.
