 Gaussian 16, Revision A.03,

 --------------------------------
 #t pop=none jul-cc-pvdz upbe1pbe
 --------------------------------
 ------------------------
 theory_abbreviation pbe0
 ------------------------
 Symbolic Z-matrix:
 Charge =  0 Multiplicity = 6

 SCF Done:  E(UPBE1PBE) =  -3033.09241470     A.U. after   20 cycles
 Normal termination of Gaussian 16 at Tue Feb 11 14:00:26 2020.

 ---------------------------------------------------------------------
 #t pop=none jul-cc-pvdz guess=read upbe1pbe empiricaldispersion=gd3bj
 ---------------------------------------------------------------------
 -----------------------------
 theory_abbreviation pbe0_d3bj
 -----------------------------
 Symbolic Z-matrix:
 Charge =  0 Multiplicity = 6

 SCF Done:  E(UPBE1PBE) =  -3033.13028436     A.U. after    1 cycles
 Normal termination of Gaussian 16 at Tue Feb 11 14:01:38 2020.

 -----------------------------------------
 #t pop=none jul-cc-pvdz guess=read ub3lyp
 -----------------------------------------
 -------------------------
 theory_abbreviation b3lyp
 -------------------------
 Symbolic Z-matrix:
 Charge =  0 Multiplicity = 6

 SCF Done:  E(UB3LYP) =  -3034.30536853     A.U. after   15 cycles
 Normal termination of Gaussian 16 at Tue Feb 11 14:17:55 2020.

 -------------------------------------------------------------------
 #t pop=none jul-cc-pvdz guess=read ub3lyp empiricaldispersion=gd3bj
 -------------------------------------------------------------------
 ------------------------------
 theory_abbreviation b3lyp_d3bj
 ------------------------------
 Symbolic Z-matrix:
 Charge =  0 Multiplicity = 6

 SCF Done:  E(UB3LYP) =  -3034.37595644     A.U. after    1 cycles
 Normal termination of Gaussian 16 at Tue Feb 11 14:19:07 2020.

 ----------------------------------------
 #t pop=none jul-cc-pvdz guess=read ub97d
 ----------------------------------------
 ------------------------
 theory_abbreviation b97d
 ------------------------
 Symbolic Z-matrix:
 Charge =  0 Multiplicity = 6

 SCF Done:  E(UB97D) =  -3034.55855883     A.U. after   16 cycles

 ----------------------------------------------------------------
 #t pop=none jul-cc-pvdz guess=read ub97d empiricaldispersion=gd3
 ----------------------------------------------------------------
 -------------------------
 theory_abbreviation b97d3
 -------------------------
 Symbolic Z-matrix:
 Charge =  0 Multiplicity = 6

 SCF Done:  E(UB97D) =  -3034.56004480     A.U. after    1 cycles
 SCF Done:  E(UBHandHLYP) =  -3033.94721920     A.U. after   18 cycles
 SCF Done:  E(UBHandH) =  -3026.29489019     A.U. after   15 cycles
 SCF Done:  E(ULC-wPBE) =  -3033.43244241     A.U. after   19 cycles
 SCF Done:  E(UB-P86) =  -3034.61328562     A.U. after   16 cycles
 SCF Done:  E(UmPW1LYP) =  -3034.02348105     A.U. after   15 cycles
 SCF Done:  E(UmPW1PBE) =  -3033.86688478     A.U. after   15 cycles
 SCF Done:  E(UmPW3PBE) =  -3033.63932169     A.U. after   13 cycles
 SCF Done:  E(UM11) =  -3033.78854843     A.U. after   19 cycles
 SCF Done:  E(UN12SX) =  -3033.23245777     A.U. after   16 cycles
 SCF Done:  E(UMN12SX) =  -3033.63125833     A.U. after   15 cycles
 SCF Done:  E(UB1B95) =  -3034.36153053     A.U. after   16 cycles
 Normal termination of Gaussian 16 at Tue Feb 11 23:09:41 2020.
 SCF Done:  E(UB3PW91) =  -3033.95463759     A.U. after   14 cycles
 Normal termination of Gaussian 16 at Tue Feb 11 23:24:51 2020.
 SCF Done:  E(UM06L) =  -3034.17237876     A.U. after   17 cycles
 Normal termination of Gaussian 16 at Tue Feb 11 23:44:12 2020.
 Gaussian 16:  ES64L-G16RevA.03 25-Dec-2016

                         Standard orientation:
 ---------------------------------------------------------------------
 Center     Atomic      Atomic             Coordinates (Angstroms)
 Number     Number       Type             X           Y           Z
 ---------------------------------------------------------------------
      1          8           0       -0.377198   -0.064300   -0.464364
      2          6           0       -1.272985   -1.050912   -0.425755
      3          6           0       -3.062372    0.015025   -0.157671
      4          6           0       -2.138484    1.058088   -0.245091
      5          6           0       -1.906152    1.757665   -1.544229
      6         26           0        1.430669    0.049768    0.055659
      7         17           0        2.016187    1.991645   -0.802122
      8          6           0       -1.603020    1.739192    0.972874
      9         17           0        2.355320   -1.761261   -0.792525
     10         17           0        1.437674    0.043788    2.266379
     11          1           0       -3.578330   -0.236343   -1.081803
     12          1           0       -2.382338    2.434580    1.319485
     13          1           0       -1.388394    1.050862    1.791114
     14          1           0       -0.701820    2.311692    0.748767
     15          1           0       -2.544384    2.654540   -1.530724
     16          1           0       -0.868459    2.080032   -1.649380
     17          1           0       -2.204897    1.156634   -2.405478
     18          6           0       -3.784038   -0.381355    1.105394
     19          1           0       -4.687498    0.230503    1.228612
     20          1           0       -4.108293   -1.425822    1.063325
     21          1           0       -3.176793   -0.252420    2.003816
     22          6           0       -1.225813   -1.948964    0.777506
     23          1           0       -2.078442   -2.628337    0.827542
     24          1           0       -0.311401   -2.549986    0.664143
     25          1           0       -1.121904   -1.385676    1.705493
     26          6           0       -1.528393   -1.720764   -1.749315
     27          1           0       -0.611844   -2.282095   -1.981543
     28          1           0       -2.371428   -2.414600   -1.708744
     29          1           0       -1.672140   -0.991896   -2.548594
 ---------------------------------------------------------------------

 SCF Done:  E(UB97D3) =  -3034.59577008     A.U. after   16 cycles
 Normal termination of Gaussian 16 at Tue Feb 11 23:57:10 2020.
