 Gaussian 16, Revision A.03,

 --------------------------------
 #t pop=none jul-cc-pvdz upbe1pbe
 --------------------------------
 ------------------------
 theory_abbreviation pbe0
 ------------------------
 Symbolic Z-matrix:
 Charge =  0 Multiplicity = 6

 SCF Done:  E(UPBE1PBE) =  -3033.12183500     A.U. after   21 cycles
 Normal termination of Gaussian 16 at Tue Feb 11 23:39:01 2020.

 ---------------------------------------------------------------------
 #t pop=none jul-cc-pvdz guess=read upbe1pbe empiricaldispersion=gd3bj
 ---------------------------------------------------------------------
 -----------------------------
 theory_abbreviation pbe0_d3bj
 -----------------------------
 Symbolic Z-matrix:
 Charge =  0 Multiplicity = 6

 SCF Done:  E(UPBE1PBE) =  -3033.15813784     A.U. after    1 cycles
 Normal termination of Gaussian 16 at Tue Feb 11 23:40:08 2020.

 -----------------------------------------
 #t pop=none jul-cc-pvdz guess=read ub3lyp
 -----------------------------------------
 -------------------------
 theory_abbreviation b3lyp
 -------------------------
 Symbolic Z-matrix:
 Charge =  0 Multiplicity = 6

 SCF Done:  E(UB3LYP) =  -3034.33837909     A.U. after   15 cycles
 Normal termination of Gaussian 16 at Tue Feb 11 23:55:05 2020.

 -------------------------------------------------------------------
 #t pop=none jul-cc-pvdz guess=read ub3lyp empiricaldispersion=gd3bj
 -------------------------------------------------------------------
 ------------------------------
 theory_abbreviation b3lyp_d3bj
 ------------------------------
 Symbolic Z-matrix:
 Charge =  0 Multiplicity = 6

 SCF Done:  E(UB3LYP) =  -3034.40604120     A.U. after    1 cycles
 Normal termination of Gaussian 16 at Tue Feb 11 23:56:12 2020.

 ----------------------------------------
 #t pop=none jul-cc-pvdz guess=read ub97d
 ----------------------------------------
 ------------------------
 theory_abbreviation b97d
 ------------------------
 Symbolic Z-matrix:
 Charge =  0 Multiplicity = 6

 SCF Done:  E(UB97D) =  -3034.59086206     A.U. after   16 cycles

 ----------------------------------------------------------------
 #t pop=none jul-cc-pvdz guess=read ub97d empiricaldispersion=gd3
 ----------------------------------------------------------------
 -------------------------
 theory_abbreviation b97d3
 -------------------------
 Symbolic Z-matrix:
 Charge =  0 Multiplicity = 6

 SCF Done:  E(UB97D) =  -3034.59210666     A.U. after    1 cycles
 SCF Done:  E(UBHandHLYP) =  -3033.97749245     A.U. after   18 cycles
 SCF Done:  E(UBHandH) =  -3026.31861387     A.U. after   16 cycles
 SCF Done:  E(ULC-wPBE) =  -3033.45946912     A.U. after   19 cycles
 SCF Done:  E(UB-P86) =  -3034.64170270     A.U. after   17 cycles
 SCF Done:  E(UmPW1LYP) =  -3034.05606905     A.U. after   16 cycles
 SCF Done:  E(UmPW1PBE) =  -3033.89653973     A.U. after   16 cycles
 SCF Done:  E(UmPW3PBE) =  -3033.66963263     A.U. after   13 cycles
 SCF Done:  E(UM11) =  -3033.81747631     A.U. after   17 cycles
 SCF Done:  E(UN12SX) =  -3033.26069841     A.U. after   15 cycles
 SCF Done:  E(UMN12SX) =  -3033.65891451     A.U. after   17 cycles
 SCF Done:  E(UB1B95) =  -3034.39067607     A.U. after   15 cycles
 Normal termination of Gaussian 16 at Wed Feb 12 08:25:23 2020.
 SCF Done:  E(UB3PW91) =  -3033.98557277     A.U. after   15 cycles
 Normal termination of Gaussian 16 at Wed Feb 12 08:40:26 2020.
 SCF Done:  E(UM06L) =  -3034.20327807     A.U. after   16 cycles
 Normal termination of Gaussian 16 at Wed Feb 12 08:57:34 2020.
 Gaussian 16:  ES64L-G16RevA.03 25-Dec-2016

                         Standard orientation:
 ---------------------------------------------------------------------
 Center     Atomic      Atomic             Coordinates (Angstroms)
 Number     Number       Type             X           Y           Z
 ---------------------------------------------------------------------
      1          8           0        0.285948    0.222430   -0.485589
      2          6           0        1.108932    1.159950   -0.202751
      3          6           0        2.692619    0.142306    0.935819
      4          6           0        3.128770   -0.651289   -0.091975
      5          6           0        4.244906   -0.238981   -0.999438
      6         26           0       -1.561807   -0.175503   -0.107401
      7         17           0       -1.892279   -2.061859   -1.157510
      8          6           0        2.453746   -1.950769   -0.385381
      9         17           0       -2.561597    1.597656   -0.928436
     10         17           0       -1.837117   -0.341494    2.067224
     11          1           0        3.271844    1.043245    1.133121
     12          1           0        2.966746   -2.520385   -1.163852
     13          1           0        2.355044   -2.574037    0.509804
     14          1           0        1.427072   -1.738515   -0.727540
     15          1           0        5.080074   -0.941410   -0.870053
     16          1           0        3.952272   -0.305774   -2.054888
     17          1           0        4.613202    0.768055   -0.789633
     18          6           0        1.896479   -0.419743    2.092633
     19          1           0        2.451762   -1.237530    2.567836
     20          1           0        1.713881    0.337292    2.857055
     21          1           0        0.928572   -0.819519    1.781148
     22          6           0        0.743502    2.117524    0.910266
     23          1           0        1.588954    2.724367    1.239469
     24          1           0       -0.014756    2.785812    0.477654
     25          1           0        0.280569    1.608253    1.754514
     26          6           0        1.844107    1.765577   -1.374071
     27          1           0        1.147840    2.481998   -1.830540
     28          1           0        2.742597    2.308443   -1.074151
     29          1           0        2.082267    1.012733   -2.125150
 ---------------------------------------------------------------------

 SCF Done:  E(UB97D3) =  -3034.62730459     A.U. after   15 cycles
 Normal termination of Gaussian 16 at Wed Feb 12 09:09:45 2020.
