 Gaussian 16, Revision A.03,

 --------------------------------
 #t pop=none jul-cc-pvdz upbe1pbe
 --------------------------------
 ------------------------
 theory_abbreviation pbe0
 ------------------------
 Symbolic Z-matrix:
 Charge =  0 Multiplicity = 6

 SCF Done:  E(UPBE1PBE) =  -3033.12768579     A.U. after   21 cycles
 Normal termination of Gaussian 16 at Tue Feb 11 13:59:49 2020.

 ---------------------------------------------------------------------
 #t pop=none jul-cc-pvdz guess=read upbe1pbe empiricaldispersion=gd3bj
 ---------------------------------------------------------------------
 -----------------------------
 theory_abbreviation pbe0_d3bj
 -----------------------------
 Symbolic Z-matrix:
 Charge =  0 Multiplicity = 6

 SCF Done:  E(UPBE1PBE) =  -3033.16433323     A.U. after    1 cycles
 Normal termination of Gaussian 16 at Tue Feb 11 14:00:59 2020.

 -----------------------------------------
 #t pop=none jul-cc-pvdz guess=read ub3lyp
 -----------------------------------------
 -------------------------
 theory_abbreviation b3lyp
 -------------------------
 Symbolic Z-matrix:
 Charge =  0 Multiplicity = 6

 SCF Done:  E(UB3LYP) =  -3034.34515442     A.U. after   13 cycles
 Normal termination of Gaussian 16 at Tue Feb 11 14:14:35 2020.

 -------------------------------------------------------------------
 #t pop=none jul-cc-pvdz guess=read ub3lyp empiricaldispersion=gd3bj
 -------------------------------------------------------------------
 ------------------------------
 theory_abbreviation b3lyp_d3bj
 ------------------------------
 Symbolic Z-matrix:
 Charge =  0 Multiplicity = 6

 SCF Done:  E(UB3LYP) =  -3034.41318937     A.U. after    1 cycles
 Normal termination of Gaussian 16 at Tue Feb 11 14:15:45 2020.

 ----------------------------------------
 #t pop=none jul-cc-pvdz guess=read ub97d
 ----------------------------------------
 ------------------------
 theory_abbreviation b97d
 ------------------------
 Symbolic Z-matrix:
 Charge =  0 Multiplicity = 6

 SCF Done:  E(UB97D) =  -3034.59741623     A.U. after   15 cycles

 ----------------------------------------------------------------
 #t pop=none jul-cc-pvdz guess=read ub97d empiricaldispersion=gd3
 ----------------------------------------------------------------
 -------------------------
 theory_abbreviation b97d3
 -------------------------
 Symbolic Z-matrix:
 Charge =  0 Multiplicity = 6

 SCF Done:  E(UB97D) =  -3034.59832628     A.U. after    1 cycles
 SCF Done:  E(UBHandHLYP) =  -3033.98552351     A.U. after   18 cycles
 SCF Done:  E(UBHandH) =  -3026.32454440     A.U. after   16 cycles
 SCF Done:  E(ULC-wPBE) =  -3033.46687492     A.U. after   19 cycles
 SCF Done:  E(UB-P86) =  -3034.64722029     A.U. after   16 cycles
 SCF Done:  E(UmPW1LYP) =  -3034.06321511     A.U. after   14 cycles
 SCF Done:  E(UmPW1PBE) =  -3033.90221952     A.U. after   14 cycles
 SCF Done:  E(UmPW3PBE) =  -3033.67529581     A.U. after   13 cycles
 SCF Done:  E(UM11) =  -3033.82431506     A.U. after   17 cycles
 SCF Done:  E(UN12SX) =  -3033.26647514     A.U. after   17 cycles
 SCF Done:  E(UMN12SX) =  -3033.66684117     A.U. after   16 cycles
 SCF Done:  E(UB1B95) =  -3034.39720100     A.U. after   14 cycles
 Normal termination of Gaussian 16 at Tue Feb 11 22:43:50 2020.
 SCF Done:  E(UB3PW91) =  -3033.99131982     A.U. after   15 cycles
 Normal termination of Gaussian 16 at Tue Feb 11 23:00:19 2020.
 SCF Done:  E(UM06L) =  -3034.21195502     A.U. after   18 cycles
 Normal termination of Gaussian 16 at Tue Feb 11 23:20:02 2020.
 Gaussian 16:  ES64L-G16RevA.03 25-Dec-2016

                         Standard orientation:
 ---------------------------------------------------------------------
 Center     Atomic      Atomic             Coordinates (Angstroms)
 Number     Number       Type             X           Y           Z
 ---------------------------------------------------------------------
      1          8           0        0.199902    0.335873   -0.820342
      2          6           0        1.057680    1.248397   -0.628865
      3          6           0        2.868028    0.292138    0.623419
      4          6           0        2.784015   -0.873351   -0.070276
      5          6           0        3.517603   -1.080089   -1.363143
      6         26           0       -1.499731   -0.172190   -0.024825
      7         17           0       -2.008225   -2.040163   -1.027748
      8          6           0        1.895647   -2.004516    0.343812
      9         17           0       -2.758064    1.555484   -0.496841
     10         17           0       -1.185192   -0.414923    2.137871
     11          1           0        3.571822    1.034757    0.249333
     12          1           0        2.430303   -2.960298    0.287766
     13          1           0        1.478986   -1.890987    1.344521
     14          1           0        1.055820   -2.076910   -0.363521
     15          1           0        4.195699   -1.938026   -1.265394
     16          1           0        2.822337   -1.330507   -2.175860
     17          1           0        4.113294   -0.211339   -1.653983
     18          6           0        2.471886    0.451119    2.073726
     19          1           0        3.187555   -0.087085    2.708452
     20          1           0        2.500771    1.498619    2.382068
     21          1           0        1.477126    0.060721    2.297119
     22          6           0        0.795531    2.291365    0.421740
     23          1           0        1.674414    2.899146    0.639847
     24          1           0        0.019087    2.941418   -0.007625
     25          1           0        0.386769    1.861124    1.335627
     26          6           0        1.868798    1.662123   -1.828437
     27          1           0        1.232345    2.360390   -2.390305
     28          1           0        2.787444    2.185320   -1.560177
     29          1           0        2.080054    0.813733   -2.477342
 ---------------------------------------------------------------------

 SCF Done:  E(UB97D3) =  -3034.63370888     A.U. after   15 cycles
 Normal termination of Gaussian 16 at Tue Feb 11 23:31:49 2020.
