 Gaussian 16, Revision A.03,

 --------------------------------
 #t pop=none jul-cc-pvdz upbe1pbe
 --------------------------------
 ------------------------
 theory_abbreviation pbe0
 ------------------------
 Symbolic Z-matrix:
 Charge =  0 Multiplicity = 6

 SCF Done:  E(UPBE1PBE) =  -3033.10448053     A.U. after   20 cycles
 Normal termination of Gaussian 16 at Tue Feb 11 13:56:29 2020.

 ---------------------------------------------------------------------
 #t pop=none jul-cc-pvdz guess=read upbe1pbe empiricaldispersion=gd3bj
 ---------------------------------------------------------------------
 -----------------------------
 theory_abbreviation pbe0_d3bj
 -----------------------------
 Symbolic Z-matrix:
 Charge =  0 Multiplicity = 6

 SCF Done:  E(UPBE1PBE) =  -3033.14189529     A.U. after    1 cycles
 Normal termination of Gaussian 16 at Tue Feb 11 13:57:44 2020.

 -----------------------------------------
 #t pop=none jul-cc-pvdz guess=read ub3lyp
 -----------------------------------------
 -------------------------
 theory_abbreviation b3lyp
 -------------------------
 Symbolic Z-matrix:
 Charge =  0 Multiplicity = 6

 SCF Done:  E(UB3LYP) =  -3034.31550116     A.U. after   13 cycles
 Normal termination of Gaussian 16 at Tue Feb 11 14:12:02 2020.

 -------------------------------------------------------------------
 #t pop=none jul-cc-pvdz guess=read ub3lyp empiricaldispersion=gd3bj
 -------------------------------------------------------------------
 ------------------------------
 theory_abbreviation b3lyp_d3bj
 ------------------------------
 Symbolic Z-matrix:
 Charge =  0 Multiplicity = 6

 SCF Done:  E(UB3LYP) =  -3034.38528063     A.U. after    1 cycles
 Normal termination of Gaussian 16 at Tue Feb 11 14:13:16 2020.

 ----------------------------------------
 #t pop=none jul-cc-pvdz guess=read ub97d
 ----------------------------------------
 ------------------------
 theory_abbreviation b97d
 ------------------------
 Symbolic Z-matrix:
 Charge =  0 Multiplicity = 6

 SCF Done:  E(UB97D) =  -3034.56606920     A.U. after   15 cycles

 ----------------------------------------------------------------
 #t pop=none jul-cc-pvdz guess=read ub97d empiricaldispersion=gd3
 ----------------------------------------------------------------
 -------------------------
 theory_abbreviation b97d3
 -------------------------
 Symbolic Z-matrix:
 Charge =  0 Multiplicity = 6

 SCF Done:  E(UB97D) =  -3034.56669257     A.U. after    3 cycles
 SCF Done:  E(UBHandHLYP) =  -3033.96127058     A.U. after   15 cycles
 SCF Done:  E(UBHandH) =  -3026.31198243     A.U. after   13 cycles
 SCF Done:  E(ULC-wPBE) =  -3033.45014614     A.U. after   16 cycles
 SCF Done:  E(UB-P86) =  -3034.62172051     A.U. after   16 cycles
 SCF Done:  E(UmPW1LYP) =  -3034.03421924     A.U. after   12 cycles
 SCF Done:  E(UmPW1PBE) =  -3033.87869818     A.U. after   13 cycles
 SCF Done:  E(UmPW3PBE) =  -3033.65047589     A.U. after   12 cycles
 SCF Done:  E(UM11) =  -3033.80193997     A.U. after   16 cycles
 SCF Done:  E(UN12SX) =  -3033.24449158     A.U. after   15 cycles
 SCF Done:  E(UMN12SX) =  -3033.64168119     A.U. after   16 cycles
 SCF Done:  E(UB1B95) =  -3034.37073981     A.U. after   14 cycles
 Normal termination of Gaussian 16 at Tue Feb 11 22:32:32 2020.
 SCF Done:  E(UB3PW91) =  -3033.96557622     A.U. after   13 cycles
 Normal termination of Gaussian 16 at Tue Feb 11 22:45:57 2020.
 SCF Done:  E(UM06L) =  -3034.18283917     A.U. after   18 cycles
 Normal termination of Gaussian 16 at Tue Feb 11 23:07:22 2020.
 Gaussian 16:  ES64L-G16RevA.03 25-Dec-2016

                         Standard orientation:
 ---------------------------------------------------------------------
 Center     Atomic      Atomic             Coordinates (Angstroms)
 Number     Number       Type             X           Y           Z
 ---------------------------------------------------------------------
      1          8           0       -0.296928   -0.353166   -0.721752
      2          6           0       -1.372078   -1.222544   -0.468356
      3          6           0       -2.503993   -0.382025    0.288147
      4          6           0       -2.283314    1.035114   -0.107780
      5          6           0       -2.708397    1.507394   -1.442148
      6         26           0        1.344875    0.065657   -0.038854
      7         17           0        1.497687    2.222347   -0.701387
      8          6           0       -1.584140    1.988634    0.733703
      9         17           0        2.903620   -1.278817   -0.791715
     10         17           0        1.151376    0.038647    2.187055
     11          1           0       -3.460442   -0.693742   -0.150182
     12          1           0       -2.066154    2.972700    0.719602
     13          1           0       -1.357400    1.651501    1.741425
     14          1           0       -0.605453    2.168417    0.211770
     15          1           0       -2.933840    2.576758   -1.453318
     16          1           0       -1.816880    1.362982   -2.076999
     17          1           0       -3.526146    0.925930   -1.869501
     18          6           0       -2.562933   -0.586438    1.808824
     19          1           0       -3.292979    0.092532    2.262431
     20          1           0       -2.884255   -1.607463    2.025744
     21          1           0       -1.592978   -0.427948    2.284110
     22          6           0       -0.917037   -2.426447    0.362052
     23          1           0       -1.734824   -3.130899    0.546450
     24          1           0       -0.140685   -2.942305   -0.212555
     25          1           0       -0.479917   -2.122314    1.314008
     26          6           0       -1.905907   -1.721441   -1.819522
     27          1           0       -1.100633   -2.256706   -2.329867
     28          1           0       -2.753752   -2.402649   -1.686085
     29          1           0       -2.213816   -0.899047   -2.469530
 ---------------------------------------------------------------------

 SCF Done:  E(UB97D3) =  -3034.60167837     A.U. after   16 cycles
 Normal termination of Gaussian 16 at Tue Feb 11 23:20:24 2020.
