 Gaussian 16, Revision A.03,

 --------------------------------
 #t pop=none jul-cc-pvdz upbe1pbe
 --------------------------------
 ------------------------
 theory_abbreviation pbe0
 ------------------------
 Symbolic Z-matrix:
 Charge =  0 Multiplicity = 6

 SCF Done:  E(UPBE1PBE) =  -3033.10261407     A.U. after   21 cycles
 Normal termination of Gaussian 16 at Tue Feb 11 13:59:42 2020.

 ---------------------------------------------------------------------
 #t pop=none jul-cc-pvdz guess=read upbe1pbe empiricaldispersion=gd3bj
 ---------------------------------------------------------------------
 -----------------------------
 theory_abbreviation pbe0_d3bj
 -----------------------------
 Symbolic Z-matrix:
 Charge =  0 Multiplicity = 6

 SCF Done:  E(UPBE1PBE) =  -3033.13958789     A.U. after    1 cycles
 Normal termination of Gaussian 16 at Tue Feb 11 14:00:56 2020.

 -----------------------------------------
 #t pop=none jul-cc-pvdz guess=read ub3lyp
 -----------------------------------------
 -------------------------
 theory_abbreviation b3lyp
 -------------------------
 Symbolic Z-matrix:
 Charge =  0 Multiplicity = 6

 SCF Done:  E(UB3LYP) =  -3034.31603347     A.U. after   13 cycles
 Normal termination of Gaussian 16 at Tue Feb 11 14:15:24 2020.

 -------------------------------------------------------------------
 #t pop=none jul-cc-pvdz guess=read ub3lyp empiricaldispersion=gd3bj
 -------------------------------------------------------------------
 ------------------------------
 theory_abbreviation b3lyp_d3bj
 ------------------------------
 Symbolic Z-matrix:
 Charge =  0 Multiplicity = 6

 SCF Done:  E(UB3LYP) =  -3034.38481918     A.U. after    1 cycles
 Normal termination of Gaussian 16 at Tue Feb 11 14:16:37 2020.

 ----------------------------------------
 #t pop=none jul-cc-pvdz guess=read ub97d
 ----------------------------------------
 ------------------------
 theory_abbreviation b97d
 ------------------------
 Symbolic Z-matrix:
 Charge =  0 Multiplicity = 6

 SCF Done:  E(UB97D) =  -3034.56691594     A.U. after   15 cycles

 ----------------------------------------------------------------
 #t pop=none jul-cc-pvdz guess=read ub97d empiricaldispersion=gd3
 ----------------------------------------------------------------
 -------------------------
 theory_abbreviation b97d3
 -------------------------
 Symbolic Z-matrix:
 Charge =  0 Multiplicity = 6

 SCF Done:  E(UB97D) =  -3034.56784071     A.U. after    3 cycles
 SCF Done:  E(UBHandHLYP) =  -3033.95885110     A.U. after   16 cycles
 SCF Done:  E(UBHandH) =  -3026.30450356     A.U. after   13 cycles
 SCF Done:  E(ULC-wPBE) =  -3033.44539485     A.U. after   18 cycles
 SCF Done:  E(UB-P86) =  -3034.62197325     A.U. after   15 cycles
 SCF Done:  E(UmPW1LYP) =  -3034.03439435     A.U. after   14 cycles
 SCF Done:  E(UmPW1PBE) =  -3033.87711587     A.U. after   14 cycles
 SCF Done:  E(UmPW3PBE) =  -3033.64940821     A.U. after   13 cycles
 SCF Done:  E(UM11) =  -3033.79804323     A.U. after   16 cycles
 SCF Done:  E(UN12SX) =  -3033.24283752     A.U. after   15 cycles
 SCF Done:  E(UMN12SX) =  -3033.63941543     A.U. after   15 cycles
 SCF Done:  E(UB1B95) =  -3034.36898380     A.U. after   14 cycles
 Normal termination of Gaussian 16 at Tue Feb 11 22:48:36 2020.
 SCF Done:  E(UB3PW91) =  -3033.96481149     A.U. after   13 cycles
 Normal termination of Gaussian 16 at Tue Feb 11 23:04:18 2020.
 SCF Done:  E(UM06L) =  -3034.18025498     A.U. after   18 cycles
 Normal termination of Gaussian 16 at Tue Feb 11 23:25:17 2020.
 Gaussian 16:  ES64L-G16RevA.03 25-Dec-2016

                         Standard orientation:
 ---------------------------------------------------------------------
 Center     Atomic      Atomic             Coordinates (Angstroms)
 Number     Number       Type             X           Y           Z
 ---------------------------------------------------------------------
      1          8           0       -0.368211   -0.198107   -0.546788
      2          6           0       -1.368255   -1.183372   -0.413831
      3          6           0       -2.853187   -0.113298   -0.144726
      4          6           0       -2.051005    1.109960   -0.264569
      5          6           0       -1.927757    1.792839   -1.573399
      6         26           0        1.384599    0.046043    0.037275
      7         17           0        1.815455    2.051729   -0.808888
      8          6           0       -1.575053    1.838332    0.933109
      9         17           0        2.559742   -1.649955   -0.715680
     10         17           0        1.311208    0.121660    2.256880
     11          1           0       -3.475372   -0.268755   -1.027650
     12          1           0       -2.426819    2.444221    1.285407
     13          1           0       -1.288006    1.171728    1.747446
     14          1           0       -0.745584    2.507353    0.696830
     15          1           0       -2.657616    2.619814   -1.565760
     16          1           0       -0.930922    2.226457   -1.693173
     17          1           0       -2.166481    1.136658   -2.411401
     18          6           0       -3.604687   -0.379787    1.146747
     19          1           0       -4.426058    0.335029    1.279614
     20          1           0       -4.043892   -1.381033    1.119202
     21          1           0       -2.963053   -0.322620    2.028733
     22          6           0       -1.156865   -2.087470    0.776535
     23          1           0       -1.982704   -2.793882    0.899954
     24          1           0       -0.238533   -2.661520    0.595663
     25          1           0       -1.008780   -1.523140    1.698608
     26          6           0       -1.563283   -1.922094   -1.719210
     27          1           0       -0.635890   -2.465309   -1.939559
     28          1           0       -2.388680   -2.638615   -1.657959
     29          1           0       -1.743843   -1.227696   -2.544054
 ---------------------------------------------------------------------

 SCF Done:  E(UB97D3) =  -3034.60281452     A.U. after   15 cycles
 Normal termination of Gaussian 16 at Tue Feb 11 23:38:06 2020.
