 Gaussian 16, Revision A.03,

 --------------------------------
 #t pop=none jul-cc-pvdz upbe1pbe
 --------------------------------
 ------------------------
 theory_abbreviation pbe0
 ------------------------
 Symbolic Z-matrix:
 Charge =  0 Multiplicity = 6

 SCF Done:  E(UPBE1PBE) =  -3033.11014761     A.U. after   21 cycles
 Normal termination of Gaussian 16 at Tue Feb 11 14:45:10 2020.

 ---------------------------------------------------------------------
 #t pop=none jul-cc-pvdz guess=read upbe1pbe empiricaldispersion=gd3bj
 ---------------------------------------------------------------------
 -----------------------------
 theory_abbreviation pbe0_d3bj
 -----------------------------
 Symbolic Z-matrix:
 Charge =  0 Multiplicity = 6

 SCF Done:  E(UPBE1PBE) =  -3033.14627252     A.U. after    1 cycles
 Normal termination of Gaussian 16 at Tue Feb 11 14:46:20 2020.

 -----------------------------------------
 #t pop=none jul-cc-pvdz guess=read ub3lyp
 -----------------------------------------
 -------------------------
 theory_abbreviation b3lyp
 -------------------------
 Symbolic Z-matrix:
 Charge =  0 Multiplicity = 6

 SCF Done:  E(UB3LYP) =  -3034.32180664     A.U. after   15 cycles
 Normal termination of Gaussian 16 at Tue Feb 11 15:01:54 2020.

 -------------------------------------------------------------------
 #t pop=none jul-cc-pvdz guess=read ub3lyp empiricaldispersion=gd3bj
 -------------------------------------------------------------------
 ------------------------------
 theory_abbreviation b3lyp_d3bj
 ------------------------------
 Symbolic Z-matrix:
 Charge =  0 Multiplicity = 6

 SCF Done:  E(UB3LYP) =  -3034.38924830     A.U. after    1 cycles
 Normal termination of Gaussian 16 at Tue Feb 11 15:03:04 2020.

 ----------------------------------------
 #t pop=none jul-cc-pvdz guess=read ub97d
 ----------------------------------------
 ------------------------
 theory_abbreviation b97d
 ------------------------
 Symbolic Z-matrix:
 Charge =  0 Multiplicity = 6

 SCF Done:  E(UB97D) =  -3034.57386622     A.U. after   16 cycles

 ----------------------------------------------------------------
 #t pop=none jul-cc-pvdz guess=read ub97d empiricaldispersion=gd3
 ----------------------------------------------------------------
 -------------------------
 theory_abbreviation b97d3
 -------------------------
 Symbolic Z-matrix:
 Charge =  0 Multiplicity = 6

 SCF Done:  E(UB97D) =  -3034.57400886     A.U. after    1 cycles
 SCF Done:  E(UBHandHLYP) =  -3033.96352775     A.U. after   17 cycles
 SCF Done:  E(UBHandH) =  -3026.31304191     A.U. after   13 cycles
 SCF Done:  E(ULC-wPBE) =  -3033.45067951     A.U. after   17 cycles
 SCF Done:  E(UB-P86) =  -3034.62849027     A.U. after   17 cycles
 SCF Done:  E(UmPW1LYP) =  -3034.03951958     A.U. after   15 cycles
 SCF Done:  E(UmPW1PBE) =  -3033.88461717     A.U. after   15 cycles
 SCF Done:  E(UmPW3PBE) =  -3033.65699466     A.U. after   14 cycles
 SCF Done:  E(UM11) =  -3033.80354743     A.U. after   18 cycles
 SCF Done:  E(UN12SX) =  -3033.24959050     A.U. after   16 cycles
 SCF Done:  E(UMN12SX) =  -3033.64448141     A.U. after   16 cycles
 SCF Done:  E(UB1B95) =  -3034.37593734     A.U. after   16 cycles
 Normal termination of Gaussian 16 at Tue Feb 11 23:19:14 2020.
 SCF Done:  E(UB3PW91) =  -3033.97233727     A.U. after   15 cycles
 Normal termination of Gaussian 16 at Tue Feb 11 23:34:17 2020.
 SCF Done:  E(UM06L) =  -3034.18800353     A.U. after   17 cycles
 Normal termination of Gaussian 16 at Tue Feb 11 23:52:45 2020.
 Gaussian 16:  ES64L-G16RevA.03 25-Dec-2016

                         Standard orientation:
 ---------------------------------------------------------------------
 Center     Atomic      Atomic             Coordinates (Angstroms)
 Number     Number       Type             X           Y           Z
 ---------------------------------------------------------------------
      1          8           0       -0.309073   -0.090263   -0.410232
      2          6           0       -1.267674   -1.038927   -0.219677
      3          6           0       -2.478384   -0.414664    0.711442
      4          6           0       -3.024436    0.692966   -0.041707
      5          6           0       -4.234258    0.534036   -0.881595
      6         26           0        1.510400    0.171620   -0.088477
      7         17           0        1.803383    2.231430   -0.823648
      8          6           0       -2.254558    1.919465   -0.113582
      9         17           0        2.557989   -1.417666   -1.195661
     10         17           0        1.834379    0.027822    2.100373
     11          1           0       -3.210402   -1.224898    0.776987
     12          1           0       -2.681767    2.704833   -0.737082
     13          1           0       -1.934650    2.299792    0.861353
     14          1           0       -1.278768    1.533451   -0.540342
     15          1           0       -5.048082    1.083452   -0.380035
     16          1           0       -4.109032    1.010312   -1.860938
     17          1           0       -4.545829   -0.505310   -0.995310
     18          6           0       -1.927065   -0.039415    2.099837
     19          1           0       -2.624555    0.618402    2.627622
     20          1           0       -1.799980   -0.939443    2.702982
     21          1           0       -0.955567    0.452123    2.026486
     22          6           0       -0.733366   -2.249707    0.571104
     23          1           0       -1.531283   -2.960007    0.809473
     24          1           0        0.006014   -2.747445   -0.063884
     25          1           0       -0.228585   -1.940313    1.486774
     26          6           0       -1.814108   -1.499907   -1.580148
     27          1           0       -1.007168   -2.014788   -2.108591
     28          1           0       -2.658211   -2.190836   -1.476694
     29          1           0       -2.114640   -0.649396   -2.198685
 ---------------------------------------------------------------------

 SCF Done:  E(UB97D3) =  -3034.60885595     A.U. after   16 cycles
 Normal termination of Gaussian 16 at Wed Feb 12 00:06:34 2020.
