 Gaussian 16, Revision A.03,

 --------------------------------
 #t pop=none jul-cc-pvdz upbe1pbe
 --------------------------------
 ------------------------
 theory_abbreviation pbe0
 ------------------------
 Symbolic Z-matrix:
 Charge =  0 Multiplicity = 6

 SCF Done:  E(UPBE1PBE) =  -3033.10638186     A.U. after   21 cycles
 Normal termination of Gaussian 16 at Tue Feb 11 13:59:49 2020.

 ---------------------------------------------------------------------
 #t pop=none jul-cc-pvdz guess=read upbe1pbe empiricaldispersion=gd3bj
 ---------------------------------------------------------------------
 -----------------------------
 theory_abbreviation pbe0_d3bj
 -----------------------------
 Symbolic Z-matrix:
 Charge =  0 Multiplicity = 6

 SCF Done:  E(UPBE1PBE) =  -3033.14346127     A.U. after    1 cycles
 Normal termination of Gaussian 16 at Tue Feb 11 14:01:03 2020.

 -----------------------------------------
 #t pop=none jul-cc-pvdz guess=read ub3lyp
 -----------------------------------------
 -------------------------
 theory_abbreviation b3lyp
 -------------------------
 Symbolic Z-matrix:
 Charge =  0 Multiplicity = 6

 SCF Done:  E(UB3LYP) =  -3034.31877421     A.U. after   14 cycles
 Normal termination of Gaussian 16 at Tue Feb 11 14:16:34 2020.

 -------------------------------------------------------------------
 #t pop=none jul-cc-pvdz guess=read ub3lyp empiricaldispersion=gd3bj
 -------------------------------------------------------------------
 ------------------------------
 theory_abbreviation b3lyp_d3bj
 ------------------------------
 Symbolic Z-matrix:
 Charge =  0 Multiplicity = 6

 SCF Done:  E(UB3LYP) =  -3034.38790792     A.U. after    1 cycles
 Normal termination of Gaussian 16 at Tue Feb 11 14:17:48 2020.

 ----------------------------------------
 #t pop=none jul-cc-pvdz guess=read ub97d
 ----------------------------------------
 ------------------------
 theory_abbreviation b97d
 ------------------------
 Symbolic Z-matrix:
 Charge =  0 Multiplicity = 6

 SCF Done:  E(UB97D) =  -3034.57112458     A.U. after   17 cycles

 ----------------------------------------------------------------
 #t pop=none jul-cc-pvdz guess=read ub97d empiricaldispersion=gd3
 ----------------------------------------------------------------
 -------------------------
 theory_abbreviation b97d3
 -------------------------
 Symbolic Z-matrix:
 Charge =  0 Multiplicity = 6

 SCF Done:  E(UB97D) =  -3034.57114787     A.U. after    1 cycles
 SCF Done:  E(UBHandHLYP) =  -3033.96221556     A.U. after   17 cycles
 SCF Done:  E(UBHandH) =  -3026.31037161     A.U. after   16 cycles
 SCF Done:  E(ULC-wPBE) =  -3033.44781018     A.U. after   18 cycles
 SCF Done:  E(UB-P86) =  -3034.62408284     A.U. after   17 cycles
 SCF Done:  E(UmPW1LYP) =  -3034.03719043     A.U. after   15 cycles
 SCF Done:  E(UmPW1PBE) =  -3033.88068849     A.U. after   16 cycles
 SCF Done:  E(UmPW3PBE) =  -3033.65284909     A.U. after   15 cycles
 SCF Done:  E(UM11) =  -3033.80465818     A.U. after   19 cycles
 SCF Done:  E(UN12SX) =  -3033.24655038     A.U. after   17 cycles
 SCF Done:  E(UMN12SX) =  -3033.64460641     A.U. after   16 cycles
 SCF Done:  E(UB1B95) =  -3034.37416315     A.U. after   16 cycles
 Normal termination of Gaussian 16 at Tue Feb 11 23:30:59 2020.
 SCF Done:  E(UB3PW91) =  -3033.96813681     A.U. after   16 cycles
 Normal termination of Gaussian 16 at Tue Feb 11 23:48:06 2020.
 SCF Done:  E(UM06L) =  -3034.18647759     A.U. after   18 cycles
 Normal termination of Gaussian 16 at Wed Feb 12 00:10:00 2020.
 Gaussian 16:  ES64L-G16RevA.03 25-Dec-2016

                         Standard orientation:
 ---------------------------------------------------------------------
 Center     Atomic      Atomic             Coordinates (Angstroms)
 Number     Number       Type             X           Y           Z
 ---------------------------------------------------------------------
      1          8           0       -0.318740   -0.196726   -0.707663
      2          6           0       -1.280210   -1.112417   -0.538898
      3          6           0       -2.695392   -0.328883    0.358785
      4          6           0       -2.441431    0.976982   -0.102196
      5          6           0       -2.917132    1.454576   -1.423359
      6         26           0        1.390565    0.113114   -0.027527
      7         17           0        1.866710    2.136767   -0.768034
      8          6           0       -1.617334    1.932372    0.668552
      9         17           0        2.688405   -1.513328   -0.735022
     10         17           0        1.178004    0.095207    2.197899
     11          1           0       -3.535581   -0.812172   -0.139555
     12          1           0       -2.320480    2.607665    1.185467
     13          1           0       -0.993739    1.460765    1.426706
     14          1           0       -0.997323    2.548645    0.010201
     15          1           0       -3.284385    2.484079   -1.334597
     16          1           0       -2.041352    1.502885   -2.087773
     17          1           0       -3.686563    0.824080   -1.869955
     18          6           0       -2.644378   -0.601279    1.857732
     19          1           0       -3.411170   -0.007564    2.368289
     20          1           0       -2.854942   -1.653174    2.059122
     21          1           0       -1.675632   -0.359989    2.299465
     22          6           0       -0.888627   -2.295247    0.338283
     23          1           0       -1.713173   -2.998048    0.482726
     24          1           0       -0.082073   -2.808646   -0.199854
     25          1           0       -0.489559   -1.980353    1.302089
     26          6           0       -1.860167   -1.574104   -1.873864
     27          1           0       -1.057140   -2.111977   -2.389680
     28          1           0       -2.708099   -2.252718   -1.744930
     29          1           0       -2.148539   -0.739612   -2.513223
 ---------------------------------------------------------------------

 SCF Done:  E(UB97D3) =  -3034.60562077     A.U. after   16 cycles
 Normal termination of Gaussian 16 at Wed Feb 12 00:23:21 2020.
