 Gaussian 16, Revision A.03,

 --------------------------------
 #t pop=none jul-cc-pvdz upbe1pbe
 --------------------------------
 ------------------------
 theory_abbreviation pbe0
 ------------------------
 Symbolic Z-matrix:
 Charge =  0 Multiplicity = 6

 SCF Done:  E(UPBE1PBE) =  -3033.12531061     A.U. after   19 cycles
 Normal termination of Gaussian 16 at Tue Feb 11 13:54:34 2020.

 ---------------------------------------------------------------------
 #t pop=none jul-cc-pvdz guess=read upbe1pbe empiricaldispersion=gd3bj
 ---------------------------------------------------------------------
 -----------------------------
 theory_abbreviation pbe0_d3bj
 -----------------------------
 Symbolic Z-matrix:
 Charge =  0 Multiplicity = 6

 SCF Done:  E(UPBE1PBE) =  -3033.16229326     A.U. after    1 cycles
 Normal termination of Gaussian 16 at Tue Feb 11 13:55:57 2020.

 -----------------------------------------
 #t pop=none jul-cc-pvdz guess=read ub3lyp
 -----------------------------------------
 -------------------------
 theory_abbreviation b3lyp
 -------------------------
 Symbolic Z-matrix:
 Charge =  0 Multiplicity = 6

 SCF Done:  E(UB3LYP) =  -3034.33752040     A.U. after   13 cycles
 Normal termination of Gaussian 16 at Tue Feb 11 14:09:41 2020.

 -------------------------------------------------------------------
 #t pop=none jul-cc-pvdz guess=read ub3lyp empiricaldispersion=gd3bj
 -------------------------------------------------------------------
 ------------------------------
 theory_abbreviation b3lyp_d3bj
 ------------------------------
 Symbolic Z-matrix:
 Charge =  0 Multiplicity = 6

 SCF Done:  E(UB3LYP) =  -3034.40636169     A.U. after    1 cycles
 Normal termination of Gaussian 16 at Tue Feb 11 14:10:52 2020.

 ----------------------------------------
 #t pop=none jul-cc-pvdz guess=read ub97d
 ----------------------------------------
 ------------------------
 theory_abbreviation b97d
 ------------------------
 Symbolic Z-matrix:
 Charge =  0 Multiplicity = 6

 SCF Done:  E(UB97D) =  -3034.58719025     A.U. after   16 cycles

 ----------------------------------------------------------------
 #t pop=none jul-cc-pvdz guess=read ub97d empiricaldispersion=gd3
 ----------------------------------------------------------------
 -------------------------
 theory_abbreviation b97d3
 -------------------------
 Symbolic Z-matrix:
 Charge =  0 Multiplicity = 6

 SCF Done:  E(UB97D) =  -3034.58805243     A.U. after    1 cycles
 SCF Done:  E(UBHandHLYP) =  -3033.98061371     A.U. after   16 cycles
 SCF Done:  E(UBHandH) =  -3026.32704510     A.U. after   14 cycles
 SCF Done:  E(ULC-wPBE) =  -3033.47180185     A.U. after   17 cycles
 SCF Done:  E(UB-P86) =  -3034.64387129     A.U. after   16 cycles
 SCF Done:  E(UmPW1LYP) =  -3034.05581601     A.U. after   14 cycles
 SCF Done:  E(UmPW1PBE) =  -3033.89975686     A.U. after   14 cycles
 SCF Done:  E(UmPW3PBE) =  -3033.67181504     A.U. after   14 cycles
 SCF Done:  E(UM11) =  -3033.82019766     A.U. after   16 cycles
 SCF Done:  E(UN12SX) =  -3033.26566058     A.U. after   16 cycles
 SCF Done:  E(UMN12SX) =  -3033.66022846     A.U. after   16 cycles
 SCF Done:  E(UB1B95) =  -3034.39129232     A.U. after   14 cycles
 Normal termination of Gaussian 16 at Tue Feb 11 22:24:18 2020.
 SCF Done:  E(UB3PW91) =  -3033.98716963     A.U. after   14 cycles
 Normal termination of Gaussian 16 at Tue Feb 11 22:38:56 2020.
 SCF Done:  E(UM06L) =  -3034.20139741     A.U. after   18 cycles
 Normal termination of Gaussian 16 at Tue Feb 11 22:59:48 2020.
 Gaussian 16:  ES64L-G16RevA.03 25-Dec-2016

                         Standard orientation:
 ---------------------------------------------------------------------
 Center     Atomic      Atomic             Coordinates (Angstroms)
 Number     Number       Type             X           Y           Z
 ---------------------------------------------------------------------
      1          8           0       -0.423567   -0.169886   -0.522753
      2          6           0       -1.467273   -1.176696   -0.331273
      3          6           0       -2.741550   -0.131451   -0.252637
      4          6           0       -1.906746    1.146108   -0.261349
      5          6           0       -1.824272    1.943003   -1.512429
      6         26           0        1.375992    0.031360    0.028898
      7         17           0        1.867870    1.993374   -0.857559
      8          6           0       -1.561293    1.831786    1.010956
      9         17           0        2.424810   -1.728452   -0.746209
     10         17           0        1.390259    0.145613    2.235402
     11          1           0       -3.287673   -0.198321   -1.198433
     12          1           0       -2.432671    2.443033    1.294141
     13          1           0       -1.355717    1.137701    1.825740
     14          1           0       -0.707183    2.499961    0.879159
     15          1           0       -2.647421    2.675289   -1.489595
     16          1           0       -0.880396    2.492260   -1.563801
     17          1           0       -1.943460    1.320219   -2.400390
     18          6           0       -3.714988   -0.301250    0.907772
     19          1           0       -4.489016    0.474440    0.887903
     20          1           0       -4.218911   -1.269270    0.826764
     21          1           0       -3.220310   -0.263106    1.881065
     22          6           0       -1.228815   -1.973860    0.938275
     23          1           0       -2.046792   -2.681157    1.109638
     24          1           0       -0.301538   -2.547420    0.832791
     25          1           0       -1.121842   -1.332138    1.814910
     26          6           0       -1.517806   -2.060361   -1.564231
     27          1           0       -0.570996   -2.601319   -1.664064
     28          1           0       -2.332479   -2.789389   -1.486549
     29          1           0       -1.664359   -1.459819   -2.466895
 ---------------------------------------------------------------------

 SCF Done:  E(UB97D3) =  -3034.62348975     A.U. after   16 cycles
 Normal termination of Gaussian 16 at Tue Feb 11 23:12:44 2020.
