 Gaussian 16, Revision A.03,

 --------------------------------
 #t pop=none jul-cc-pvdz upbe1pbe
 --------------------------------
 ------------------------
 theory_abbreviation pbe0
 ------------------------
 Symbolic Z-matrix:
 Charge =  0 Multiplicity = 6

 SCF Done:  E(UPBE1PBE) =  -3033.10803694     A.U. after   21 cycles
 Normal termination of Gaussian 16 at Tue Feb 11 13:59:05 2020.

 ---------------------------------------------------------------------
 #t pop=none jul-cc-pvdz guess=read upbe1pbe empiricaldispersion=gd3bj
 ---------------------------------------------------------------------
 -----------------------------
 theory_abbreviation pbe0_d3bj
 -----------------------------
 Symbolic Z-matrix:
 Charge =  0 Multiplicity = 6

 SCF Done:  E(UPBE1PBE) =  -3033.14499050     A.U. after    1 cycles
 Normal termination of Gaussian 16 at Tue Feb 11 14:00:19 2020.

 -----------------------------------------
 #t pop=none jul-cc-pvdz guess=read ub3lyp
 -----------------------------------------
 -------------------------
 theory_abbreviation b3lyp
 -------------------------
 Symbolic Z-matrix:
 Charge =  0 Multiplicity = 6

 SCF Done:  E(UB3LYP) =  -3034.32121512     A.U. after   13 cycles
 Normal termination of Gaussian 16 at Tue Feb 11 14:14:49 2020.

 -------------------------------------------------------------------
 #t pop=none jul-cc-pvdz guess=read ub3lyp empiricaldispersion=gd3bj
 -------------------------------------------------------------------
 ------------------------------
 theory_abbreviation b3lyp_d3bj
 ------------------------------
 Symbolic Z-matrix:
 Charge =  0 Multiplicity = 6

 SCF Done:  E(UB3LYP) =  -3034.38998236     A.U. after    1 cycles
 Normal termination of Gaussian 16 at Tue Feb 11 14:16:03 2020.

 ----------------------------------------
 #t pop=none jul-cc-pvdz guess=read ub97d
 ----------------------------------------
 ------------------------
 theory_abbreviation b97d
 ------------------------
 Symbolic Z-matrix:
 Charge =  0 Multiplicity = 6

 SCF Done:  E(UB97D) =  -3034.57130718     A.U. after   15 cycles

 ----------------------------------------------------------------
 #t pop=none jul-cc-pvdz guess=read ub97d empiricaldispersion=gd3
 ----------------------------------------------------------------
 -------------------------
 theory_abbreviation b97d3
 -------------------------
 Symbolic Z-matrix:
 Charge =  0 Multiplicity = 6

 SCF Done:  E(UB97D) =  -3034.57233221     A.U. after    3 cycles
 SCF Done:  E(UBHandHLYP) =  -3033.96499762     A.U. after   15 cycles
 SCF Done:  E(UBHandH) =  -3026.31076955     A.U. after   14 cycles
 SCF Done:  E(ULC-wPBE) =  -3033.45230999     A.U. after   17 cycles
 SCF Done:  E(UB-P86) =  -3034.62676361     A.U. after   16 cycles
 SCF Done:  E(UmPW1LYP) =  -3034.03971659     A.U. after   14 cycles
 SCF Done:  E(UmPW1PBE) =  -3033.88250940     A.U. after   14 cycles
 SCF Done:  E(UmPW3PBE) =  -3033.65465441     A.U. after   13 cycles
 SCF Done:  E(UM11) =  -3033.80371683     A.U. after   16 cycles
 SCF Done:  E(UN12SX) =  -3033.24817043     A.U. after   15 cycles
 SCF Done:  E(UMN12SX) =  -3033.64464628     A.U. after   16 cycles
 SCF Done:  E(UB1B95) =  -3034.37391582     A.U. after   14 cycles
 Normal termination of Gaussian 16 at Tue Feb 11 22:44:30 2020.
 SCF Done:  E(UB3PW91) =  -3033.97005347     A.U. after   14 cycles
 Normal termination of Gaussian 16 at Tue Feb 11 23:00:35 2020.
 SCF Done:  E(UM06L) =  -3034.18535508     A.U. after   18 cycles
 Normal termination of Gaussian 16 at Tue Feb 11 23:21:06 2020.
 Gaussian 16:  ES64L-G16RevA.03 25-Dec-2016

                         Standard orientation:
 ---------------------------------------------------------------------
 Center     Atomic      Atomic             Coordinates (Angstroms)
 Number     Number       Type             X           Y           Z
 ---------------------------------------------------------------------
      1          8           0       -0.352874   -0.252333   -0.589955
      2          6           0       -1.407161   -1.195559   -0.414519
      3          6           0       -2.781219   -0.144026   -0.152335
      4          6           0       -2.028328    1.133814   -0.256106
      5          6           0       -1.924344    1.831934   -1.554387
      6         26           0        1.375731    0.036617    0.027477
      7         17           0        1.763648    2.064915   -0.799023
      8          6           0       -1.569179    1.850122    0.950590
      9         17           0        2.636458   -1.605903   -0.698414
     10         17           0        1.273672    0.120303    2.249232
     11          1           0       -3.424951   -0.264818   -1.027281
     12          1           0       -2.445300    2.399926    1.335266
     13          1           0       -1.237228    1.174352    1.740912
     14          1           0       -0.778944    2.567633    0.721861
     15          1           0       -2.638477    2.672362   -1.524067
     16          1           0       -0.922774    2.257692   -1.676073
     17          1           0       -2.177900    1.190667   -2.399093
     18          6           0       -3.561315   -0.389982    1.132264
     19          1           0       -4.372792    0.338484    1.245844
     20          1           0       -4.015631   -1.384172    1.100712
     21          1           0       -2.932512   -0.339951    2.023786
     22          6           0       -1.161402   -2.106404    0.771091
     23          1           0       -1.988718   -2.806849    0.919864
     24          1           0       -0.254443   -2.687697    0.564380
     25          1           0       -0.985118   -1.545515    1.690478
     26          6           0       -1.613825   -1.961271   -1.708491
     27          1           0       -0.703224   -2.532352   -1.922280
     28          1           0       -2.457863   -2.655430   -1.632783
     29          1           0       -1.783740   -1.277835   -2.545439
 ---------------------------------------------------------------------

 SCF Done:  E(UB97D3) =  -3034.60740108     A.U. after   15 cycles
 Normal termination of Gaussian 16 at Tue Feb 11 23:33:41 2020.
