 Gaussian 16, Revision A.03,

 --------------------------------
 #t pop=none jul-cc-pvdz upbe1pbe
 --------------------------------
 ------------------------
 theory_abbreviation pbe0
 ------------------------
 Symbolic Z-matrix:
 Charge =  0 Multiplicity = 6

 SCF Done:  E(UPBE1PBE) =  -3033.11279271     A.U. after   21 cycles
 Normal termination of Gaussian 16 at Tue Feb 11 20:06:39 2020.

 ---------------------------------------------------------------------
 #t pop=none jul-cc-pvdz guess=read upbe1pbe empiricaldispersion=gd3bj
 ---------------------------------------------------------------------
 -----------------------------
 theory_abbreviation pbe0_d3bj
 -----------------------------
 Symbolic Z-matrix:
 Charge =  0 Multiplicity = 6

 SCF Done:  E(UPBE1PBE) =  -3033.15065133     A.U. after    1 cycles
 Normal termination of Gaussian 16 at Tue Feb 11 20:07:51 2020.

 -----------------------------------------
 #t pop=none jul-cc-pvdz guess=read ub3lyp
 -----------------------------------------
 -------------------------
 theory_abbreviation b3lyp
 -------------------------
 Symbolic Z-matrix:
 Charge =  0 Multiplicity = 6

 SCF Done:  E(UB3LYP) =  -3034.32784056     A.U. after   13 cycles
 Normal termination of Gaussian 16 at Tue Feb 11 20:21:28 2020.

 -------------------------------------------------------------------
 #t pop=none jul-cc-pvdz guess=read ub3lyp empiricaldispersion=gd3bj
 -------------------------------------------------------------------
 ------------------------------
 theory_abbreviation b3lyp_d3bj
 ------------------------------
 Symbolic Z-matrix:
 Charge =  0 Multiplicity = 6

 SCF Done:  E(UB3LYP) =  -3034.39835421     A.U. after    1 cycles
 Normal termination of Gaussian 16 at Tue Feb 11 20:22:38 2020.

 ----------------------------------------
 #t pop=none jul-cc-pvdz guess=read ub97d
 ----------------------------------------
 ------------------------
 theory_abbreviation b97d
 ------------------------
 Symbolic Z-matrix:
 Charge =  0 Multiplicity = 6

 SCF Done:  E(UB97D) =  -3034.58078211     A.U. after   15 cycles

 ----------------------------------------------------------------
 #t pop=none jul-cc-pvdz guess=read ub97d empiricaldispersion=gd3
 ----------------------------------------------------------------
 -------------------------
 theory_abbreviation b97d3
 -------------------------
 Symbolic Z-matrix:
 Charge =  0 Multiplicity = 6

 SCF Done:  E(UB97D) =  -3034.58272061     A.U. after    1 cycles
 SCF Done:  E(UBHandHLYP) =  -3033.96966473     A.U. after   18 cycles
 SCF Done:  E(UBHandH) =  -3026.31383200     A.U. after   15 cycles
 SCF Done:  E(ULC-wPBE) =  -3033.45367206     A.U. after   19 cycles
 SCF Done:  E(UB-P86) =  -3034.63347828     A.U. after   16 cycles
 SCF Done:  E(UmPW1LYP) =  -3034.04601441     A.U. after   14 cycles
 SCF Done:  E(UmPW1PBE) =  -3033.88727530     A.U. after   14 cycles
 SCF Done:  E(UmPW3PBE) =  -3033.65996126     A.U. after   13 cycles
 SCF Done:  E(UM11) =  -3033.81069768     A.U. after   17 cycles
 SCF Done:  E(UN12SX) =  -3033.25180687     A.U. after   17 cycles
 SCF Done:  E(UMN12SX) =  -3033.65281199     A.U. after   16 cycles
 SCF Done:  E(UB1B95) =  -3034.38315584     A.U. after   15 cycles
 Normal termination of Gaussian 16 at Wed Feb 12 04:51:22 2020.
 SCF Done:  E(UB3PW91) =  -3033.97560627     A.U. after   15 cycles
 Normal termination of Gaussian 16 at Wed Feb 12 05:06:57 2020.
 SCF Done:  E(UM06L) =  -3034.19696919     A.U. after   17 cycles
 Normal termination of Gaussian 16 at Wed Feb 12 05:25:55 2020.
 Gaussian 16:  ES64L-G16RevA.03 25-Dec-2016

                         Standard orientation:
 ---------------------------------------------------------------------
 Center     Atomic      Atomic             Coordinates (Angstroms)
 Number     Number       Type             X           Y           Z
 ---------------------------------------------------------------------
      1          8           0       -0.324593   -0.128755   -0.619521
      2          6           0       -1.181230   -1.071811   -0.549417
      3          6           0       -3.173286    0.021234    0.050136
      4          6           0       -2.318354    1.045708   -0.209550
      5          6           0       -2.230262    1.664857   -1.571585
      6         26           0        1.463972    0.073262    0.056390
      7         17           0        2.091253    1.990430   -0.786974
      8          6           0       -1.560876    1.766836    0.865202
      9         17           0        2.443226   -1.727422   -0.734456
     10         17           0        1.377700    0.055741    2.255468
     11          1           0       -3.773845   -0.344859   -0.780311
     12          1           0       -2.205407    2.564886    1.260222
     13          1           0       -1.275660    1.129858    1.703420
     14          1           0       -0.661158    2.242599    0.467590
     15          1           0       -2.564645    2.708287   -1.497589
     16          1           0       -1.193871    1.688137   -1.922904
     17          1           0       -2.863400    1.163132   -2.307728
     18          6           0       -3.622030   -0.431147    1.413156
     19          1           0       -4.544757    0.097996    1.687586
     20          1           0       -3.855632   -1.500364    1.431907
     21          1           0       -2.887728   -0.227601    2.195897
     22          6           0       -1.136922   -2.005543    0.623726
     23          1           0       -2.022438   -2.637125    0.693952
     24          1           0       -0.264776   -2.652875    0.445731
     25          1           0       -0.956545   -1.476263    1.559592
     26          6           0       -1.701120   -1.614643   -1.851630
     27          1           0       -0.897804   -2.260534   -2.235650
     28          1           0       -2.601245   -2.218779   -1.727239
     29          1           0       -1.860182   -0.822947   -2.583304
 ---------------------------------------------------------------------

 SCF Done:  E(UB97D3) =  -3034.61850508     A.U. after   17 cycles
 Normal termination of Gaussian 16 at Wed Feb 12 05:39:48 2020.
