 Gaussian 16, Revision A.03,

 --------------------------------
 #t pop=none jul-cc-pvdz upbe1pbe
 --------------------------------
 ------------------------
 theory_abbreviation pbe0
 ------------------------
 Symbolic Z-matrix:
 Charge =  0 Multiplicity = 6

 SCF Done:  E(UPBE1PBE) =  -3033.12094886     A.U. after   20 cycles
 Normal termination of Gaussian 16 at Tue Feb 11 13:54:51 2020.

 ---------------------------------------------------------------------
 #t pop=none jul-cc-pvdz guess=read upbe1pbe empiricaldispersion=gd3bj
 ---------------------------------------------------------------------
 -----------------------------
 theory_abbreviation pbe0_d3bj
 -----------------------------
 Symbolic Z-matrix:
 Charge =  0 Multiplicity = 6

 SCF Done:  E(UPBE1PBE) =  -3033.15797322     A.U. after    1 cycles
 Normal termination of Gaussian 16 at Tue Feb 11 13:56:00 2020.

 -----------------------------------------
 #t pop=none jul-cc-pvdz guess=read ub3lyp
 -----------------------------------------
 -------------------------
 theory_abbreviation b3lyp
 -------------------------
 Symbolic Z-matrix:
 Charge =  0 Multiplicity = 6

 SCF Done:  E(UB3LYP) =  -3034.33330859     A.U. after   13 cycles
 Normal termination of Gaussian 16 at Tue Feb 11 14:09:25 2020.

 -------------------------------------------------------------------
 #t pop=none jul-cc-pvdz guess=read ub3lyp empiricaldispersion=gd3bj
 -------------------------------------------------------------------
 ------------------------------
 theory_abbreviation b3lyp_d3bj
 ------------------------------
 Symbolic Z-matrix:
 Charge =  0 Multiplicity = 6

 SCF Done:  E(UB3LYP) =  -3034.40224938     A.U. after    1 cycles
 Normal termination of Gaussian 16 at Tue Feb 11 14:10:33 2020.

 ----------------------------------------
 #t pop=none jul-cc-pvdz guess=read ub97d
 ----------------------------------------
 ------------------------
 theory_abbreviation b97d
 ------------------------
 Symbolic Z-matrix:
 Charge =  0 Multiplicity = 6

 SCF Done:  E(UB97D) =  -3034.58308427     A.U. after   16 cycles

 ----------------------------------------------------------------
 #t pop=none jul-cc-pvdz guess=read ub97d empiricaldispersion=gd3
 ----------------------------------------------------------------
 -------------------------
 theory_abbreviation b97d3
 -------------------------
 Symbolic Z-matrix:
 Charge =  0 Multiplicity = 6

 SCF Done:  E(UB97D) =  -3034.58392541     A.U. after    1 cycles
 SCF Done:  E(UBHandHLYP) =  -3033.97705251     A.U. after   16 cycles
 SCF Done:  E(UBHandH) =  -3026.32350895     A.U. after   14 cycles
 SCF Done:  E(ULC-wPBE) =  -3033.46710831     A.U. after   17 cycles
 SCF Done:  E(UB-P86) =  -3034.63950083     A.U. after   17 cycles
 SCF Done:  E(UmPW1LYP) =  -3034.05168961     A.U. after   14 cycles
 SCF Done:  E(UmPW1PBE) =  -3033.89540103     A.U. after   14 cycles
 SCF Done:  E(UmPW3PBE) =  -3033.66744516     A.U. after   14 cycles
 SCF Done:  E(UM11) =  -3033.81570191     A.U. after   17 cycles
 SCF Done:  E(UN12SX) =  -3033.26110339     A.U. after   16 cycles
 SCF Done:  E(UMN12SX) =  -3033.65646450     A.U. after   16 cycles
 SCF Done:  E(UB1B95) =  -3034.38703871     A.U. after   15 cycles
 Normal termination of Gaussian 16 at Tue Feb 11 22:19:59 2020.
 SCF Done:  E(UB3PW91) =  -3033.98281327     A.U. after   14 cycles
 Normal termination of Gaussian 16 at Tue Feb 11 22:34:24 2020.
 SCF Done:  E(UM06L) =  -3034.19811102     A.U. after   17 cycles
 Normal termination of Gaussian 16 at Tue Feb 11 22:54:29 2020.
 Gaussian 16:  ES64L-G16RevA.03 25-Dec-2016

                         Standard orientation:
 ---------------------------------------------------------------------
 Center     Atomic      Atomic             Coordinates (Angstroms)
 Number     Number       Type             X           Y           Z
 ---------------------------------------------------------------------
      1          8           0       -0.390099   -0.217200   -0.564578
      2          6           0       -1.471694   -1.166925   -0.329983
      3          6           0       -2.708220   -0.152236   -0.292381
      4          6           0       -1.940276    1.162060   -0.241248
      5          6           0       -1.831323    1.993531   -1.461498
      6         26           0        1.381073    0.024630    0.015755
      7         17           0        1.835096    2.008783   -0.858917
      8          6           0       -1.594394    1.788907    1.055237
      9         17           0        2.510411   -1.700714   -0.725160
     10         17           0        1.370739    0.161542    2.226069
     11          1           0       -3.213320   -0.204774   -1.262222
     12          1           0       -2.475680    2.373247    1.367675
     13          1           0       -1.379243    1.062369    1.838458
     14          1           0       -0.752366    2.477175    0.952183
     15          1           0       -2.623370    2.759046   -1.409453
     16          1           0       -0.867573    2.511291   -1.488910
     17          1           0       -1.971631    1.409464   -2.371796
     18          6           0       -3.746294   -0.350184    0.811810
     19          1           0       -4.534237    0.408727    0.750392
     20          1           0       -4.222940   -1.328184    0.694949
     21          1           0       -3.308521   -0.309163    1.811847
     22          6           0       -1.243127   -1.932139    0.966212
     23          1           0       -2.064640   -2.630080    1.157289
     24          1           0       -0.319240   -2.512935    0.876371
     25          1           0       -1.130220   -1.269914    1.826590
     26          6           0       -1.540203   -2.109104   -1.522796
     27          1           0       -0.610655   -2.683614   -1.586917
     28          1           0       -2.379148   -2.807699   -1.422688
     29          1           0       -1.657309   -1.544604   -2.452764
 ---------------------------------------------------------------------

 SCF Done:  E(UB97D3) =  -3034.61954156     A.U. after   16 cycles
 Normal termination of Gaussian 16 at Tue Feb 11 23:07:19 2020.
