 Gaussian 16, Revision A.03,

 --------------------------------
 #t pop=none jul-cc-pvdz upbe1pbe
 --------------------------------
 ------------------------
 theory_abbreviation pbe0
 ------------------------
 Symbolic Z-matrix:
 Charge =  0 Multiplicity = 6

 SCF Done:  E(UPBE1PBE) =  -3033.12419531     A.U. after   19 cycles
 Normal termination of Gaussian 16 at Tue Feb 11 13:53:45 2020.

 ---------------------------------------------------------------------
 #t pop=none jul-cc-pvdz guess=read upbe1pbe empiricaldispersion=gd3bj
 ---------------------------------------------------------------------
 -----------------------------
 theory_abbreviation pbe0_d3bj
 -----------------------------
 Symbolic Z-matrix:
 Charge =  0 Multiplicity = 6

 SCF Done:  E(UPBE1PBE) =  -3033.16123508     A.U. after    1 cycles
 Normal termination of Gaussian 16 at Tue Feb 11 13:54:54 2020.

 -----------------------------------------
 #t pop=none jul-cc-pvdz guess=read ub3lyp
 -----------------------------------------
 -------------------------
 theory_abbreviation b3lyp
 -------------------------
 Symbolic Z-matrix:
 Charge =  0 Multiplicity = 6

 SCF Done:  E(UB3LYP) =  -3034.33633097     A.U. after   13 cycles
 Normal termination of Gaussian 16 at Tue Feb 11 14:08:19 2020.

 -------------------------------------------------------------------
 #t pop=none jul-cc-pvdz guess=read ub3lyp empiricaldispersion=gd3bj
 -------------------------------------------------------------------
 ------------------------------
 theory_abbreviation b3lyp_d3bj
 ------------------------------
 Symbolic Z-matrix:
 Charge =  0 Multiplicity = 6

 SCF Done:  E(UB3LYP) =  -3034.40529943     A.U. after    1 cycles
 Normal termination of Gaussian 16 at Tue Feb 11 14:09:28 2020.

 ----------------------------------------
 #t pop=none jul-cc-pvdz guess=read ub97d
 ----------------------------------------
 ------------------------
 theory_abbreviation b97d
 ------------------------
 Symbolic Z-matrix:
 Charge =  0 Multiplicity = 6

 SCF Done:  E(UB97D) =  -3034.58601996     A.U. after   16 cycles

 ----------------------------------------------------------------
 #t pop=none jul-cc-pvdz guess=read ub97d empiricaldispersion=gd3
 ----------------------------------------------------------------
 -------------------------
 theory_abbreviation b97d3
 -------------------------
 Symbolic Z-matrix:
 Charge =  0 Multiplicity = 6

 SCF Done:  E(UB97D) =  -3034.58684583     A.U. after    1 cycles
 SCF Done:  E(UBHandHLYP) =  -3033.97993148     A.U. after   16 cycles
 SCF Done:  E(UBHandH) =  -3026.32659418     A.U. after   14 cycles
 SCF Done:  E(ULC-wPBE) =  -3033.47070449     A.U. after   17 cycles
 SCF Done:  E(UB-P86) =  -3034.64260627     A.U. after   17 cycles
 SCF Done:  E(UmPW1LYP) =  -3034.05468298     A.U. after   14 cycles
 SCF Done:  E(UmPW1PBE) =  -3033.89863593     A.U. after   14 cycles
 SCF Done:  E(UmPW3PBE) =  -3033.67065220     A.U. after   14 cycles
 SCF Done:  E(UM11) =  -3033.81893471     A.U. after   17 cycles
 SCF Done:  E(UN12SX) =  -3033.26444419     A.U. after   16 cycles
 SCF Done:  E(UMN12SX) =  -3033.65940924     A.U. after   16 cycles
 SCF Done:  E(UB1B95) =  -3034.39031169     A.U. after   15 cycles
 Normal termination of Gaussian 16 at Tue Feb 11 22:17:08 2020.
 SCF Done:  E(UB3PW91) =  -3033.98600232     A.U. after   14 cycles
 Normal termination of Gaussian 16 at Tue Feb 11 22:31:32 2020.
 SCF Done:  E(UM06L) =  -3034.20092551     A.U. after   17 cycles
 Normal termination of Gaussian 16 at Tue Feb 11 22:50:19 2020.
 Gaussian 16:  ES64L-G16RevA.03 25-Dec-2016

                         Standard orientation:
 ---------------------------------------------------------------------
 Center     Atomic      Atomic             Coordinates (Angstroms)
 Number     Number       Type             X           Y           Z
 ---------------------------------------------------------------------
      1          8           0       -0.406487   -0.192024   -0.546581
      2          6           0       -1.477465   -1.163328   -0.325796
      3          6           0       -2.712246   -0.146709   -0.283328
      4          6           0       -1.920005    1.157704   -0.246520
      5          6           0       -1.825585    1.984901   -1.473702
      6         26           0        1.379675    0.026234    0.020099
      7         17           0        1.856671    1.996704   -0.863547
      8          6           0       -1.580942    1.802102    1.045879
      9         17           0        2.463068   -1.721649   -0.734872
     10         17           0        1.385275    0.157197    2.228019
     11          1           0       -3.226503   -0.199679   -1.248373
     12          1           0       -2.457864    2.399514    1.343491
     13          1           0       -1.376207    1.085107    1.840543
     14          1           0       -0.731250    2.480324    0.938783
     15          1           0       -2.640686    2.726058   -1.433792
     16          1           0       -0.876509    2.527750   -1.503244
     17          1           0       -1.945037    1.388533   -2.379245
     18          6           0       -3.740708   -0.330184    0.830987
     19          1           0       -4.521418    0.436510    0.773848
     20          1           0       -4.228643   -1.303803    0.723701
     21          1           0       -3.293266   -0.288739    1.826743
     22          6           0       -1.243754   -1.935447    0.964469
     23          1           0       -2.063299   -2.637132    1.150583
     24          1           0       -0.318040   -2.512871    0.872024
     25          1           0       -1.135125   -1.277352    1.828614
     26          6           0       -1.529916   -2.092520   -1.528602
     27          1           0       -0.593113   -2.654447   -1.597890
     28          1           0       -2.359848   -2.802793   -1.436389
     29          1           0       -1.654354   -1.520259   -2.452849
 ---------------------------------------------------------------------

 SCF Done:  E(UB97D3) =  -3034.62245506     A.U. after   16 cycles
 Normal termination of Gaussian 16 at Tue Feb 11 23:04:36 2020.
