 Gaussian 16, Revision A.03,

 --------------------------------
 #t pop=none jul-cc-pvdz upbe1pbe
 --------------------------------
 ------------------------
 theory_abbreviation pbe0
 ------------------------
 Symbolic Z-matrix:
 Charge =  0 Multiplicity = 6

 SCF Done:  E(UPBE1PBE) =  -3033.13602104     A.U. after   20 cycles
 Normal termination of Gaussian 16 at Wed Feb 12 14:11:37 2020.

 ---------------------------------------------------------------------
 #t pop=none jul-cc-pvdz guess=read upbe1pbe empiricaldispersion=gd3bj
 ---------------------------------------------------------------------
 -----------------------------
 theory_abbreviation pbe0_d3bj
 -----------------------------
 Symbolic Z-matrix:
 Charge =  0 Multiplicity = 6

 SCF Done:  E(UPBE1PBE) =  -3033.17241243     A.U. after    1 cycles
 Normal termination of Gaussian 16 at Wed Feb 12 14:12:47 2020.

 -----------------------------------------
 #t pop=none jul-cc-pvdz guess=read ub3lyp
 -----------------------------------------
 -------------------------
 theory_abbreviation b3lyp
 -------------------------
 Symbolic Z-matrix:
 Charge =  0 Multiplicity = 6

 SCF Done:  E(UB3LYP) =  -3034.35432186     A.U. after   13 cycles
 Normal termination of Gaussian 16 at Wed Feb 12 14:26:19 2020.

 -------------------------------------------------------------------
 #t pop=none jul-cc-pvdz guess=read ub3lyp empiricaldispersion=gd3bj
 -------------------------------------------------------------------
 ------------------------------
 theory_abbreviation b3lyp_d3bj
 ------------------------------
 Symbolic Z-matrix:
 Charge =  0 Multiplicity = 6

 SCF Done:  E(UB3LYP) =  -3034.42168769     A.U. after    1 cycles
 Normal termination of Gaussian 16 at Wed Feb 12 14:27:29 2020.

 ----------------------------------------
 #t pop=none jul-cc-pvdz guess=read ub97d
 ----------------------------------------
 ------------------------
 theory_abbreviation b97d
 ------------------------
 Symbolic Z-matrix:
 Charge =  0 Multiplicity = 6

 SCF Done:  E(UB97D) =  -3034.60428951     A.U. after   16 cycles

 ----------------------------------------------------------------
 #t pop=none jul-cc-pvdz guess=read ub97d empiricaldispersion=gd3
 ----------------------------------------------------------------
 -------------------------
 theory_abbreviation b97d3
 -------------------------
 Symbolic Z-matrix:
 Charge =  0 Multiplicity = 6

 SCF Done:  E(UB97D) =  -3034.60632942     A.U. after    3 cycles
 SCF Done:  E(UBHandHLYP) =  -3033.99645615     A.U. after   18 cycles
 SCF Done:  E(UBHandH) =  -3026.33254478     A.U. after   14 cycles
 SCF Done:  E(ULC-wPBE) =  -3033.47783324     A.U. after   17 cycles
 SCF Done:  E(UB-P86) =  -3034.65366158     A.U. after   17 cycles
 SCF Done:  E(UmPW1LYP) =  -3034.07270832     A.U. after   13 cycles
 SCF Done:  E(UmPW1PBE) =  -3033.91049209     A.U. after   14 cycles
 SCF Done:  E(UmPW3PBE) =  -3033.68341701     A.U. after   13 cycles
 SCF Done:  E(UM11) =  -3033.83537362     A.U. after   17 cycles
 SCF Done:  E(UN12SX) =  -3033.27493006     A.U. after   17 cycles
 SCF Done:  E(UMN12SX) =  -3033.67764947     A.U. after   16 cycles
 SCF Done:  E(UB1B95) =  -3034.40700495     A.U. after   14 cycles
 Normal termination of Gaussian 16 at Wed Feb 12 22:09:48 2020.
 SCF Done:  E(UB3PW91) =  -3033.99965801     A.U. after   15 cycles
 Normal termination of Gaussian 16 at Wed Feb 12 22:24:58 2020.
 SCF Done:  E(UM06L) =  -3034.22207251     A.U. after   17 cycles
 Normal termination of Gaussian 16 at Wed Feb 12 22:43:37 2020.
 Gaussian 16:  ES64L-G16RevA.03 25-Dec-2016

                         Standard orientation:
 ---------------------------------------------------------------------
 Center     Atomic      Atomic             Coordinates (Angstroms)
 Number     Number       Type             X           Y           Z
 ---------------------------------------------------------------------
      1          8           0        0.236093    0.381368   -0.826183
      2          6           0        0.961502    1.380148   -0.628599
      3          6           0        3.199345   -0.017321    0.449195
      4          6           0        2.566724   -0.966708   -0.266451
      5          6           0        2.866328   -1.176611   -1.726954
      6         26           0       -1.467755   -0.157038    0.036547
      7         17           0       -2.092087   -1.943136   -1.031092
      8          6           0        1.625193   -1.980803    0.317733
      9         17           0       -2.660897    1.637431   -0.354288
     10         17           0       -1.113650   -0.441038    2.180970
     11          1           0        3.928986    0.601285   -0.075339
     12          1           0        2.127655   -2.956826    0.366156
     13          1           0        1.277971   -1.734675    1.321021
     14          1           0        0.750965   -2.122950   -0.327408
     15          1           0        3.273054   -2.184007   -1.885902
     16          1           0        1.948476   -1.117133   -2.325774
     17          1           0        3.594368   -0.456686   -2.112734
     18          6           0        3.119619    0.205066    1.934322
     19          1           0        3.979702   -0.256456    2.438824
     20          1           0        3.151570    1.272425    2.181470
     21          1           0        2.214607   -0.216352    2.379550
     22          6           0        0.847644    2.189541    0.622999
     23          1           0        1.728279    2.812125    0.786839
     24          1           0       -0.026249    2.845538    0.494191
     25          1           0        0.653412    1.556901    1.490066
     26          6           0        1.752733    1.931733   -1.772319
     27          1           0        1.185937    2.793709   -2.154470
     28          1           0        2.728763    2.297926   -1.448502
     29          1           0        1.853619    1.201578   -2.573340
 ---------------------------------------------------------------------

 SCF Done:  E(UB97D3) =  -3034.64072852     A.U. after   16 cycles
 Normal termination of Gaussian 16 at Wed Feb 12 22:56:18 2020.
