 Gaussian 16, Revision A.03,

 --------------------------------
 #t pop=none jul-cc-pvdz upbe1pbe
 --------------------------------
 ------------------------
 theory_abbreviation pbe0
 ------------------------
 Symbolic Z-matrix:
 Charge =  0 Multiplicity = 6

 SCF Done:  E(UPBE1PBE) =  -3033.10403253     A.U. after   21 cycles
 Normal termination of Gaussian 16 at Tue Feb 11 13:58:13 2020.

 ---------------------------------------------------------------------
 #t pop=none jul-cc-pvdz guess=read upbe1pbe empiricaldispersion=gd3bj
 ---------------------------------------------------------------------
 -----------------------------
 theory_abbreviation pbe0_d3bj
 -----------------------------
 Symbolic Z-matrix:
 Charge =  0 Multiplicity = 6

 SCF Done:  E(UPBE1PBE) =  -3033.14108496     A.U. after    1 cycles
 Normal termination of Gaussian 16 at Tue Feb 11 13:59:24 2020.

 -----------------------------------------
 #t pop=none jul-cc-pvdz guess=read ub3lyp
 -----------------------------------------
 -------------------------
 theory_abbreviation b3lyp
 -------------------------
 Symbolic Z-matrix:
 Charge =  0 Multiplicity = 6

 SCF Done:  E(UB3LYP) =  -3034.31680954     A.U. after   14 cycles
 Normal termination of Gaussian 16 at Tue Feb 11 14:14:03 2020.

 -------------------------------------------------------------------
 #t pop=none jul-cc-pvdz guess=read ub3lyp empiricaldispersion=gd3bj
 -------------------------------------------------------------------
 ------------------------------
 theory_abbreviation b3lyp_d3bj
 ------------------------------
 Symbolic Z-matrix:
 Charge =  0 Multiplicity = 6

 SCF Done:  E(UB3LYP) =  -3034.38578750     A.U. after    1 cycles
 Normal termination of Gaussian 16 at Tue Feb 11 14:15:28 2020.

 ----------------------------------------
 #t pop=none jul-cc-pvdz guess=read ub97d
 ----------------------------------------
 ------------------------
 theory_abbreviation b97d
 ------------------------
 Symbolic Z-matrix:
 Charge =  0 Multiplicity = 6

 SCF Done:  E(UB97D) =  -3034.56688812     A.U. after   15 cycles

 ----------------------------------------------------------------
 #t pop=none jul-cc-pvdz guess=read ub97d empiricaldispersion=gd3
 ----------------------------------------------------------------
 -------------------------
 theory_abbreviation b97d3
 -------------------------
 Symbolic Z-matrix:
 Charge =  0 Multiplicity = 6

 SCF Done:  E(UB97D) =  -3034.56785090     A.U. after    3 cycles
 SCF Done:  E(UBHandHLYP) =  -3033.96143951     A.U. after   17 cycles
 SCF Done:  E(UBHandH) =  -3026.30834906     A.U. after   13 cycles
 SCF Done:  E(ULC-wPBE) =  -3033.44734741     A.U. after   17 cycles
 SCF Done:  E(UB-P86) =  -3034.62145692     A.U. after   16 cycles
 SCF Done:  E(UmPW1LYP) =  -3034.03547530     A.U. after   14 cycles
 SCF Done:  E(UmPW1PBE) =  -3033.87844733     A.U. after   14 cycles
 SCF Done:  E(UmPW3PBE) =  -3033.65044701     A.U. after   13 cycles
 SCF Done:  E(UM11) =  -3033.80110182     A.U. after   16 cycles
 SCF Done:  E(UN12SX) =  -3033.24427665     A.U. after   15 cycles
 SCF Done:  E(UMN12SX) =  -3033.64175721     A.U. after   16 cycles
 SCF Done:  E(UB1B95) =  -3034.37052812     A.U. after   14 cycles
 Normal termination of Gaussian 16 at Tue Feb 11 22:32:43 2020.
 SCF Done:  E(UB3PW91) =  -3033.96578188     A.U. after   13 cycles
 Normal termination of Gaussian 16 at Tue Feb 11 22:46:20 2020.
 SCF Done:  E(UM06L) =  -3034.18180928     A.U. after   18 cycles
 Normal termination of Gaussian 16 at Tue Feb 11 23:07:19 2020.
 Gaussian 16:  ES64L-G16RevA.03 25-Dec-2016

                         Standard orientation:
 ---------------------------------------------------------------------
 Center     Atomic      Atomic             Coordinates (Angstroms)
 Number     Number       Type             X           Y           Z
 ---------------------------------------------------------------------
      1          8           0       -0.318690   -0.271748   -0.620946
      2          6           0       -1.373933   -1.160447   -0.468863
      3          6           0       -2.808783   -0.138134   -0.099972
      4          6           0       -2.106062    1.122426   -0.231612
      5          6           0       -1.974398    1.791839   -1.540517
      6         26           0        1.382291    0.037213    0.025582
      7         17           0        1.742846    2.092246   -0.756424
      8          6           0       -1.576728    1.830778    0.949453
      9         17           0        2.712056   -1.555218   -0.695262
     10         17           0        1.233120    0.067679    2.253557
     11          1           0       -3.475449   -0.307338   -0.947234
     12          1           0       -2.438775    2.319103    1.434839
     13          1           0       -1.148040    1.145716    1.686229
     14          1           0       -0.838283    2.587985    0.681895
     15          1           0       -2.568063    2.719428   -1.490199
     16          1           0       -0.930776    2.093478   -1.692705
     17          1           0       -2.332166    1.186676   -2.373680
     18          6           0       -3.486682   -0.450666    1.226540
     19          1           0       -4.319477    0.239518    1.406459
     20          1           0       -3.898819   -1.462563    1.205293
     21          1           0       -2.803868   -0.385920    2.076098
     22          6           0       -1.154292   -2.142358    0.665569
     23          1           0       -1.996091   -2.828607    0.790519
     24          1           0       -0.266023   -2.731157    0.403246
     25          1           0       -0.938854   -1.637916    1.608653
     26          6           0       -1.676907   -1.845450   -1.791792
     27          1           0       -0.798429   -2.441210   -2.065368
     28          1           0       -2.547143   -2.505788   -1.719379
     29          1           0       -1.839458   -1.112901   -2.586858
 ---------------------------------------------------------------------

 SCF Done:  E(UB97D3) =  -3034.60263893     A.U. after   14 cycles
 Normal termination of Gaussian 16 at Tue Feb 11 23:21:37 2020.
