 Gaussian 16, Revision A.03,

 --------------------------------
 #t pop=none jul-cc-pvdz upbe1pbe
 --------------------------------
 ------------------------
 theory_abbreviation pbe0
 ------------------------
 Symbolic Z-matrix:
 Charge =  0 Multiplicity = 6

 SCF Done:  E(UPBE1PBE) =  -3033.11199644     A.U. after   20 cycles
 Normal termination of Gaussian 16 at Tue Feb 11 13:57:47 2020.

 ---------------------------------------------------------------------
 #t pop=none jul-cc-pvdz guess=read upbe1pbe empiricaldispersion=gd3bj
 ---------------------------------------------------------------------
 -----------------------------
 theory_abbreviation pbe0_d3bj
 -----------------------------
 Symbolic Z-matrix:
 Charge =  0 Multiplicity = 6

 SCF Done:  E(UPBE1PBE) =  -3033.14979368     A.U. after    1 cycles
 Normal termination of Gaussian 16 at Tue Feb 11 13:59:02 2020.

 -----------------------------------------
 #t pop=none jul-cc-pvdz guess=read ub3lyp
 -----------------------------------------
 -------------------------
 theory_abbreviation b3lyp
 -------------------------
 Symbolic Z-matrix:
 Charge =  0 Multiplicity = 6

 SCF Done:  E(UB3LYP) =  -3034.32624510     A.U. after   13 cycles
 Normal termination of Gaussian 16 at Tue Feb 11 14:12:38 2020.

 -------------------------------------------------------------------
 #t pop=none jul-cc-pvdz guess=read ub3lyp empiricaldispersion=gd3bj
 -------------------------------------------------------------------
 ------------------------------
 theory_abbreviation b3lyp_d3bj
 ------------------------------
 Symbolic Z-matrix:
 Charge =  0 Multiplicity = 6

 SCF Done:  E(UB3LYP) =  -3034.39670132     A.U. after    1 cycles
 Normal termination of Gaussian 16 at Tue Feb 11 14:14:01 2020.

 ----------------------------------------
 #t pop=none jul-cc-pvdz guess=read ub97d
 ----------------------------------------
 ------------------------
 theory_abbreviation b97d
 ------------------------
 Symbolic Z-matrix:
 Charge =  0 Multiplicity = 6

 SCF Done:  E(UB97D) =  -3034.57994635     A.U. after   15 cycles

 ----------------------------------------------------------------
 #t pop=none jul-cc-pvdz guess=read ub97d empiricaldispersion=gd3
 ----------------------------------------------------------------
 -------------------------
 theory_abbreviation b97d3
 -------------------------
 Symbolic Z-matrix:
 Charge =  0 Multiplicity = 6

 SCF Done:  E(UB97D) =  -3034.58099476     A.U. after    1 cycles
 SCF Done:  E(UBHandHLYP) =  -3033.96783659     A.U. after   17 cycles
 SCF Done:  E(UBHandH) =  -3026.31358389     A.U. after   16 cycles
 SCF Done:  E(ULC-wPBE) =  -3033.45224079     A.U. after   19 cycles
 SCF Done:  E(UB-P86) =  -3034.63247239     A.U. after   17 cycles
 SCF Done:  E(UmPW1LYP) =  -3034.04439840     A.U. after   13 cycles
 SCF Done:  E(UmPW1PBE) =  -3033.88640632     A.U. after   13 cycles
 SCF Done:  E(UmPW3PBE) =  -3033.65901991     A.U. after   13 cycles
 SCF Done:  E(UM11) =  -3033.80987641     A.U. after   19 cycles
 SCF Done:  E(UN12SX) =  -3033.25143362     A.U. after   17 cycles
 SCF Done:  E(UMN12SX) =  -3033.65082983     A.U. after   16 cycles
 SCF Done:  E(UB1B95) =  -3034.38114975     A.U. after   16 cycles
 Normal termination of Gaussian 16 at Tue Feb 11 22:50:37 2020.
 SCF Done:  E(UB3PW91) =  -3033.97452894     A.U. after   15 cycles
 Normal termination of Gaussian 16 at Tue Feb 11 23:07:47 2020.
 SCF Done:  E(UM06L) =  -3034.19417368     A.U. after   18 cycles
 Normal termination of Gaussian 16 at Tue Feb 11 23:27:37 2020.
 Gaussian 16:  ES64L-G16RevA.03 25-Dec-2016

                         Standard orientation:
 ---------------------------------------------------------------------
 Center     Atomic      Atomic             Coordinates (Angstroms)
 Number     Number       Type             X           Y           Z
 ---------------------------------------------------------------------
      1          8           0       -0.317633   -0.143859   -0.704828
      2          6           0       -1.218333   -1.065763   -0.599478
      3          6           0       -2.962879   -0.152304    0.263454
      4          6           0       -2.399949    1.024209   -0.155211
      5          6           0       -2.611940    1.563625   -1.532153
      6         26           0        1.429183    0.091912    0.025213
      7         17           0        2.045947    2.048435   -0.745737
      8          6           0       -1.561187    1.883190    0.730510
      9         17           0        2.548376   -1.642897   -0.723681
     10         17           0        1.235902    0.055251    2.229914
     11          1           0       -3.682898   -0.613172   -0.409315
     12          1           0       -2.205427    2.682511    1.126673
     13          1           0       -1.129351    1.352723    1.578171
     14          1           0       -0.757884    2.365914    0.166138
     15          1           0       -2.942773    2.607138   -1.457732
     16          1           0       -1.655196    1.578691   -2.069278
     17          1           0       -3.354708    1.005309   -2.105389
     18          6           0       -3.109743   -0.538507    1.716742
     19          1           0       -3.962036    0.000568    2.150081
     20          1           0       -3.314630   -1.605806    1.828922
     21          1           0       -2.229635   -0.296201    2.316364
     22          6           0       -1.004585   -2.144702    0.433455
     23          1           0       -1.864227   -2.809217    0.530383
     24          1           0       -0.152912   -2.731901    0.060686
     25          1           0       -0.716979   -1.739626    1.403157
     26          6           0       -1.804451   -1.542031   -1.911056
     27          1           0       -1.013876   -2.142651   -2.380714
     28          1           0       -2.683170   -2.175381   -1.774481
     29          1           0       -2.027427   -0.717437   -2.586583
 ---------------------------------------------------------------------

 SCF Done:  E(UB97D3) =  -3034.61653808     A.U. after   15 cycles
 Normal termination of Gaussian 16 at Tue Feb 11 23:39:31 2020.
