 Gaussian 16, Revision A.03,

 --------------------------------
 #t pop=none jul-cc-pvdz upbe1pbe
 --------------------------------
 ------------------------
 theory_abbreviation pbe0
 ------------------------
 Symbolic Z-matrix:
 Charge =  0 Multiplicity = 6

 SCF Done:  E(UPBE1PBE) =  -3033.10451305     A.U. after   20 cycles
 Normal termination of Gaussian 16 at Tue Feb 11 14:46:09 2020.

 ---------------------------------------------------------------------
 #t pop=none jul-cc-pvdz guess=read upbe1pbe empiricaldispersion=gd3bj
 ---------------------------------------------------------------------
 -----------------------------
 theory_abbreviation pbe0_d3bj
 -----------------------------
 Symbolic Z-matrix:
 Charge =  0 Multiplicity = 6

 SCF Done:  E(UPBE1PBE) =  -3033.14257626     A.U. after    1 cycles
 Normal termination of Gaussian 16 at Tue Feb 11 14:47:20 2020.

 -----------------------------------------
 #t pop=none jul-cc-pvdz guess=read ub3lyp
 -----------------------------------------
 -------------------------
 theory_abbreviation b3lyp
 -------------------------
 Symbolic Z-matrix:
 Charge =  0 Multiplicity = 6

 SCF Done:  E(UB3LYP) =  -3034.31856143     A.U. after   14 cycles
 Normal termination of Gaussian 16 at Tue Feb 11 15:02:20 2020.

 -------------------------------------------------------------------
 #t pop=none jul-cc-pvdz guess=read ub3lyp empiricaldispersion=gd3bj
 -------------------------------------------------------------------
 ------------------------------
 theory_abbreviation b3lyp_d3bj
 ------------------------------
 Symbolic Z-matrix:
 Charge =  0 Multiplicity = 6

 SCF Done:  E(UB3LYP) =  -3034.38951282     A.U. after    1 cycles
 Normal termination of Gaussian 16 at Tue Feb 11 15:03:32 2020.

 ----------------------------------------
 #t pop=none jul-cc-pvdz guess=read ub97d
 ----------------------------------------
 ------------------------
 theory_abbreviation b97d
 ------------------------
 Symbolic Z-matrix:
 Charge =  0 Multiplicity = 6

 SCF Done:  E(UB97D) =  -3034.57171948     A.U. after   16 cycles

 ----------------------------------------------------------------
 #t pop=none jul-cc-pvdz guess=read ub97d empiricaldispersion=gd3
 ----------------------------------------------------------------
 -------------------------
 theory_abbreviation b97d3
 -------------------------
 Symbolic Z-matrix:
 Charge =  0 Multiplicity = 6

 SCF Done:  E(UB97D) =  -3034.57360451     A.U. after    1 cycles
 SCF Done:  E(UBHandHLYP) =  -3033.96052043     A.U. after   17 cycles
 SCF Done:  E(UBHandH) =  -3026.30654394     A.U. after   15 cycles
 SCF Done:  E(ULC-wPBE) =  -3033.44517481     A.U. after   19 cycles
 SCF Done:  E(UB-P86) =  -3034.62543879     A.U. after   16 cycles
 SCF Done:  E(UmPW1LYP) =  -3034.03671503     A.U. after   14 cycles
 SCF Done:  E(UmPW1PBE) =  -3033.87898275     A.U. after   15 cycles
 SCF Done:  E(UmPW3PBE) =  -3033.65154665     A.U. after   13 cycles
 SCF Done:  E(UM11) =  -3033.80219527     A.U. after   17 cycles
 SCF Done:  E(UN12SX) =  -3033.24387007     A.U. after   17 cycles
 SCF Done:  E(UMN12SX) =  -3033.64426967     A.U. after   16 cycles
 SCF Done:  E(UB1B95) =  -3034.37474014     A.U. after   15 cycles
 Normal termination of Gaussian 16 at Tue Feb 11 23:20:03 2020.
 SCF Done:  E(UB3PW91) =  -3033.96703444     A.U. after   15 cycles
 Normal termination of Gaussian 16 at Tue Feb 11 23:35:17 2020.
 SCF Done:  E(UM06L) =  -3034.18716095     A.U. after   17 cycles
 Normal termination of Gaussian 16 at Tue Feb 11 23:53:59 2020.
 Gaussian 16:  ES64L-G16RevA.03 25-Dec-2016

                         Standard orientation:
 ---------------------------------------------------------------------
 Center     Atomic      Atomic             Coordinates (Angstroms)
 Number     Number       Type             X           Y           Z
 ---------------------------------------------------------------------
      1          8           0       -0.342139   -0.090483   -0.548719
      2          6           0       -1.217816   -1.036011   -0.499141
      3          6           0       -3.147644    0.029705   -0.049128
      4          6           0       -2.253118    1.049787   -0.216449
      5          6           0       -2.080432    1.720860   -1.543692
      6         26           0        1.457915    0.060257    0.057179
      7         17           0        2.075353    1.987321   -0.784692
      8          6           0       -1.581115    1.729059    0.938331
      9         17           0        2.394227   -1.748417   -0.774279
     10         17           0        1.419781    0.031241    2.260756
     11          1           0       -3.699891   -0.287586   -0.931023
     12          1           0       -2.280510    2.476547    1.339445
     13          1           0       -1.322623    1.050952    1.752780
     14          1           0       -0.677054    2.253444    0.622423
     15          1           0       -2.519267    2.725324   -1.463949
     16          1           0       -1.022784    1.848097   -1.788858
     17          1           0       -2.594686    1.198975   -2.354156
     18          6           0       -3.723814   -0.425593    1.264686
     19          1           0       -4.650216    0.128690    1.467237
     20          1           0       -3.988958   -1.487298    1.245812
     21          1           0       -3.052908   -0.255521    2.109473
     22          6           0       -1.188851   -1.962252    0.682621
     23          1           0       -2.065360   -2.608174    0.736782
     24          1           0       -0.302476   -2.596132    0.529676
     25          1           0       -1.037999   -1.425136    1.619356
     26          6           0       -1.637380   -1.623261   -1.819899
     27          1           0       -0.787542   -2.241941   -2.143227
     28          1           0       -2.521673   -2.257948   -1.737101
     29          1           0       -1.782861   -0.851359   -2.575876
 ---------------------------------------------------------------------

 SCF Done:  E(UB97D3) =  -3034.60966585     A.U. after   16 cycles
 Normal termination of Gaussian 16 at Wed Feb 12 00:07:25 2020.
