 Gaussian 16, Revision A.03,

 --------------------------------
 #t pop=none jul-cc-pvdz upbe1pbe
 --------------------------------
 ------------------------
 theory_abbreviation pbe0
 ------------------------
 Symbolic Z-matrix:
 Charge =  0 Multiplicity = 6

 SCF Done:  E(UPBE1PBE) =  -3033.11327110     A.U. after   21 cycles
 Normal termination of Gaussian 16 at Tue Feb 11 20:05:33 2020.

 ---------------------------------------------------------------------
 #t pop=none jul-cc-pvdz guess=read upbe1pbe empiricaldispersion=gd3bj
 ---------------------------------------------------------------------
 -----------------------------
 theory_abbreviation pbe0_d3bj
 -----------------------------
 Symbolic Z-matrix:
 Charge =  0 Multiplicity = 6

 SCF Done:  E(UPBE1PBE) =  -3033.15021144     A.U. after    1 cycles
 Normal termination of Gaussian 16 at Tue Feb 11 20:06:42 2020.

 -----------------------------------------
 #t pop=none jul-cc-pvdz guess=read ub3lyp
 -----------------------------------------
 -------------------------
 theory_abbreviation b3lyp
 -------------------------
 Symbolic Z-matrix:
 Charge =  0 Multiplicity = 6

 SCF Done:  E(UB3LYP) =  -3034.32630932     A.U. after   13 cycles
 Normal termination of Gaussian 16 at Tue Feb 11 20:20:02 2020.

 -------------------------------------------------------------------
 #t pop=none jul-cc-pvdz guess=read ub3lyp empiricaldispersion=gd3bj
 -------------------------------------------------------------------
 ------------------------------
 theory_abbreviation b3lyp_d3bj
 ------------------------------
 Symbolic Z-matrix:
 Charge =  0 Multiplicity = 6

 SCF Done:  E(UB3LYP) =  -3034.39505724     A.U. after    1 cycles
 Normal termination of Gaussian 16 at Tue Feb 11 20:21:10 2020.

 ----------------------------------------
 #t pop=none jul-cc-pvdz guess=read ub97d
 ----------------------------------------
 ------------------------
 theory_abbreviation b97d
 ------------------------
 Symbolic Z-matrix:
 Charge =  0 Multiplicity = 6

 SCF Done:  E(UB97D) =  -3034.57627555     A.U. after   16 cycles

 ----------------------------------------------------------------
 #t pop=none jul-cc-pvdz guess=read ub97d empiricaldispersion=gd3
 ----------------------------------------------------------------
 -------------------------
 theory_abbreviation b97d3
 -------------------------
 Symbolic Z-matrix:
 Charge =  0 Multiplicity = 6

 SCF Done:  E(UB97D) =  -3034.57730902     A.U. after    1 cycles
 SCF Done:  E(UBHandHLYP) =  -3033.96976986     A.U. after   16 cycles
 SCF Done:  E(UBHandH) =  -3026.31541889     A.U. after   14 cycles
 SCF Done:  E(ULC-wPBE) =  -3033.45829658     A.U. after   17 cycles
 SCF Done:  E(UB-P86) =  -3034.63227465     A.U. after   16 cycles
 SCF Done:  E(UmPW1LYP) =  -3034.04471586     A.U. after   14 cycles
 SCF Done:  E(UmPW1PBE) =  -3033.88775693     A.U. after   14 cycles
 SCF Done:  E(UmPW3PBE) =  -3033.65991626     A.U. after   14 cycles
 SCF Done:  E(UM11) =  -3033.80841060     A.U. after   16 cycles
 SCF Done:  E(UN12SX) =  -3033.25337467     A.U. after   16 cycles
 SCF Done:  E(UMN12SX) =  -3033.64927673     A.U. after   16 cycles
 SCF Done:  E(UB1B95) =  -3034.37913539     A.U. after   15 cycles
 Normal termination of Gaussian 16 at Wed Feb 12 04:27:25 2020.
 SCF Done:  E(UB3PW91) =  -3033.97532703     A.U. after   14 cycles
 Normal termination of Gaussian 16 at Wed Feb 12 04:41:44 2020.
 SCF Done:  E(UM06L) =  -3034.19048002     A.U. after   18 cycles
 Normal termination of Gaussian 16 at Wed Feb 12 05:01:30 2020.
 Gaussian 16:  ES64L-G16RevA.03 25-Dec-2016

                         Standard orientation:
 ---------------------------------------------------------------------
 Center     Atomic      Atomic             Coordinates (Angstroms)
 Number     Number       Type             X           Y           Z
 ---------------------------------------------------------------------
      1          8           0       -0.371775   -0.236810   -0.574286
      2          6           0       -1.431705   -1.193925   -0.374037
      3          6           0       -2.759488   -0.143690   -0.219124
      4          6           0       -1.986230    1.147157   -0.257055
      5          6           0       -1.874659    1.900262   -1.524959
      6         26           0        1.377376    0.032476    0.024338
      7         17           0        1.793129    2.042174   -0.823122
      8          6           0       -1.580309    1.827788    0.991106
      9         17           0        2.577350   -1.648230   -0.712770
     10         17           0        1.320131    0.141381    2.240903
     11          1           0       -3.344078   -0.234171   -1.138909
     12          1           0       -2.459318    2.399036    1.334628
     13          1           0       -1.308372    1.131074    1.784962
     14          1           0       -0.760860    2.528687    0.818798
     15          1           0       -2.630267    2.703354   -1.491526
     16          1           0       -0.890794    2.373553   -1.603699
     17          1           0       -2.070265    1.276209   -2.397727
     18          6           0       -3.656857   -0.364162    0.993287
     19          1           0       -4.459586    0.381383    1.030906
     20          1           0       -4.127594   -1.349221    0.925077
     21          1           0       -3.108153   -0.322006    1.936751
     22          6           0       -1.193582   -2.034506    0.866273
     23          1           0       -2.016890   -2.735881    1.034156
     24          1           0       -0.276160   -2.615989    0.718657
     25          1           0       -1.051285   -1.422211    1.758617
     26          6           0       -1.568294   -2.039762   -1.627225
     27          1           0       -0.643035   -2.607636   -1.774246
     28          1           0       -2.404298   -2.743090   -1.541977
     29          1           0       -1.720231   -1.408483   -2.507729
 ---------------------------------------------------------------------

 SCF Done:  E(UB97D3) =  -3034.61260058     A.U. after   15 cycles
 Normal termination of Gaussian 16 at Wed Feb 12 05:13:33 2020.
