 Gaussian 16, Revision A.03,

 --------------------------------
 #t pop=none jul-cc-pvdz upbe1pbe
 --------------------------------
 ------------------------
 theory_abbreviation pbe0
 ------------------------
 Symbolic Z-matrix:
 Charge =  0 Multiplicity = 6

 SCF Done:  E(UPBE1PBE) =  -3033.10932138     A.U. after   20 cycles
 Normal termination of Gaussian 16 at Tue Feb 11 13:58:54 2020.

 ---------------------------------------------------------------------
 #t pop=none jul-cc-pvdz guess=read upbe1pbe empiricaldispersion=gd3bj
 ---------------------------------------------------------------------
 -----------------------------
 theory_abbreviation pbe0_d3bj
 -----------------------------
 Symbolic Z-matrix:
 Charge =  0 Multiplicity = 6

 SCF Done:  E(UPBE1PBE) =  -3033.14722517     A.U. after    1 cycles
 Normal termination of Gaussian 16 at Tue Feb 11 14:00:06 2020.

 -----------------------------------------
 #t pop=none jul-cc-pvdz guess=read ub3lyp
 -----------------------------------------
 -------------------------
 theory_abbreviation b3lyp
 -------------------------
 Symbolic Z-matrix:
 Charge =  0 Multiplicity = 6

 SCF Done:  E(UB3LYP) =  -3034.32353436     A.U. after   13 cycles
 Normal termination of Gaussian 16 at Tue Feb 11 14:14:18 2020.

 -------------------------------------------------------------------
 #t pop=none jul-cc-pvdz guess=read ub3lyp empiricaldispersion=gd3bj
 -------------------------------------------------------------------
 ------------------------------
 theory_abbreviation b3lyp_d3bj
 ------------------------------
 Symbolic Z-matrix:
 Charge =  0 Multiplicity = 6

 SCF Done:  E(UB3LYP) =  -3034.39417772     A.U. after    1 cycles
 Normal termination of Gaussian 16 at Tue Feb 11 14:15:30 2020.

 ----------------------------------------
 #t pop=none jul-cc-pvdz guess=read ub97d
 ----------------------------------------
 ------------------------
 theory_abbreviation b97d
 ------------------------
 Symbolic Z-matrix:
 Charge =  0 Multiplicity = 6

 SCF Done:  E(UB97D) =  -3034.57672755     A.U. after   15 cycles

 ----------------------------------------------------------------
 #t pop=none jul-cc-pvdz guess=read ub97d empiricaldispersion=gd3
 ----------------------------------------------------------------
 -------------------------
 theory_abbreviation b97d3
 -------------------------
 Symbolic Z-matrix:
 Charge =  0 Multiplicity = 6

 SCF Done:  E(UB97D) =  -3034.57827756     A.U. after    1 cycles
 SCF Done:  E(UBHandHLYP) =  -3033.96544693     A.U. after   18 cycles
 SCF Done:  E(UBHandH) =  -3026.31110274     A.U. after   13 cycles
 SCF Done:  E(ULC-wPBE) =  -3033.44984825     A.U. after   19 cycles
 SCF Done:  E(UB-P86) =  -3034.62982629     A.U. after   17 cycles
 SCF Done:  E(UmPW1LYP) =  -3034.04170364     A.U. after   13 cycles
 SCF Done:  E(UmPW1PBE) =  -3033.88378718     A.U. after   13 cycles
 SCF Done:  E(UmPW3PBE) =  -3033.65635389     A.U. after   12 cycles
 SCF Done:  E(UM11) =  -3033.80714882     A.U. after   18 cycles
 SCF Done:  E(UN12SX) =  -3033.24868128     A.U. after   17 cycles
 SCF Done:  E(UMN12SX) =  -3033.64853095     A.U. after   16 cycles
 SCF Done:  E(UB1B95) =  -3034.37897453     A.U. after   16 cycles
 Normal termination of Gaussian 16 at Tue Feb 11 22:50:44 2020.
 SCF Done:  E(UB3PW91) =  -3033.97187488     A.U. after   13 cycles
 Normal termination of Gaussian 16 at Tue Feb 11 23:06:17 2020.
 SCF Done:  E(UM06L) =  -3034.19162991     A.U. after   17 cycles
 Normal termination of Gaussian 16 at Tue Feb 11 23:25:34 2020.
 Gaussian 16:  ES64L-G16RevA.03 25-Dec-2016

                         Standard orientation:
 ---------------------------------------------------------------------
 Center     Atomic      Atomic             Coordinates (Angstroms)
 Number     Number       Type             X           Y           Z
 ---------------------------------------------------------------------
      1          8           0       -0.324149   -0.119743   -0.621596
      2          6           0       -1.225656   -1.040857   -0.548965
      3          6           0       -3.089092   -0.041603    0.058564
      4          6           0       -2.313221    1.055815   -0.192513
      5          6           0       -2.258513    1.689453   -1.545373
      6         26           0        1.449314    0.067948    0.048273
      7         17           0        2.060356    2.013028   -0.757706
      8          6           0       -1.566713    1.782228    0.880669
      9         17           0        2.469670   -1.706731   -0.752346
     10         17           0        1.350182    0.031877    2.253199
     11          1           0       -3.707106   -0.400042   -0.761506
     12          1           0       -2.240292    2.544117    1.299823
     13          1           0       -1.244741    1.139904    1.700838
     14          1           0       -0.693683    2.300564    0.476823
     15          1           0       -2.605626    2.727103   -1.451699
     16          1           0       -1.224039    1.732019   -1.902135
     17          1           0       -2.890541    1.185955   -2.280196
     18          6           0       -3.530253   -0.488505    1.429001
     19          1           0       -4.441013    0.056555    1.710446
     20          1           0       -3.778761   -1.553269    1.446974
     21          1           0       -2.784803   -0.298210    2.204023
     22          6           0       -1.124438   -2.030606    0.580373
     23          1           0       -1.993042   -2.685789    0.649842
     24          1           0       -0.245333   -2.647434    0.341825
     25          1           0       -0.924177   -1.544643    1.535463
     26          6           0       -1.711060   -1.580288   -1.872323
     27          1           0       -0.882055   -2.190042   -2.258187
     28          1           0       -2.593228   -2.215347   -1.771116
     29          1           0       -1.890380   -0.782922   -2.593618
 ---------------------------------------------------------------------

 SCF Done:  E(UB97D3) =  -3034.61411152     A.U. after   15 cycles
 Normal termination of Gaussian 16 at Tue Feb 11 23:37:50 2020.
