 Gaussian 16, Revision A.03,

 --------------------------------
 #t pop=none jul-cc-pvdz upbe1pbe
 --------------------------------
 ------------------------
 theory_abbreviation pbe0
 ------------------------
 Symbolic Z-matrix:
 Charge =  0 Multiplicity = 6

 SCF Done:  E(UPBE1PBE) =  -3033.10920800     A.U. after   21 cycles
 Normal termination of Gaussian 16 at Tue Feb 11 13:59:51 2020.

 ---------------------------------------------------------------------
 #t pop=none jul-cc-pvdz guess=read upbe1pbe empiricaldispersion=gd3bj
 ---------------------------------------------------------------------
 -----------------------------
 theory_abbreviation pbe0_d3bj
 -----------------------------
 Symbolic Z-matrix:
 Charge =  0 Multiplicity = 6

 SCF Done:  E(UPBE1PBE) =  -3033.14674624     A.U. after    1 cycles
 Normal termination of Gaussian 16 at Tue Feb 11 14:01:03 2020.

 -----------------------------------------
 #t pop=none jul-cc-pvdz guess=read ub3lyp
 -----------------------------------------
 -------------------------
 theory_abbreviation b3lyp
 -------------------------
 Symbolic Z-matrix:
 Charge =  0 Multiplicity = 6

 SCF Done:  E(UB3LYP) =  -3034.32274471     A.U. after   13 cycles
 Normal termination of Gaussian 16 at Tue Feb 11 14:15:09 2020.

 -------------------------------------------------------------------
 #t pop=none jul-cc-pvdz guess=read ub3lyp empiricaldispersion=gd3bj
 -------------------------------------------------------------------
 ------------------------------
 theory_abbreviation b3lyp_d3bj
 ------------------------------
 Symbolic Z-matrix:
 Charge =  0 Multiplicity = 6

 SCF Done:  E(UB3LYP) =  -3034.39273471     A.U. after    1 cycles
 Normal termination of Gaussian 16 at Tue Feb 11 14:16:21 2020.

 ----------------------------------------
 #t pop=none jul-cc-pvdz guess=read ub97d
 ----------------------------------------
 ------------------------
 theory_abbreviation b97d
 ------------------------
 Symbolic Z-matrix:
 Charge =  0 Multiplicity = 6

 SCF Done:  E(UB97D) =  -3034.57635863     A.U. after   16 cycles

 ----------------------------------------------------------------
 #t pop=none jul-cc-pvdz guess=read ub97d empiricaldispersion=gd3
 ----------------------------------------------------------------
 -------------------------
 theory_abbreviation b97d3
 -------------------------
 Symbolic Z-matrix:
 Charge =  0 Multiplicity = 6

 SCF Done:  E(UB97D) =  -3034.57685044     A.U. after    2 cycles
 SCF Done:  E(UBHandHLYP) =  -3033.96464176     A.U. after   18 cycles
 SCF Done:  E(UBHandH) =  -3026.31155913     A.U. after   16 cycles
 SCF Done:  E(ULC-wPBE) =  -3033.44937039     A.U. after   19 cycles
 SCF Done:  E(UB-P86) =  -3034.62889304     A.U. after   17 cycles
 SCF Done:  E(UmPW1LYP) =  -3034.04094053     A.U. after   15 cycles
 SCF Done:  E(UmPW1PBE) =  -3033.88357396     A.U. after   15 cycles
 SCF Done:  E(UmPW3PBE) =  -3033.65606784     A.U. after   14 cycles
 SCF Done:  E(UM11) =  -3033.80746730     A.U. after   19 cycles
 SCF Done:  E(UN12SX) =  -3033.24894012     A.U. after   17 cycles
 SCF Done:  E(UMN12SX) =  -3033.64779638     A.U. after   16 cycles
 SCF Done:  E(UB1B95) =  -3034.37798279     A.U. after   16 cycles
 Normal termination of Gaussian 16 at Tue Feb 11 23:17:24 2020.
 SCF Done:  E(UB3PW91) =  -3033.97147380     A.U. after   16 cycles
 Normal termination of Gaussian 16 at Tue Feb 11 23:34:09 2020.
 SCF Done:  E(UM06L) =  -3034.19053800     A.U. after   18 cycles
 Normal termination of Gaussian 16 at Tue Feb 11 23:54:09 2020.
 Gaussian 16:  ES64L-G16RevA.03 25-Dec-2016

                         Standard orientation:
 ---------------------------------------------------------------------
 Center     Atomic      Atomic             Coordinates (Angstroms)
 Number     Number       Type             X           Y           Z
 ---------------------------------------------------------------------
      1          8           0       -0.326143   -0.145298   -0.705867
      2          6           0       -1.240881   -1.069906   -0.587983
      3          6           0       -2.868236   -0.214075    0.318532
      4          6           0       -2.411902    1.006111   -0.134558
      5          6           0       -2.732882    1.522197   -1.496436
      6         26           0        1.412225    0.099364    0.008024
      7         17           0        2.002109    2.076837   -0.741861
      8          6           0       -1.567120    1.907731    0.694957
      9         17           0        2.581800   -1.604370   -0.736854
     10         17           0        1.205424    0.055173    2.218806
     11          1           0       -3.633049   -0.692884   -0.289691
     12          1           0       -2.230809    2.678134    1.117644
     13          1           0       -1.069337    1.406314    1.523418
     14          1           0       -0.819463    2.422656    0.084324
     15          1           0       -3.090768    2.555733   -1.410172
     16          1           0       -1.809567    1.564227   -2.088927
     17          1           0       -3.487166    0.931623   -2.019089
     18          6           0       -2.917252   -0.563105    1.791525
     19          1           0       -3.729582   -0.003066    2.271234
     20          1           0       -3.124949   -1.625140    1.938499
     21          1           0       -1.991759   -0.322383    2.319038
     22          6           0       -0.960623   -2.196999    0.382851
     23          1           0       -1.808785   -2.875315    0.492542
     24          1           0       -0.123994   -2.755395   -0.059674
     25          1           0       -0.629786   -1.835539    1.355761
     26          6           0       -1.829558   -1.532801   -1.908354
     27          1           0       -1.035903   -2.112554   -2.396727
     28          1           0       -2.698942   -2.180769   -1.776078
     29          1           0       -2.072768   -0.701536   -2.568534
 ---------------------------------------------------------------------

 SCF Done:  E(UB97D3) =  -3034.61191523     A.U. after   15 cycles
 Normal termination of Gaussian 16 at Wed Feb 12 00:07:26 2020.
