 Gaussian 16, Revision A.03,

 --------------------------------
 #t pop=none jul-cc-pvdz upbe1pbe
 --------------------------------
 ------------------------
 theory_abbreviation pbe0
 ------------------------
 Symbolic Z-matrix:
 Charge =  0 Multiplicity = 6

 SCF Done:  E(UPBE1PBE) =  -3033.12512563     A.U. after   19 cycles
 Normal termination of Gaussian 16 at Tue Feb 11 13:55:08 2020.

 ---------------------------------------------------------------------
 #t pop=none jul-cc-pvdz guess=read upbe1pbe empiricaldispersion=gd3bj
 ---------------------------------------------------------------------
 -----------------------------
 theory_abbreviation pbe0_d3bj
 -----------------------------
 Symbolic Z-matrix:
 Charge =  0 Multiplicity = 6

 SCF Done:  E(UPBE1PBE) =  -3033.16201688     A.U. after    1 cycles
 Normal termination of Gaussian 16 at Tue Feb 11 13:56:19 2020.

 -----------------------------------------
 #t pop=none jul-cc-pvdz guess=read ub3lyp
 -----------------------------------------
 -------------------------
 theory_abbreviation b3lyp
 -------------------------
 Symbolic Z-matrix:
 Charge =  0 Multiplicity = 6

 SCF Done:  E(UB3LYP) =  -3034.33741755     A.U. after   13 cycles
 Normal termination of Gaussian 16 at Tue Feb 11 14:09:58 2020.

 -------------------------------------------------------------------
 #t pop=none jul-cc-pvdz guess=read ub3lyp empiricaldispersion=gd3bj
 -------------------------------------------------------------------
 ------------------------------
 theory_abbreviation b3lyp_d3bj
 ------------------------------
 Symbolic Z-matrix:
 Charge =  0 Multiplicity = 6

 SCF Done:  E(UB3LYP) =  -3034.40606896     A.U. after    1 cycles
 Normal termination of Gaussian 16 at Tue Feb 11 14:11:09 2020.

 ----------------------------------------
 #t pop=none jul-cc-pvdz guess=read ub97d
 ----------------------------------------
 ------------------------
 theory_abbreviation b97d
 ------------------------
 Symbolic Z-matrix:
 Charge =  0 Multiplicity = 6

 SCF Done:  E(UB97D) =  -3034.58718572     A.U. after   16 cycles

 ----------------------------------------------------------------
 #t pop=none jul-cc-pvdz guess=read ub97d empiricaldispersion=gd3
 ----------------------------------------------------------------
 -------------------------
 theory_abbreviation b97d3
 -------------------------
 Symbolic Z-matrix:
 Charge =  0 Multiplicity = 6

 SCF Done:  E(UB97D) =  -3034.58796955     A.U. after    1 cycles
 SCF Done:  E(UBHandHLYP) =  -3033.97993336     A.U. after   16 cycles
 SCF Done:  E(UBHandH) =  -3026.32620529     A.U. after   14 cycles
 SCF Done:  E(ULC-wPBE) =  -3033.47148973     A.U. after   17 cycles
 SCF Done:  E(UB-P86) =  -3034.64383383     A.U. after   16 cycles
 SCF Done:  E(UmPW1LYP) =  -3034.05564156     A.U. after   14 cycles
 SCF Done:  E(UmPW1PBE) =  -3033.89957720     A.U. after   14 cycles
 SCF Done:  E(UmPW3PBE) =  -3033.67169236     A.U. after   14 cycles
 SCF Done:  E(UM11) =  -3033.82016614     A.U. after   16 cycles
 SCF Done:  E(UN12SX) =  -3033.26559574     A.U. after   16 cycles
 SCF Done:  E(UMN12SX) =  -3033.65973027     A.U. after   15 cycles
 SCF Done:  E(UB1B95) =  -3034.39099204     A.U. after   14 cycles
 Normal termination of Gaussian 16 at Tue Feb 11 22:21:19 2020.
 SCF Done:  E(UB3PW91) =  -3033.98704913     A.U. after   14 cycles
 Normal termination of Gaussian 16 at Tue Feb 11 22:36:09 2020.
 SCF Done:  E(UM06L) =  -3034.20059816     A.U. after   18 cycles
 Normal termination of Gaussian 16 at Tue Feb 11 22:57:42 2020.
 Gaussian 16:  ES64L-G16RevA.03 25-Dec-2016

                         Standard orientation:
 ---------------------------------------------------------------------
 Center     Atomic      Atomic             Coordinates (Angstroms)
 Number     Number       Type             X           Y           Z
 ---------------------------------------------------------------------
      1          8           0       -0.441502   -0.151243   -0.498905
      2          6           0       -1.458345   -1.190495   -0.333327
      3          6           0       -2.768960   -0.112671   -0.230452
      4          6           0       -1.890150    1.134593   -0.274152
      5          6           0       -1.814808    1.907659   -1.543952
      6         26           0        1.372099    0.035346    0.036550
      7         17           0        1.881295    1.986081   -0.857269
      8          6           0       -1.544487    1.856716    0.981176
      9         17           0        2.387560   -1.736706   -0.754001
     10         17           0        1.396715    0.138662    2.241070
     11          1           0       -3.334955   -0.189259   -1.163020
     12          1           0       -2.410966    2.481807    1.246077
     13          1           0       -1.343650    1.183651    1.814695
     14          1           0       -0.684534    2.513709    0.832309
     15          1           0       -2.639935    2.637178   -1.533993
     16          1           0       -0.872086    2.456298   -1.613334
     17          1           0       -1.936895    1.265184   -2.417676
     18          6           0       -3.700306   -0.268681    0.961804
     19          1           0       -4.463897    0.517940    0.970962
     20          1           0       -4.220637   -1.229475    0.900146
     21          1           0       -3.170563   -0.237098    1.916773
     22          6           0       -1.220213   -2.001991    0.922997
     23          1           0       -2.037110   -2.713627    1.081138
     24          1           0       -0.290729   -2.572069    0.813581
     25          1           0       -1.119244   -1.370437    1.807683
     26          6           0       -1.504293   -2.039241   -1.587148
     27          1           0       -0.549117   -2.561759   -1.707890
     28          1           0       -2.305598   -2.783731   -1.521358
     29          1           0       -1.667950   -1.419337   -2.473416
 ---------------------------------------------------------------------

 SCF Done:  E(UB97D3) =  -3034.62318861     A.U. after   15 cycles
 Normal termination of Gaussian 16 at Tue Feb 11 23:10:02 2020.
