 Gaussian 16, Revision A.03,

 --------------------------------
 #t pop=none jul-cc-pvdz upbe1pbe
 --------------------------------
 ------------------------
 theory_abbreviation pbe0
 ------------------------
 Symbolic Z-matrix:
 Charge =  0 Multiplicity = 6

 SCF Done:  E(UPBE1PBE) =  -3033.10578319     A.U. after   21 cycles
 Normal termination of Gaussian 16 at Tue Feb 11 20:06:41 2020.

 ---------------------------------------------------------------------
 #t pop=none jul-cc-pvdz guess=read upbe1pbe empiricaldispersion=gd3bj
 ---------------------------------------------------------------------
 -----------------------------
 theory_abbreviation pbe0_d3bj
 -----------------------------
 Symbolic Z-matrix:
 Charge =  0 Multiplicity = 6

 SCF Done:  E(UPBE1PBE) =  -3033.14282487     A.U. after    1 cycles
 Normal termination of Gaussian 16 at Tue Feb 11 20:07:53 2020.

 -----------------------------------------
 #t pop=none jul-cc-pvdz guess=read ub3lyp
 -----------------------------------------
 -------------------------
 theory_abbreviation b3lyp
 -------------------------
 Symbolic Z-matrix:
 Charge =  0 Multiplicity = 6

 SCF Done:  E(UB3LYP) =  -3034.31858627     A.U. after   13 cycles
 Normal termination of Gaussian 16 at Tue Feb 11 20:21:56 2020.

 -------------------------------------------------------------------
 #t pop=none jul-cc-pvdz guess=read ub3lyp empiricaldispersion=gd3bj
 -------------------------------------------------------------------
 ------------------------------
 theory_abbreviation b3lyp_d3bj
 ------------------------------
 Symbolic Z-matrix:
 Charge =  0 Multiplicity = 6

 SCF Done:  E(UB3LYP) =  -3034.38754431     A.U. after    1 cycles
 Normal termination of Gaussian 16 at Tue Feb 11 20:23:09 2020.

 ----------------------------------------
 #t pop=none jul-cc-pvdz guess=read ub97d
 ----------------------------------------
 ------------------------
 theory_abbreviation b97d
 ------------------------
 Symbolic Z-matrix:
 Charge =  0 Multiplicity = 6

 SCF Done:  E(UB97D) =  -3034.56831286     A.U. after   15 cycles

 ----------------------------------------------------------------
 #t pop=none jul-cc-pvdz guess=read ub97d empiricaldispersion=gd3
 ----------------------------------------------------------------
 -------------------------
 theory_abbreviation b97d3
 -------------------------
 Symbolic Z-matrix:
 Charge =  0 Multiplicity = 6

 SCF Done:  E(UB97D) =  -3034.56943038     A.U. after    3 cycles
 SCF Done:  E(UBHandHLYP) =  -3033.96339886     A.U. after   16 cycles
 SCF Done:  E(UBHandH) =  -3026.31017705     A.U. after   13 cycles
 SCF Done:  E(ULC-wPBE) =  -3033.44995639     A.U. after   17 cycles
 SCF Done:  E(UB-P86) =  -3034.62339700     A.U. after   16 cycles
 SCF Done:  E(UmPW1LYP) =  -3034.03727937     A.U. after   13 cycles
 SCF Done:  E(UmPW1PBE) =  -3033.88019110     A.U. after   14 cycles
 SCF Done:  E(UmPW3PBE) =  -3033.65217735     A.U. after   13 cycles
 SCF Done:  E(UM11) =  -3033.80256645     A.U. after   16 cycles
 SCF Done:  E(UN12SX) =  -3033.24596623     A.U. after   15 cycles
 SCF Done:  E(UMN12SX) =  -3033.64314747     A.U. after   16 cycles
 SCF Done:  E(UB1B95) =  -3034.37178988     A.U. after   14 cycles
 Normal termination of Gaussian 16 at Wed Feb 12 04:23:09 2020.
 SCF Done:  E(UB3PW91) =  -3033.96751552     A.U. after   13 cycles
 Normal termination of Gaussian 16 at Wed Feb 12 04:36:06 2020.
 SCF Done:  E(UM06L) =  -3034.18321161     A.U. after   18 cycles
 Normal termination of Gaussian 16 at Wed Feb 12 04:55:25 2020.
 Gaussian 16:  ES64L-G16RevA.03 25-Dec-2016

                         Standard orientation:
 ---------------------------------------------------------------------
 Center     Atomic      Atomic             Coordinates (Angstroms)
 Number     Number       Type             X           Y           Z
 ---------------------------------------------------------------------
      1          8           0       -0.317493   -0.298824   -0.635022
      2          6           0       -1.395065   -1.184327   -0.462449
      3          6           0       -2.764217   -0.154978   -0.104171
      4          6           0       -2.072782    1.133460   -0.238125
      5          6           0       -1.957772    1.800257   -1.547864
      6         26           0        1.373249    0.033318    0.022061
      7         17           0        1.712318    2.093078   -0.764112
      8          6           0       -1.575529    1.856957    0.944666
      9         17           0        2.741067   -1.535875   -0.673454
     10         17           0        1.205326    0.083834    2.250641
     11          1           0       -3.451838   -0.296997   -0.941457
     12          1           0       -2.459000    2.295793    1.438898
     13          1           0       -1.113731    1.183639    1.673814
     14          1           0       -0.874574    2.650686    0.682921
     15          1           0       -2.572845    2.714434   -1.502810
     16          1           0       -0.920672    2.127808   -1.696050
     17          1           0       -2.295344    1.181905   -2.379482
     18          6           0       -3.455072   -0.437182    1.224968
     19          1           0       -4.274728    0.270486    1.396100
     20          1           0       -3.886700   -1.441148    1.211029
     21          1           0       -2.772444   -0.379543    2.075341
     22          6           0       -1.149556   -2.164773    0.670054
     23          1           0       -1.988304   -2.852958    0.808757
     24          1           0       -0.264052   -2.753076    0.399617
     25          1           0       -0.926499   -1.657720    1.610108
     26          6           0       -1.687022   -1.886509   -1.780210
     27          1           0       -0.809763   -2.485771   -2.047923
     28          1           0       -2.558100   -2.545940   -1.702746
     29          1           0       -1.851936   -1.162335   -2.583015
 ---------------------------------------------------------------------

 SCF Done:  E(UB97D3) =  -3034.60430585     A.U. after   14 cycles
 Normal termination of Gaussian 16 at Wed Feb 12 05:06:28 2020.
