 Gaussian 16, Revision A.03,

 --------------------------------
 #t pop=none jul-cc-pvdz upbe1pbe
 --------------------------------
 ------------------------
 theory_abbreviation pbe0
 ------------------------
 Symbolic Z-matrix:
 Charge =  0 Multiplicity = 6

 SCF Done:  E(UPBE1PBE) =  -3033.12039480     A.U. after   21 cycles
 Normal termination of Gaussian 16 at Tue Feb 11 13:58:27 2020.

 ---------------------------------------------------------------------
 #t pop=none jul-cc-pvdz guess=read upbe1pbe empiricaldispersion=gd3bj
 ---------------------------------------------------------------------
 -----------------------------
 theory_abbreviation pbe0_d3bj
 -----------------------------
 Symbolic Z-matrix:
 Charge =  0 Multiplicity = 6

 SCF Done:  E(UPBE1PBE) =  -3033.15676163     A.U. after    1 cycles
 Normal termination of Gaussian 16 at Tue Feb 11 13:59:45 2020.

 -----------------------------------------
 #t pop=none jul-cc-pvdz guess=read ub3lyp
 -----------------------------------------
 -------------------------
 theory_abbreviation b3lyp
 -------------------------
 Symbolic Z-matrix:
 Charge =  0 Multiplicity = 6

 SCF Done:  E(UB3LYP) =  -3034.33648035     A.U. after   15 cycles
 Normal termination of Gaussian 16 at Tue Feb 11 14:15:05 2020.

 -------------------------------------------------------------------
 #t pop=none jul-cc-pvdz guess=read ub3lyp empiricaldispersion=gd3bj
 -------------------------------------------------------------------
 ------------------------------
 theory_abbreviation b3lyp_d3bj
 ------------------------------
 Symbolic Z-matrix:
 Charge =  0 Multiplicity = 6

 SCF Done:  E(UB3LYP) =  -3034.40427464     A.U. after    1 cycles
 Normal termination of Gaussian 16 at Tue Feb 11 14:16:29 2020.

 ----------------------------------------
 #t pop=none jul-cc-pvdz guess=read ub97d
 ----------------------------------------
 ------------------------
 theory_abbreviation b97d
 ------------------------
 Symbolic Z-matrix:
 Charge =  0 Multiplicity = 6

 SCF Done:  E(UB97D) =  -3034.58908014     A.U. after   17 cycles

 ----------------------------------------------------------------
 #t pop=none jul-cc-pvdz guess=read ub97d empiricaldispersion=gd3
 ----------------------------------------------------------------
 -------------------------
 theory_abbreviation b97d3
 -------------------------
 Symbolic Z-matrix:
 Charge =  0 Multiplicity = 6

 SCF Done:  E(UB97D) =  -3034.59029286     A.U. after    1 cycles
 SCF Done:  E(UBHandHLYP) =  -3033.97555049     A.U. after   17 cycles
 SCF Done:  E(UBHandH) =  -3026.31767553     A.U. after   16 cycles
 SCF Done:  E(ULC-wPBE) =  -3033.45791202     A.U. after   19 cycles
 SCF Done:  E(UB-P86) =  -3034.64035202     A.U. after   17 cycles
 SCF Done:  E(UmPW1LYP) =  -3034.05415129     A.U. after   16 cycles
 SCF Done:  E(UmPW1PBE) =  -3033.89506669     A.U. after   16 cycles
 SCF Done:  E(UmPW3PBE) =  -3033.66812560     A.U. after   13 cycles
 SCF Done:  E(UM11) =  -3033.81604693     A.U. after   19 cycles
 SCF Done:  E(UN12SX) =  -3033.25939433     A.U. after   16 cycles
 SCF Done:  E(UMN12SX) =  -3033.65712350     A.U. after   17 cycles
 SCF Done:  E(UB1B95) =  -3034.38895174     A.U. after   15 cycles
 Normal termination of Gaussian 16 at Tue Feb 11 22:53:29 2020.
 SCF Done:  E(UB3PW91) =  -3033.98398554     A.U. after   15 cycles
 Normal termination of Gaussian 16 at Tue Feb 11 23:08:35 2020.
 SCF Done:  E(UM06L) =  -3034.20125390     A.U. after   16 cycles
 Normal termination of Gaussian 16 at Tue Feb 11 23:26:03 2020.
 Gaussian 16:  ES64L-G16RevA.03 25-Dec-2016

                         Standard orientation:
 ---------------------------------------------------------------------
 Center     Atomic      Atomic             Coordinates (Angstroms)
 Number     Number       Type             X           Y           Z
 ---------------------------------------------------------------------
      1          8           0       -0.296143   -0.205570   -0.483374
      2          6           0       -1.126775   -1.149893   -0.225881
      3          6           0       -2.683256   -0.192007    0.906517
      4          6           0       -3.085159    0.669132   -0.084870
      5          6           0       -4.183551    0.325745   -1.040220
      6         26           0        1.547490    0.176613   -0.102178
      7         17           0        1.874067    2.091684   -1.104709
      8          6           0       -2.384922    1.968788   -0.290524
      9         17           0        2.556947   -1.571309   -0.965769
     10         17           0        1.820851    0.293748    2.077823
     11          1           0       -3.289679   -1.086640    1.041920
     12          1           0       -2.882611    2.599322   -1.030866
     13          1           0       -2.267592    2.528361    0.643174
     14          1           0       -1.363899    1.750007   -0.647766
     15          1           0       -5.014322    1.027737   -0.882218
     16          1           0       -3.866929    0.459548   -2.082236
     17          1           0       -4.565408   -0.688559   -0.904084
     18          6           0       -1.926324    0.301108    2.121418
     19          1           0       -2.496162    1.093795    2.620942
     20          1           0       -1.775490   -0.499191    2.847677
     21          1           0       -0.946040    0.710748    1.866718
     22          6           0       -0.748238   -2.148648    0.849224
     23          1           0       -1.590244   -2.767649    1.165155
     24          1           0        0.006038   -2.799813    0.385572
     25          1           0       -0.278276   -1.669889    1.707262
     26          6           0       -1.840271   -1.733694   -1.424308
     27          1           0       -1.129966   -2.428141   -1.891994
     28          1           0       -2.735692   -2.295722   -1.150429
     29          1           0       -2.080064   -0.964577   -2.158223
 ---------------------------------------------------------------------

 SCF Done:  E(UB97D3) =  -3034.62544752     A.U. after   15 cycles
 Normal termination of Gaussian 16 at Tue Feb 11 23:37:44 2020.
