 Gaussian 16, Revision A.03,

 --------------------------------
 #t pop=none jul-cc-pvdz upbe1pbe
 --------------------------------
 ------------------------
 theory_abbreviation pbe0
 ------------------------
 Symbolic Z-matrix:
 Charge =  0 Multiplicity = 6

 SCF Done:  E(UPBE1PBE) =  -3033.13993640     A.U. after   20 cycles
 Normal termination of Gaussian 16 at Wed Feb 12 15:26:40 2020.

 ---------------------------------------------------------------------
 #t pop=none jul-cc-pvdz guess=read upbe1pbe empiricaldispersion=gd3bj
 ---------------------------------------------------------------------
 -----------------------------
 theory_abbreviation pbe0_d3bj
 -----------------------------
 Symbolic Z-matrix:
 Charge =  0 Multiplicity = 6

 SCF Done:  E(UPBE1PBE) =  -3033.17579177     A.U. after    1 cycles
 Normal termination of Gaussian 16 at Wed Feb 12 15:27:45 2020.

 -----------------------------------------
 #t pop=none jul-cc-pvdz guess=read ub3lyp
 -----------------------------------------
 -------------------------
 theory_abbreviation b3lyp
 -------------------------
 Symbolic Z-matrix:
 Charge =  0 Multiplicity = 6

 SCF Done:  E(UB3LYP) =  -3034.35893850     A.U. after   13 cycles
 Normal termination of Gaussian 16 at Wed Feb 12 15:40:33 2020.

 -------------------------------------------------------------------
 #t pop=none jul-cc-pvdz guess=read ub3lyp empiricaldispersion=gd3bj
 -------------------------------------------------------------------
 ------------------------------
 theory_abbreviation b3lyp_d3bj
 ------------------------------
 Symbolic Z-matrix:
 Charge =  0 Multiplicity = 6

 SCF Done:  E(UB3LYP) =  -3034.42517766     A.U. after    1 cycles
 Normal termination of Gaussian 16 at Wed Feb 12 15:41:39 2020.

 ----------------------------------------
 #t pop=none jul-cc-pvdz guess=read ub97d
 ----------------------------------------
 ------------------------
 theory_abbreviation b97d
 ------------------------
 Symbolic Z-matrix:
 Charge =  0 Multiplicity = 6

 SCF Done:  E(UB97D) =  -3034.60792543     A.U. after   16 cycles

 ----------------------------------------------------------------
 #t pop=none jul-cc-pvdz guess=read ub97d empiricaldispersion=gd3
 ----------------------------------------------------------------
 -------------------------
 theory_abbreviation b97d3
 -------------------------
 Symbolic Z-matrix:
 Charge =  0 Multiplicity = 6

 SCF Done:  E(UB97D) =  -3034.60961402     A.U. after    1 cycles
 SCF Done:  E(UBHandHLYP) =  -3034.00086051     A.U. after   18 cycles
 SCF Done:  E(UBHandH) =  -3026.33497942     A.U. after   14 cycles
 SCF Done:  E(ULC-wPBE) =  -3033.48101744     A.U. after   17 cycles
 SCF Done:  E(UB-P86) =  -3034.65663963     A.U. after   17 cycles
 SCF Done:  E(UmPW1LYP) =  -3034.07730431     A.U. after   13 cycles
 SCF Done:  E(UmPW1PBE) =  -3033.91444997     A.U. after   14 cycles
 SCF Done:  E(UmPW3PBE) =  -3033.68744477     A.U. after   13 cycles
 SCF Done:  E(UM11) =  -3033.83837908     A.U. after   16 cycles
 SCF Done:  E(UN12SX) =  -3033.27891794     A.U. after   16 cycles
 SCF Done:  E(UMN12SX) =  -3033.68115315     A.U. after   16 cycles
 SCF Done:  E(UB1B95) =  -3034.41065775     A.U. after   14 cycles
 Normal termination of Gaussian 16 at Wed Feb 12 23:01:10 2020.
 SCF Done:  E(UB3PW91) =  -3034.00382157     A.U. after   13 cycles
 Normal termination of Gaussian 16 at Wed Feb 12 23:13:54 2020.
 SCF Done:  E(UM06L) =  -3034.22530483     A.U. after   17 cycles
 Normal termination of Gaussian 16 at Wed Feb 12 23:32:03 2020.
 Gaussian 16:  ES64L-G16RevA.03 25-Dec-2016

                         Standard orientation:
 ---------------------------------------------------------------------
 Center     Atomic      Atomic             Coordinates (Angstroms)
 Number     Number       Type             X           Y           Z
 ---------------------------------------------------------------------
      1          8           0        0.142266    0.454239   -0.899956
      2          6           0        0.900435    1.423106   -0.680205
      3          6           0        3.148786    0.087824    0.573565
      4          6           0        2.717536   -0.920353   -0.208208
      5          6           0        3.194955   -1.067050   -1.629197
      6         26           0       -1.499005   -0.181937    0.016114
      7         17           0       -2.056062   -1.982642   -1.062464
      8          6           0        1.780056   -2.004837    0.241348
      9         17           0       -2.795343    1.555013   -0.277536
     10         17           0       -1.022612   -0.505124    2.131211
     11          1           0        3.871246    0.780424    0.138754
     12          1           0        2.288223   -2.977774    0.202586
     13          1           0        1.396877   -1.863411    1.251688
     14          1           0        0.924461   -2.081954   -0.441973
     15          1           0        3.724400   -2.020726   -1.754814
     16          1           0        2.347006   -1.093269   -2.326710
     17          1           0        3.875437   -0.263593   -1.926744
     18          6           0        2.889559    0.273683    2.043812
     19          1           0        3.714551   -0.150200    2.632927
     20          1           0        2.834371    1.335220    2.308657
     21          1           0        1.965899   -0.204329    2.378757
     22          6           0        0.756284    2.254869    0.553658
     23          1           0        1.634009    2.876763    0.733376
     24          1           0       -0.112795    2.909219    0.389070
     25          1           0        0.534672    1.638138    1.425804
     26          6           0        1.756418    1.925289   -1.800121
     27          1           0        1.230205    2.788621   -2.233656
     28          1           0        2.725443    2.276405   -1.441675
     29          1           0        1.876127    1.168538   -2.573858
 ---------------------------------------------------------------------

 SCF Done:  E(UB97D3) =  -3034.64422628     A.U. after   16 cycles
 Normal termination of Gaussian 16 at Wed Feb 12 23:44:24 2020.
