 Gaussian 16, Revision A.03,

 --------------------------------
 #t pop=none jul-cc-pvdz upbe1pbe
 --------------------------------
 ------------------------
 theory_abbreviation pbe0
 ------------------------
 Symbolic Z-matrix:
 Charge =  0 Multiplicity = 6

 SCF Done:  E(UPBE1PBE) =  -3033.12565613     A.U. after   21 cycles
 Normal termination of Gaussian 16 at Tue Feb 11 13:59:42 2020.

 ---------------------------------------------------------------------
 #t pop=none jul-cc-pvdz guess=read upbe1pbe empiricaldispersion=gd3bj
 ---------------------------------------------------------------------
 -----------------------------
 theory_abbreviation pbe0_d3bj
 -----------------------------
 Symbolic Z-matrix:
 Charge =  0 Multiplicity = 6

 SCF Done:  E(UPBE1PBE) =  -3033.16284080     A.U. after    1 cycles
 Normal termination of Gaussian 16 at Tue Feb 11 14:00:52 2020.

 -----------------------------------------
 #t pop=none jul-cc-pvdz guess=read ub3lyp
 -----------------------------------------
 -------------------------
 theory_abbreviation b3lyp
 -------------------------
 Symbolic Z-matrix:
 Charge =  0 Multiplicity = 6

 SCF Done:  E(UB3LYP) =  -3034.34227635     A.U. after   13 cycles
 Normal termination of Gaussian 16 at Tue Feb 11 14:14:32 2020.

 -------------------------------------------------------------------
 #t pop=none jul-cc-pvdz guess=read ub3lyp empiricaldispersion=gd3bj
 -------------------------------------------------------------------
 ------------------------------
 theory_abbreviation b3lyp_d3bj
 ------------------------------
 Symbolic Z-matrix:
 Charge =  0 Multiplicity = 6

 SCF Done:  E(UB3LYP) =  -3034.41142100     A.U. after    1 cycles
 Normal termination of Gaussian 16 at Tue Feb 11 14:15:42 2020.

 ----------------------------------------
 #t pop=none jul-cc-pvdz guess=read ub97d
 ----------------------------------------
 ------------------------
 theory_abbreviation b97d
 ------------------------
 Symbolic Z-matrix:
 Charge =  0 Multiplicity = 6

 SCF Done:  E(UB97D) =  -3034.59554361     A.U. after   15 cycles

 ----------------------------------------------------------------
 #t pop=none jul-cc-pvdz guess=read ub97d empiricaldispersion=gd3
 ----------------------------------------------------------------
 -------------------------
 theory_abbreviation b97d3
 -------------------------
 Symbolic Z-matrix:
 Charge =  0 Multiplicity = 6

 SCF Done:  E(UB97D) =  -3034.59660430     A.U. after    1 cycles
 SCF Done:  E(UBHandHLYP) =  -3033.98291522     A.U. after   18 cycles
 SCF Done:  E(UBHandH) =  -3026.32398522     A.U. after   16 cycles
 SCF Done:  E(ULC-wPBE) =  -3033.46540456     A.U. after   19 cycles
 SCF Done:  E(UB-P86) =  -3034.64591748     A.U. after   16 cycles
 SCF Done:  E(UmPW1LYP) =  -3034.06038589     A.U. after   14 cycles
 SCF Done:  E(UmPW1PBE) =  -3033.90009352     A.U. after   14 cycles
 SCF Done:  E(UmPW3PBE) =  -3033.67307848     A.U. after   13 cycles
 SCF Done:  E(UM11) =  -3033.82304041     A.U. after   18 cycles
 SCF Done:  E(UN12SX) =  -3033.26457907     A.U. after   18 cycles
 SCF Done:  E(UMN12SX) =  -3033.66519711     A.U. after   16 cycles
 SCF Done:  E(UB1B95) =  -3034.39532378     A.U. after   14 cycles
 Normal termination of Gaussian 16 at Tue Feb 11 22:50:15 2020.
 SCF Done:  E(UB3PW91) =  -3033.98893767     A.U. after   15 cycles
 Normal termination of Gaussian 16 at Tue Feb 11 23:06:45 2020.
 SCF Done:  E(UM06L) =  -3034.21016191     A.U. after   17 cycles
 Normal termination of Gaussian 16 at Tue Feb 11 23:25:34 2020.
 Gaussian 16:  ES64L-G16RevA.03 25-Dec-2016

                         Standard orientation:
 ---------------------------------------------------------------------
 Center     Atomic      Atomic             Coordinates (Angstroms)
 Number     Number       Type             X           Y           Z
 ---------------------------------------------------------------------
      1          8           0       -0.241759   -0.286885   -0.817880
      2          6           0       -1.098425   -1.207677   -0.639784
      3          6           0       -2.875479   -0.252779    0.565519
      4          6           0       -2.660862    0.919622   -0.088314
      5          6           0       -3.291799    1.211669   -1.417724
      6         26           0        1.467977    0.152509   -0.013608
      7         17           0        2.025168    2.042865   -0.949863
      8          6           0       -1.751373    1.990576    0.422276
      9         17           0        2.696637   -1.581005   -0.543687
     10         17           0        1.159729    0.320166    2.160772
     11          1           0       -3.607372   -0.930749    0.128802
     12          1           0       -2.282726    2.949922    0.461702
     13          1           0       -1.332025    1.781592    1.405570
     14          1           0       -0.919129    2.129160   -0.281915
     15          1           0       -3.885612    2.131969   -1.345098
     16          1           0       -2.523995    1.401194   -2.179859
     17          1           0       -3.951216    0.410243   -1.759202
     18          6           0       -2.579811   -0.480086    2.029860
     19          1           0       -3.323173    0.051467    2.637930
     20          1           0       -2.653391   -1.537984    2.292343
     21          1           0       -1.592625   -0.124275    2.331912
     22          6           0       -0.837643   -2.263080    0.400156
     23          1           0       -1.712714   -2.884476    0.594592
     24          1           0       -0.047673   -2.897561   -0.027580
     25          1           0       -0.448353   -1.843803    1.327292
     26          6           0       -1.877933   -1.635850   -1.856865
     27          1           0       -1.220614   -2.332241   -2.396272
     28          1           0       -2.797761   -2.166632   -1.607238
     29          1           0       -2.081075   -0.796771   -2.519662
 ---------------------------------------------------------------------

 SCF Done:  E(UB97D3) =  -3034.63182853     A.U. after   16 cycles
 Normal termination of Gaussian 16 at Tue Feb 11 23:38:06 2020.
