 Gaussian 16, Revision A.03,

 --------------------------------
 #t pop=none jul-cc-pvdz upbe1pbe
 --------------------------------
 ------------------------
 theory_abbreviation pbe0
 ------------------------
 Symbolic Z-matrix:
 Charge =  0 Multiplicity = 6

 SCF Done:  E(UPBE1PBE) =  -3033.10456341     A.U. after   20 cycles
 Normal termination of Gaussian 16 at Tue Feb 11 14:00:22 2020.

 ---------------------------------------------------------------------
 #t pop=none jul-cc-pvdz guess=read upbe1pbe empiricaldispersion=gd3bj
 ---------------------------------------------------------------------
 -----------------------------
 theory_abbreviation pbe0_d3bj
 -----------------------------
 Symbolic Z-matrix:
 Charge =  0 Multiplicity = 6

 SCF Done:  E(UPBE1PBE) =  -3033.14230901     A.U. after    1 cycles
 Normal termination of Gaussian 16 at Tue Feb 11 14:01:34 2020.

 -----------------------------------------
 #t pop=none jul-cc-pvdz guess=read ub3lyp
 -----------------------------------------
 -------------------------
 theory_abbreviation b3lyp
 -------------------------
 Symbolic Z-matrix:
 Charge =  0 Multiplicity = 6

 SCF Done:  E(UB3LYP) =  -3034.31804660     A.U. after   13 cycles
 Normal termination of Gaussian 16 at Tue Feb 11 14:15:42 2020.

 -------------------------------------------------------------------
 #t pop=none jul-cc-pvdz guess=read ub3lyp empiricaldispersion=gd3bj
 -------------------------------------------------------------------
 ------------------------------
 theory_abbreviation b3lyp_d3bj
 ------------------------------
 Symbolic Z-matrix:
 Charge =  0 Multiplicity = 6

 SCF Done:  E(UB3LYP) =  -3034.38839208     A.U. after    1 cycles
 Normal termination of Gaussian 16 at Tue Feb 11 14:16:55 2020.

 ----------------------------------------
 #t pop=none jul-cc-pvdz guess=read ub97d
 ----------------------------------------
 ------------------------
 theory_abbreviation b97d
 ------------------------
 Symbolic Z-matrix:
 Charge =  0 Multiplicity = 6

 SCF Done:  E(UB97D) =  -3034.57087567     A.U. after   15 cycles

 ----------------------------------------------------------------
 #t pop=none jul-cc-pvdz guess=read ub97d empiricaldispersion=gd3
 ----------------------------------------------------------------
 -------------------------
 theory_abbreviation b97d3
 -------------------------
 Symbolic Z-matrix:
 Charge =  0 Multiplicity = 6

 SCF Done:  E(UB97D) =  -3034.57211697     A.U. after    1 cycles
 SCF Done:  E(UBHandHLYP) =  -3033.96040178     A.U. after   17 cycles
 SCF Done:  E(UBHandH) =  -3026.30712883     A.U. after   14 cycles
 SCF Done:  E(ULC-wPBE) =  -3033.44503744     A.U. after   18 cycles
 SCF Done:  E(UB-P86) =  -3034.62438082     A.U. after   17 cycles
 SCF Done:  E(UmPW1LYP) =  -3034.03627262     A.U. after   14 cycles
 SCF Done:  E(UmPW1PBE) =  -3033.87901639     A.U. after   14 cycles
 SCF Done:  E(UmPW3PBE) =  -3033.65143392     A.U. after   13 cycles
 SCF Done:  E(UM11) =  -3033.80246543     A.U. after   19 cycles
 SCF Done:  E(UN12SX) =  -3033.24427538     A.U. after   17 cycles
 SCF Done:  E(UMN12SX) =  -3033.64348841     A.U. after   16 cycles
 SCF Done:  E(UB1B95) =  -3034.37384468     A.U. after   16 cycles
 Normal termination of Gaussian 16 at Tue Feb 11 23:01:22 2020.
 SCF Done:  E(UB3PW91) =  -3033.96685335     A.U. after   13 cycles
 Normal termination of Gaussian 16 at Tue Feb 11 23:15:25 2020.
 SCF Done:  E(UM06L) =  -3034.18547778     A.U. after   17 cycles
 Normal termination of Gaussian 16 at Tue Feb 11 23:34:45 2020.
 Gaussian 16:  ES64L-G16RevA.03 25-Dec-2016

                         Standard orientation:
 ---------------------------------------------------------------------
 Center     Atomic      Atomic             Coordinates (Angstroms)
 Number     Number       Type             X           Y           Z
 ---------------------------------------------------------------------
      1          8           0       -0.332035   -0.116389   -0.583326
      2          6           0       -1.260897   -1.033358   -0.514483
      3          6           0       -3.047067   -0.049721   -0.012436
      4          6           0       -2.265177    1.068898   -0.198542
      5          6           0       -2.149985    1.734834   -1.528514
      6         26           0        1.439317    0.058629    0.046580
      7         17           0        2.015078    2.022395   -0.758544
      8          6           0       -1.579133    1.764038    0.930591
      9         17           0        2.471698   -1.705374   -0.766691
     10         17           0        1.363586    0.026107    2.257020
     11          1           0       -3.644775   -0.362327   -0.865582
     12          1           0       -2.297885    2.476911    1.362308
     13          1           0       -1.265147    1.090377    1.728623
     14          1           0       -0.711282    2.329251    0.584090
     15          1           0       -2.573231    2.744581   -1.432321
     16          1           0       -1.097446    1.853272   -1.804048
     17          1           0       -2.693647    1.213321   -2.318717
     18          6           0       -3.583834   -0.491491    1.327648
     19          1           0       -4.492341    0.079298    1.559794
     20          1           0       -3.863438   -1.548361    1.318016
     21          1           0       -2.879258   -0.332550    2.146433
     22          6           0       -1.151605   -2.021102    0.619680
     23          1           0       -2.010651   -2.689643    0.686454
     24          1           0       -0.261647   -2.624632    0.389352
     25          1           0       -0.965191   -1.530213    1.575249
     26          6           0       -1.672990   -1.610322   -1.849978
     27          1           0       -0.813588   -2.203197   -2.191818
     28          1           0       -2.544668   -2.264248   -1.774942
     29          1           0       -1.843792   -0.828906   -2.591507
 ---------------------------------------------------------------------

 SCF Done:  E(UB97D3) =  -3034.60774988     A.U. after   15 cycles
 Normal termination of Gaussian 16 at Tue Feb 11 23:47:08 2020.
