 Gaussian 16, Revision A.03,
 Gaussian 16:  ES64L-G16RevA.03 25-Dec-2016

 ----------------------------------------------------------------------
 #p opt=(calcfc,ts,noeigentest,maxstep=5) freq=noraman b3lyp scrf=(solv
 ent=dichloroethane,pcm) pop=none empiricaldispersion=gd3bj jul-cc-pvdz
 ----------------------------------------------------------------------

 -----
 title
 -----
 Symbolic Z-matrix:
 Charge =  0 Multiplicity = 6

 SCF Done:  E(UB3LYP) =  -3684.01823641     A.U. after   24 cycles
 Optimization completed.
    -- Stationary point found.
 Normal termination of Gaussian 16 at Wed Jul 14 03:26:21 2021.

 ----------------------------------------------------------------------
 #P Geom=AllCheck Guess=TCheck SCRF=Check GenChk UB3LYP/Jul-CC-pVDZ Fre
 q
 ----------------------------------------------------------------------

 Structure from the checkpoint file:  "/scratch/kwaneu.3017205.bmbhpcps002/Gau-11315.chk"
 -----
 title
 -----
 Charge =  0 Multiplicity = 6

                         Standard orientation:
 ---------------------------------------------------------------------
 Center     Atomic      Atomic             Coordinates (Angstroms)
 Number     Number       Type             X           Y           Z
 ---------------------------------------------------------------------
      1          6           0        1.821297    2.438944    0.475021
      2          6           0        0.975412    1.421081    0.007142
      3          6           0        0.501566    1.479140   -1.307294
      4          6           0        0.871721    2.536430   -2.144638
      5          6           0        1.711783    3.547871   -1.675192
      6          6           0        2.187414    3.494700   -0.359148
      7          6           0        0.549783    0.313696    0.946891
      8          6           0        1.711433   -0.533778    1.578778
      9          6           0        1.702990   -0.201191    3.075778
     10          6           0        0.217210    0.023702    3.384149
     11          6           0       -0.264261    0.851606    2.184638
     12          6           0       -1.647126    0.570867    1.694995
     13          8           0       -0.442727   -0.511807    0.330434
     14         26           0       -0.872393   -2.097018   -0.521471
     15         17           0        0.618863   -3.739291   -0.218777
     16         17           0       -1.250824   -1.667090   -2.692296
     17         17           0       -2.821345   -2.674018    0.473420
     18          1           0       -0.157354    0.699039   -1.677168
     19          1           0        0.494774    2.567688   -3.167395
     20          1           0        1.996207    4.374321   -2.327287
     21          1           0        2.845157    4.278139    0.018135
     22          1           0        2.198959    2.412650    1.496733
     23          1           0        1.418034   -1.579867    1.428813
     24          6           0        3.048029   -0.358470    0.893041
     25          1           0        2.149498   -1.001061    3.677623
     26          1           0        2.283160    0.713326    3.259017
     27          1           0       -0.311802   -0.939413    3.415028
     28          1           0        0.044034    0.535224    4.337732
     29          1           0       -0.084509    1.917926    2.347247
     30          8           0        3.004975   -0.854689   -0.351588
     31          8           0        4.032354    0.149176    1.397401
     32          6           0        4.196227   -0.709654   -1.176026
     33          6           0        4.220701    0.642289   -1.864213
     34          1           0        5.077769   -0.864451   -0.543502
     35          1           0        4.116600   -1.531266   -1.896487
     36          1           0        5.093504    0.690067   -2.531136
     37          1           0        3.313182    0.791220   -2.462637
     38          1           0        4.293848    1.456790   -1.133737
     39          6           0       -2.445556    1.451556    0.931151
     40          6           0       -3.723714    0.997912    0.503014
     41          6           0       -1.993718    2.740743    0.536849
     42          6           0       -4.516421    1.800944   -0.301080
     43          1           0       -4.053728    0.001163    0.794745
     44          6           0       -2.795287    3.536952   -0.266346
     45          1           0       -1.023824    3.105397    0.864321
     46          6           0       -4.049810    3.067611   -0.686271
     47          1           0       -5.491816    1.451467   -0.636752
     48          1           0       -2.452670    4.524262   -0.572666
     49          1           0       -4.673298    3.699252   -1.320230
     50          1           0       -2.122164   -0.351774    2.030527
 ---------------------------------------------------------------------

 SCF Done:  E(UB3LYP) =  -3684.01823641     A.U. after    1 cycles

 Isotropic polarizability for W=    0.000000      475.86 Bohr**3.
 End of Minotr F.D. properties file   721 does not exist.

 ******    1 imaginary frequencies (negative Signs) ******

                      1                      2                      3
                      A                      A                      A
 Frequencies --   -189.7345                24.0735                36.1968
 Red. masses --     11.0383                 5.4682                 4.9296
 Frc consts  --      0.2341                 0.0019                 0.0038
 IR Inten    --    719.4378                 3.1636                 0.5383

                      4                      5                      6
                      A                      A                      A
 Frequencies --     39.8511                43.6820                47.5074
 Red. masses --      3.5195                 7.1166                15.4878
 Frc consts  --      0.0033                 0.0080                 0.0206
 IR Inten    --      1.4560                 3.1567                 0.2894

                      7                      8                      9
                      A                      A                      A
 Frequencies --     56.5979                70.8891                75.5851
 Red. masses --      6.9719                 4.8797                 4.2503
 Frc consts  --      0.0132                 0.0144                 0.0143
 IR Inten    --      1.8802                 0.6184                 0.3037

                     10                     11                     12
                      A                      A                      A
 Frequencies --     82.1277                85.1084                93.9830
 Red. masses --      3.7879                 5.2070                19.5212
 Frc consts  --      0.0151                 0.0222                 0.1016
 IR Inten    --      0.8931                 0.7667                 4.5521

                     13                     14                     15
                      A                      A                      A
 Frequencies --    104.2974               105.4454               113.8313
 Red. masses --     11.1223                 5.5743                 6.5464
 Frc consts  --      0.0713                 0.0365                 0.0500
 IR Inten    --      5.1235                 9.0700                 9.1889

                     16                     17                     18
                      A                      A                      A
 Frequencies --    116.5729               126.2966               132.6973
 Red. masses --      9.9964                18.0606                 7.9877
 Frc consts  --      0.0800                 0.1697                 0.0829
 IR Inten    --      0.4766                 2.6169                10.2448

                     19                     20                     21
                      A                      A                      A
 Frequencies --    155.1386               160.3581               196.7985
 Red. masses --      4.3180                 4.0221                 3.8188
 Frc consts  --      0.0612                 0.0609                 0.0871
 IR Inten    --      0.5666                16.5283                 0.6117

                     22                     23                     24
                      A                      A                      A
 Frequencies --    212.2032               227.0821               241.6360
 Red. masses --      1.9287                 2.9089                 3.5583
 Frc consts  --      0.0512                 0.0884                 0.1224
 IR Inten    --     26.5456                 4.1190                64.1267

                     25                     26                     27
                      A                      A                      A
 Frequencies --    256.1959               270.2402               300.7169
 Red. masses --      3.2946                 3.5179                 5.9048
 Frc consts  --      0.1274                 0.1514                 0.3146
 IR Inten    --     11.1965                38.9027                56.9459

                     28                     29                     30
                      A                      A                      A
 Frequencies --    326.3425               336.2014               343.6123
 Red. masses --      5.6089                 6.1794                 4.8727
 Frc consts  --      0.3519                 0.4115                 0.3390
 IR Inten    --     34.0797                62.1431                26.9826

                     31                     32                     33
                      A                      A                      A
 Frequencies --    349.4081               357.9039               367.2384
 Red. masses --      7.9155                 7.6669                38.7717
 Frc consts  --      0.5694                 0.5786                 3.0808
 IR Inten    --     93.4339                72.0926               171.4077

                     34                     35                     36
                      A                      A                      A
 Frequencies --    388.2005               398.8768               409.7650
 Red. masses --      4.0294                 3.1260                 2.9278
 Frc consts  --      0.3578                 0.2930                 0.2896
 IR Inten    --      8.1844                 3.5270                 1.4609

                     37                     38                     39
                      A                      A                      A
 Frequencies --    417.4829               457.4086               487.7944
 Red. masses --      3.6720                 3.6945                 3.4315
 Frc consts  --      0.3771                 0.4554                 0.4811
 IR Inten    --     10.5392                 4.8612                10.9453

                     40                     41                     42
                      A                      A                      A
 Frequencies --    493.9949               543.3510               569.4392
 Red. masses --      3.7144                 3.3419                 2.7957
 Frc consts  --      0.5340                 0.5813                 0.5341
 IR Inten    --     66.6192                27.3789                11.6793

                     43                     44                     45
                      A                      A                      A
 Frequencies --    599.3830               616.0777               628.7732
 Red. masses --      5.4399                 5.6788                 4.9175
 Frc consts  --      1.1515                 1.2699                 1.1455
 IR Inten    --     14.4800                18.3755                 7.6449

                     46                     47                     48
                      A                      A                      A
 Frequencies --    629.3367               651.0576               671.2740
 Red. masses --      5.2183                 3.6467                 1.6094
 Frc consts  --      1.2177                 0.9107                 0.4273
 IR Inten    --      6.9079                 1.1961                80.6931

                     49                     50                     51
                      A                      A                      A
 Frequencies --    706.0498               715.1259               753.3298
 Red. masses --      1.6873                 3.3635                 2.6242
 Frc consts  --      0.4956                 1.0135                 0.8774
 IR Inten    --     61.8621                59.3142                43.5691

                     52                     53                     54
                      A                      A                      A
 Frequencies --    758.7790               778.5115               782.7182
 Red. masses --      2.3229                 1.8815                 2.9340
 Frc consts  --      0.7880                 0.6719                 1.0590
 IR Inten    --     23.0346                35.1915                28.4409

                     55                     56                     57
                      A                      A                      A
 Frequencies --    814.5690               834.3330               850.3744
 Red. masses --      1.6029                 1.2710                 1.2860
 Frc consts  --      0.6266                 0.5213                 0.5479
 IR Inten    --      5.8860                 2.4906                 0.8228

                     58                     59                     60
                      A                      A                      A
 Frequencies --    851.9826               861.6854               885.4202
 Red. masses --      3.3982                 2.8912                 2.0736
 Frc consts  --      1.4533                 1.2648                 0.9578
 IR Inten    --      9.9687                16.2115                33.3849

                     61                     62                     63
                      A                      A                      A
 Frequencies --    913.6740               925.8643               954.0834
 Red. masses --      2.0443                 1.6611                 1.7554
 Frc consts  --      1.0055                 0.8390                 0.9415
 IR Inten    --      6.8808                 6.0012                18.2835

                     64                     65                     66
                      A                      A                      A
 Frequencies --    959.4871               968.5479               980.9735
 Red. masses --      1.9694                 2.4874                 1.7154
 Frc consts  --      1.0682                 1.3748                 0.9726
 IR Inten    --     10.2099                 7.4275                47.7503

                     67                     68                     69
                      A                      A                      A
 Frequencies --    986.7645               993.9175               999.4000
 Red. masses --      1.3740                 1.6811                 3.2396
 Frc consts  --      0.7882                 0.9785                 1.9064
 IR Inten    --      0.3473                12.1568                42.2749

                     70                     71                     72
                      A                      A                      A
 Frequencies --   1002.3132              1003.9687              1012.7261
 Red. masses --      1.9948                 1.5497                 4.2901
 Frc consts  --      1.1808                 0.9203                 2.5924
 IR Inten    --     18.7269                26.6573                 7.9029

                     73                     74                     75
                      A                      A                      A
 Frequencies --   1017.1039              1023.1328              1040.3555
 Red. masses --      2.5783                 1.3749                 2.8636
 Frc consts  --      1.5715                 0.8480                 1.8261
 IR Inten    --     33.6027                 0.7152               148.8074

                     76                     77                     78
                      A                      A                      A
 Frequencies --   1041.1488              1050.1706              1066.7323
 Red. masses --      2.1856                 2.2688                 3.5210
 Frc consts  --      1.3959                 1.4742                 2.3606
 IR Inten    --      1.6191                16.9264               201.0328

                     79                     80                     81
                      A                      A                      A
 Frequencies --   1075.7288              1100.2113              1109.3543
 Red. masses --      3.9155                 1.9043                 1.7763
 Frc consts  --      2.6696                 1.3581                 1.2880
 IR Inten    --     23.8699                 9.5116                 7.9224

                     82                     83                     84
                      A                      A                      A
 Frequencies --   1112.0769              1124.8558              1133.7903
 Red. masses --      1.9336                 2.6443                 2.0515
 Frc consts  --      1.4089                 1.9713                 1.5538
 IR Inten    --     36.1940                36.2952                 3.2552

                     85                     86                     87
                      A                      A                      A
 Frequencies --   1167.5170              1168.8127              1178.0648
 Red. masses --      1.5686                 1.1474                 1.0871
 Frc consts  --      1.2598                 0.9235                 0.8889
 IR Inten    --     62.2693                18.2891                11.6467

                     88                     89                     90
                      A                      A                      A
 Frequencies --   1181.3616              1183.6664              1197.3380
 Red. masses --      1.3451                 1.6747                 1.1305
 Frc consts  --      1.1061                 1.3824                 0.9549
 IR Inten    --     11.5793                 8.7330                 6.3567

                     91                     92                     93
                      A                      A                      A
 Frequencies --   1197.4751              1211.5385              1229.6092
 Red. masses --      1.1595                 2.1014                 1.9116
 Frc consts  --      0.9796                 1.8174                 1.7028
 IR Inten    --     68.4002               137.4497               162.1178

                     94                     95                     96
                      A                      A                      A
 Frequencies --   1249.1814              1263.7262              1302.8227
 Red. masses --      1.8447                 1.4881                 1.3649
 Frc consts  --      1.6960                 1.4002                 1.3650
 IR Inten    --     27.5950                45.0977                39.5191

                     97                     98                     99
                      A                      A                      A
 Frequencies --   1305.9301              1312.2970              1316.9738
 Red. masses --      1.5632                 1.2045                 1.4350
 Frc consts  --      1.5708                 1.2221                 1.4664
 IR Inten    --     58.6818                28.1816               107.5850

                    100                    101                    102
                      A                      A                      A
 Frequencies --   1336.3479              1350.6751              1357.3530
 Red. masses --      1.6499                 1.4785                 1.4109
 Frc consts  --      1.7360                 1.5891                 1.5316
 IR Inten    --      4.4107                87.8255                26.5289

                    103                    104                    105
                      A                      A                      A
 Frequencies --   1360.6838              1367.1249              1388.6625
 Red. masses --      3.5125                 1.4371                 1.4861
 Frc consts  --      3.8316                 1.5825                 1.6885
 IR Inten    --      5.7158                22.5639                65.6535

                    106                    107                    108
                      A                      A                      A
 Frequencies --   1393.0094              1407.9376              1453.5621
 Red. masses --      5.8750                 1.4936                 2.1647
 Frc consts  --      6.7168                 1.7444                 2.6947
 IR Inten    --     61.2208                27.7187               124.7181

                    109                    110                    111
                      A                      A                      A
 Frequencies --   1469.0572              1470.8272              1471.3022
 Red. masses --      1.2377                 1.1801                 1.4973
 Frc consts  --      1.5737                 1.5042                 1.9097
 IR Inten    --      1.3197                 6.0001                23.3946

                    112                    113                    114
                      A                      A                      A
 Frequencies --   1479.9771              1487.1469              1488.3440
 Red. masses --      1.1002                 1.1549                 1.8405
 Frc consts  --      1.4198                 1.5048                 2.4021
 IR Inten    --     29.0533                70.6061                41.3522

                    115                    116                    117
                      A                      A                      A
 Frequencies --   1492.7951              1521.6016              1537.8890
 Red. masses --      1.1210                 2.2547                 3.1372
 Frc consts  --      1.4719                 3.0757                 4.3716
 IR Inten    --      3.6712                10.4733               215.9917

                    118                    119                    120
                      A                      A                      A
 Frequencies --   1599.8002              1625.5848              1638.4151
 Red. masses --      4.6923                 5.9349                 5.6589
 Frc consts  --      7.0756                 9.2402                 8.9501
 IR Inten    --      4.1480                 0.7475               392.3916

                    121                    122                    123
                      A                      A                      A
 Frequencies --   1646.9626              1745.7311              3045.4297
 Red. masses --      5.8274                11.4648                 1.0367
 Frc consts  --      9.3131                20.5860                 5.6649
 IR Inten    --      3.1368               458.2650                19.6308

                    124                    125                    126
                      A                      A                      A
 Frequencies --   3052.1603              3061.1911              3082.3883
 Red. masses --      1.0653                 1.0635                 1.0741
 Frc consts  --      5.8472                 5.8719                 6.0127
 IR Inten    --     30.7053                28.0516                 7.3563

                    127                    128                    129
                      A                      A                      A
 Frequencies --   3083.2428              3109.5791              3118.8301
 Red. masses --      1.0671                 1.0928                 1.0983
 Frc consts  --      5.9768                 6.2258                 6.2943
 IR Inten    --     38.4904                19.0668                24.0481

                    130                    131                    132
                      A                      A                      A
 Frequencies --   3121.5998              3124.7684              3129.4635
 Red. masses --      1.0991                 1.0996                 1.1047
 Frc consts  --      6.3102                 6.3256                 6.3741
 IR Inten    --     40.1275                41.4636                 4.0137

                    133                    134                    135
                      A                      A                      A
 Frequencies --   3150.5571              3172.6029              3180.7583
 Red. masses --      1.1079                 1.0854                 1.0904
 Frc consts  --      6.4794                 6.4371                 6.4999
 IR Inten    --     30.4192                 0.4842                 3.6678

                    136                    137                    138
                      A                      A                      A
 Frequencies --   3180.9418              3188.0105              3190.2717
 Red. masses --      1.0900                 1.0875                 1.0933
 Frc consts  --      6.4979                 6.5122                 6.5564
 IR Inten    --      5.4466                 1.4703                29.5737

                    139                    140                    141
                      A                      A                      A
 Frequencies --   3198.5342              3199.0517              3205.6626
 Red. masses --      1.0901                 1.0982                 1.0932
 Frc consts  --      6.5707                 6.6219                 6.6186
 IR Inten    --      2.9255                21.5165                 4.3685

                    142                    143                    144
                      A                      A                      A
 Frequencies --   3212.7244              3228.2625              3228.9425
 Red. masses --      1.0983                 1.0944                 1.0921
 Frc consts  --      6.6791                 6.7202                 6.7088
 IR Inten    --     11.1579                 4.3378                 9.5946

 - Thermochemistry -
 -------------------
 Temperature   298.150 Kelvin.  Pressure   1.00000 Atm.
 Atom     1 has atomic number  6 and mass  12.00000

 Molecular mass:   482.99839 amu.
 Principal axes and moments of inertia in atomic units:
                           1         2         3
     Eigenvalues --  ******************************
           X            0.99842  -0.05436  -0.01391
           Y            0.05397   0.99818  -0.02689
           Z            0.01535   0.02609   0.99954
 This molecule is an asymmetric top.
 Rotational symmetry number  1.
 Warning -- assumption of classical behavior for rotation
           may cause significant error
 Rotational temperatures (Kelvin)      0.00764     0.00667     0.00506
 Rotational constants (GHZ):           0.15927     0.13893     0.10550
    1 imaginary frequencies ignored.
 Zero-point vibrational energy    1013412.7 (Joules/Mol)
                                  242.21145 (Kcal/Mol)
 Warning -- explicit consideration of  43 degrees of freedom as
           vibrations may cause significant error
 Vibrational temperatures:     34.64    52.08    57.34    62.85    68.35
          (Kelvin)             81.43   101.99   108.75   118.16   122.45
                              135.22   150.06   151.71   163.78   167.72
                              181.71   190.92   223.21   230.72   283.15
                              305.31   326.72   347.66   368.61   388.82
                              432.66   469.53   483.72   494.38   502.72
                              514.94   528.37   558.53   573.89   589.56
                              600.66   658.11   701.83   710.75   781.76
                              819.30   862.38   886.40   904.66   905.48
                              936.73   965.81  1015.85  1028.91  1083.87
                             1091.71  1120.10  1126.16  1171.98  1200.42
                             1223.50  1225.81  1239.77  1273.92  1314.57
                             1332.11  1372.71  1380.49  1393.52  1411.40
                             1419.73  1430.03  1437.91  1442.11  1444.49
                             1457.09  1463.39  1472.06  1496.84  1497.98
                             1510.96  1534.79  1547.73  1582.96  1596.11
                             1600.03  1618.42  1631.27  1679.80  1681.66
                             1694.97  1699.72  1703.03  1722.70  1722.90
                             1743.13  1769.13  1797.29  1818.22  1874.47
                             1878.94  1888.10  1894.83  1922.71  1943.32
                             1952.93  1957.72  1966.99  1997.98  2004.23
                             2025.71  2091.35  2113.65  2116.19  2116.88
                             2129.36  2139.67  2141.40  2147.80  2189.25
                             2212.68  2301.76  2338.85  2357.31  2369.61
                             2511.72  4381.69  4391.38  4404.37  4434.87
                             4436.10  4473.99  4487.30  4491.29  4495.84
                             4502.60  4532.95  4564.67  4576.40  4576.67
                             4586.84  4590.09  4601.98  4602.72  4612.23
                             4622.39  4644.75  4645.73

 Zero-point correction=                           0.385989 (Hartree/Particle)
 Thermal correction to Energy=                    0.414269
 Thermal correction to Enthalpy=                  0.415213
 Thermal correction to Gibbs Free Energy=         0.323153
 Sum of electronic and zero-point Energies=          -3683.632248
 Sum of electronic and thermal Energies=             -3683.603967
 Sum of electronic and thermal Enthalpies=           -3683.603023
 Sum of electronic and thermal Free Energies=        -3683.695083

                     E (Thermal)             CV                S
                      KCal/Mol        Cal/Mol-Kelvin    Cal/Mol-Kelvin
 Total                  259.958            103.875            193.756
 Electronic               0.000              0.000              3.561
 Translational            0.889              2.981             44.412
 Rotational               0.889              2.981             36.175
 Vibrational            258.180             97.913            109.609
 Vibration     1          0.593              1.985              6.266
 Vibration     2          0.594              1.982              5.457
 Vibration     3          0.594              1.981              5.266
 Vibration     4          0.595              1.980              5.085
 Vibration     5          0.595              1.979              4.919
 Vibration     6          0.596              1.975              4.572
 Vibration     7          0.598              1.968              4.129
 Vibration     8          0.599              1.965              4.002
 Vibration     9          0.600              1.961              3.839
 Vibration    10          0.601              1.960              3.769
 Vibration    11          0.603              1.953              3.575
 Vibration    12          0.605              1.946              3.372
 Vibration    13          0.605              1.945              3.351
 Vibration    14          0.607              1.938              3.203
 Vibration    15          0.608              1.936              3.156
 Vibration    16          0.611              1.927              3.002
 Vibration    17          0.613              1.921              2.907
 Vibration    18          0.620              1.897              2.608
 Vibration    19          0.622              1.891              2.546
 Vibration    20          0.636              1.844              2.163
 Vibration    21          0.643              1.822              2.025
 Vibration    22          0.651              1.800              1.902
 Vibration    23          0.658              1.777              1.791
 Vibration    24          0.666              1.752              1.688
 Vibration    25          0.674              1.728              1.595
 Vibration    26          0.693              1.672              1.413
 Vibration    27          0.710              1.623              1.278
 Vibration    28          0.717              1.603              1.230
 Vibration    29          0.722              1.588              1.195
 Vibration    30          0.727              1.576              1.169
 Vibration    31          0.733              1.559              1.131
 Vibration    32          0.740              1.540              1.091
 Vibration    33          0.756              1.495              1.007
 Vibration    34          0.765              1.473              0.967
 Vibration    35          0.774              1.449              0.927
 Vibration    36          0.781              1.432              0.901
 Vibration    37          0.816              1.345              0.774
 Vibration    38          0.844              1.277              0.689
 Vibration    39          0.850              1.263              0.673
 Vibration    40          0.898              1.154              0.558
 Vibration    41          0.925              1.097              0.505
 Vibration    42          0.957              1.033              0.451
 Vibration    43          0.976              0.998              0.423

 Optimization completed.
    -- Stationary point found.
 Normal termination of Gaussian 16 at Thu Jul 15 01:11:09 2021.
