 Gaussian 16, Revision A.03,
 Gaussian 16:  ES64L-G16RevA.03 25-Dec-2016

 ----------------------------------------------------------------------
 #p opt=(calcfc,ts,noeigentest,maxstep=5) freq=noraman b3lyp scrf=(solv
 ent=dichloroethane,pcm) pop=none empiricaldispersion=gd3bj jul-cc-pvdz
 ----------------------------------------------------------------------

 -----
 title
 -----
 Symbolic Z-matrix:
 Charge =  0 Multiplicity = 6

 SCF Done:  E(UB3LYP) =  -3684.01427059     A.U. after   24 cycles
 Optimization completed.
    -- Stationary point found.
 Normal termination of Gaussian 16 at Tue Jul 13 22:19:47 2021.

 ----------------------------------------------------------------------
 #P Geom=AllCheck Guess=TCheck SCRF=Check GenChk UB3LYP/Jul-CC-pVDZ Fre
 q
 ----------------------------------------------------------------------

 Structure from the checkpoint file:  "/scratch/kwaneu.3017187.bmbhpcps002/Gau-5797.chk"
 -----
 title
 -----
 Charge =  0 Multiplicity = 6

                         Standard orientation:
 ---------------------------------------------------------------------
 Center     Atomic      Atomic             Coordinates (Angstroms)
 Number     Number       Type             X           Y           Z
 ---------------------------------------------------------------------
      1          6           0       -2.245367    1.880706    0.011448
      2          6           0       -1.135934    1.096084    0.364762
      3          6           0       -0.523214    1.299265    1.605224
      4          6           0       -1.018023    2.267814    2.485052
      5          6           0       -2.123899    3.043923    2.131693
      6          6           0       -2.738004    2.846287    0.888517
      7          6           0       -0.611475    0.060660   -0.606196
      8          6           0       -1.617481   -1.096095   -0.964943
      9          6           0       -1.922599   -0.922737   -2.461590
     10          6           0       -0.605830   -0.381993   -3.033520
     11          6           0       -0.186468    0.665353   -1.993220
     12          6           0        1.281145    0.802095   -1.746544
     13          8           0        0.653204   -0.440499   -0.155578
     14         26           0        1.617093   -1.881594    0.499056
     15         17           0        0.491244   -3.811273    0.464830
     16         17           0        2.414312   -1.329492    2.527068
     17         17           0        3.360871   -1.999804   -0.942381
     18          1           0        0.341934    0.701723    1.881072
     19          1           0       -0.531064    2.416062    3.449429
     20          1           0       -2.506369    3.801163    2.816970
     21          1           0       -3.600385    3.448323    0.600488
     22          1           0       -2.732901    1.739469   -0.952454
     23          1           0       -1.058929   -2.024826   -0.809052
     24          6           0       -2.785464   -1.162626   -0.005169
     25          1           0       -2.238048   -1.863972   -2.926838
     26          1           0       -2.729315   -0.193004   -2.604245
     27          1           0        0.143498   -1.184482   -3.083465
     28          1           0       -0.711630    0.046059   -4.036804
     29          1           0       -0.674301    1.625671   -2.184121
     30          8           0       -3.923229   -0.681544   -0.526393
     31          8           0       -2.689650   -1.585792    1.131893
     32          6           0       -5.058895   -0.579334    0.376470
     33          6           0       -6.172079    0.114568   -0.377874
     34          1           0       -5.338386   -1.591304    0.696553
     35          1           0       -4.738282   -0.011460    1.259153
     36          1           0       -7.050334    0.207696    0.275811
     37          1           0       -5.862974    1.121670   -0.689918
     38          1           0       -6.461832   -0.459289   -1.268729
     39          6           0        1.920776    1.924372   -1.171921
     40          6           0        3.325691    1.859658   -0.962119
     41          6           0        1.205422    3.081358   -0.759434
     42          6           0        3.989851    2.912332   -0.352572
     43          1           0        3.862287    0.960275   -1.264056
     44          6           0        1.879437    4.130050   -0.153165
     45          1           0        0.132677    3.148054   -0.918354
     46          6           0        3.265496    4.044592    0.051820
     47          1           0        5.064609    2.861372   -0.183935
     48          1           0        1.335486    5.018488    0.164518
     49          1           0        3.788121    4.873203    0.531295
     50          1           0        1.931347    0.014939   -2.130240
 ---------------------------------------------------------------------

 SCF Done:  E(UB3LYP) =  -3684.01427059     A.U. after    2 cycles

 Isotropic polarizability for W=    0.000000      477.36 Bohr**3.
 End of Minotr F.D. properties file   721 does not exist.

 ******    1 imaginary frequencies (negative Signs) ******

                      1                      2                      3
                      A                      A                      A
 Frequencies --   -202.0662                19.5933                27.0436
 Red. masses --     11.3328                 3.7843                 5.2601
 Frc consts  --      0.2726                 0.0009                 0.0023
 IR Inten    --    771.8748                 0.5337                 2.0180

                      4                      5                      6
                      A                      A                      A
 Frequencies --     35.8577                39.3586                49.8048
 Red. masses --      7.4370                 6.8024                 7.4910
 Frc consts  --      0.0056                 0.0062                 0.0109
 IR Inten    --      2.1222                 0.1648                 1.0061

                      7                      8                      9
                      A                      A                      A
 Frequencies --     54.8080                60.9162                70.0657
 Red. masses --      3.8119                 4.7333                 5.0354
 Frc consts  --      0.0067                 0.0103                 0.0146
 IR Inten    --      0.0916                 0.0337                 0.4922

                     10                     11                     12
                      A                      A                      A
 Frequencies --     74.8584                80.6438                88.6079
 Red. masses --      3.8856                 7.4434                 5.1118
 Frc consts  --      0.0128                 0.0285                 0.0236
 IR Inten    --      0.2184                 1.4144                 5.8356

                     13                     14                     15
                      A                      A                      A
 Frequencies --    101.2436               105.7312               115.7394
 Red. masses --      6.8477                22.8751                 9.0446
 Frc consts  --      0.0414                 0.1507                 0.0714
 IR Inten    --      2.8725                 4.8703                 6.6474

                     16                     17                     18
                      A                      A                      A
 Frequencies --    118.0144               121.3886               124.9353
 Red. masses --      4.7467                 7.9599                18.8996
 Frc consts  --      0.0390                 0.0691                 0.1738
 IR Inten    --      2.7493                 5.7790                10.7143

                     19                     20                     21
                      A                      A                      A
 Frequencies --    141.4467               167.4817               192.5513
 Red. masses --      4.2887                 4.4626                 3.5796
 Frc consts  --      0.0506                 0.0738                 0.0782
 IR Inten    --      3.5431                 7.0694                19.1687

                     22                     23                     24
                      A                      A                      A
 Frequencies --    201.7512               228.9849               248.4542
 Red. masses --      3.0875                 3.2124                 4.1107
 Frc consts  --      0.0740                 0.0992                 0.1495
 IR Inten    --     10.2725                 2.1516                57.1643

                     25                     26                     27
                      A                      A                      A
 Frequencies --    259.7202               268.1526               287.6439
 Red. masses --      3.7370                 1.7633                 4.6391
 Frc consts  --      0.1485                 0.0747                 0.2261
 IR Inten    --      6.6286                 7.9296                35.2510

                     28                     29                     30
                      A                      A                      A
 Frequencies --    304.4825               324.6232               335.6603
 Red. masses --      6.1955                 8.8671                 8.2885
 Frc consts  --      0.3384                 0.5505                 0.5502
 IR Inten    --     48.0190                56.1038                50.0964

                     31                     32                     33
                      A                      A                      A
 Frequencies --    357.7163               363.0276               366.7242
 Red. masses --     27.4094                15.9014                 5.3499
 Frc consts  --      2.0665                 1.2347                 0.4239
 IR Inten    --    145.2151               192.0579                 7.4719

                     34                     35                     36
                      A                      A                      A
 Frequencies --    389.1580               400.4311               413.5773
 Red. masses --      3.6367                 2.9280                 2.9620
 Frc consts  --      0.3245                 0.2766                 0.2985
 IR Inten    --     14.2037                 2.7924                 2.4845

                     37                     38                     39
                      A                      A                      A
 Frequencies --    421.8507               435.7213               487.5490
 Red. masses --      3.7897                 4.3006                 3.6300
 Frc consts  --      0.3973                 0.4811                 0.5084
 IR Inten    --     25.6002                 6.5612                19.8316

                     40                     41                     42
                      A                      A                      A
 Frequencies --    498.7461               545.9264               565.8650
 Red. masses --      4.3603                 3.3763                 2.8164
 Frc consts  --      0.6390                 0.5929                 0.5313
 IR Inten    --     50.2757                24.6059                25.9403

                     43                     44                     45
                      A                      A                      A
 Frequencies --    601.0862               617.1618               629.0815
 Red. masses --      5.4832                 5.8463                 6.2310
 Frc consts  --      1.1672                 1.3120                 1.4529
 IR Inten    --     12.8437                14.1063                 0.7814

                     46                     47                     48
                      A                      A                      A
 Frequencies --    631.6415               649.6323               672.9803
 Red. masses --      3.9572                 3.8388                 1.5950
 Frc consts  --      0.9302                 0.9545                 0.4256
 IR Inten    --     14.6845                 0.6096                80.1869

                     49                     50                     51
                      A                      A                      A
 Frequencies --    707.2233               711.4173               757.0814
 Red. masses --      2.6330                 2.1054                 2.6503
 Frc consts  --      0.7759                 0.6278                 0.8950
 IR Inten    --     26.5208                97.9034                15.2568

                     52                     53                     54
                      A                      A                      A
 Frequencies --    766.3906               780.0828               787.5566
 Red. masses --      3.1897                 1.9044                 3.5898
 Frc consts  --      1.1038                 0.6828                 1.3119
 IR Inten    --     30.5335                27.3744                49.6342

                     55                     56                     57
                      A                      A                      A
 Frequencies --    808.2770               837.9191               851.3800
 Red. masses --      1.1585                 1.2686                 1.3182
 Frc consts  --      0.4459                 0.5248                 0.5629
 IR Inten    --      0.9960                 2.2817                 2.5876

                     58                     59                     60
                      A                      A                      A
 Frequencies --    853.1595               867.6156               885.9534
 Red. masses --      3.2784                 2.8359                 2.0862
 Frc consts  --      1.4059                 1.2578                 0.9648
 IR Inten    --     14.6121                12.5582                31.2042

                     61                     62                     63
                      A                      A                      A
 Frequencies --    922.6727               927.3322               957.6131
 Red. masses --      1.9687                 1.5625                 1.6120
 Frc consts  --      0.9875                 0.7917                 0.8710
 IR Inten    --      4.1517                10.7384                42.5050

                     64                     65                     66
                      A                      A                      A
 Frequencies --    964.1335               969.5748               983.1518
 Red. masses --      2.0171                 3.2322                 1.7157
 Frc consts  --      1.1047                 1.7902                 0.9771
 IR Inten    --      1.0857                21.4350                53.4903

                     67                     68                     69
                      A                      A                      A
 Frequencies --    987.0672               997.3566              1000.3893
 Red. masses --      1.3707                 1.8394                 3.9908
 Frc consts  --      0.7868                 1.0780                 2.3531
 IR Inten    --      0.3247                20.7617                32.0208

                     70                     71                     72
                      A                      A                      A
 Frequencies --   1002.9524              1003.7015              1012.1767
 Red. masses --      1.6134                 1.6041                 4.6790
 Frc consts  --      0.9562                 0.9521                 2.8244
 IR Inten    --     41.6512                42.1294                 8.9862

                     73                     74                     75
                      A                      A                      A
 Frequencies --   1018.7725              1024.1032              1041.2670
 Red. masses --      2.1666                 1.3748                 2.2708
 Frc consts  --      1.3249                 0.8495                 1.4506
 IR Inten    --     15.1298                 1.5884                18.7556

                     76                     77                     78
                      A                      A                      A
 Frequencies --   1044.4638              1049.7161              1063.7298
 Red. masses --      3.4172                 2.3179                 3.3618
 Frc consts  --      2.1964                 1.5049                 2.2412
 IR Inten    --    345.0355                38.6026                48.1115

                     79                     80                     81
                      A                      A                      A
 Frequencies --   1073.9696              1099.1839              1108.1262
 Red. masses --      4.1760                 2.0024                 1.7078
 Frc consts  --      2.8379                 1.4254                 1.2356
 IR Inten    --     30.1970                17.8436                 5.3970

                     82                     83                     84
                      A                      A                      A
 Frequencies --   1122.2739              1130.4474              1135.2321
 Red. masses --      2.3959                 2.0264                 2.1356
 Frc consts  --      1.7780                 1.5257                 1.6216
 IR Inten    --     19.5653                 9.0972                14.3333

                     85                     86                     87
                      A                      A                      A
 Frequencies --   1167.1734              1168.8156              1170.5754
 Red. masses --      1.5506                 1.0897                 1.5323
 Frc consts  --      1.2446                 0.8771                 1.2371
 IR Inten    --      5.6625                 0.2336                 2.0059

                     88                     89                     90
                      A                      A                      A
 Frequencies --   1180.1649              1184.1023              1198.0553
 Red. masses --      1.0948                 1.3713                 1.1406
 Frc consts  --      0.8984                 1.1328                 0.9646
 IR Inten    --      5.3027                25.2678                13.2626

                     91                     92                     93
                      A                      A                      A
 Frequencies --   1199.4813              1218.7041              1247.6845
 Red. masses --      1.1569                 1.8422                 1.8074
 Frc consts  --      0.9807                 1.6121                 1.6577
 IR Inten    --     62.0082                48.9188                55.1601

                     94                     95                     96
                      A                      A                      A
 Frequencies --   1265.8382              1276.1047              1284.6188
 Red. masses --      1.5387                 2.1868                 1.3142
 Frc consts  --      1.4526                 2.0981                 1.2778
 IR Inten    --     53.1190               456.0836               165.9351

                     97                     98                     99
                      A                      A                      A
 Frequencies --   1298.4559              1306.1267              1314.0012
 Red. masses --      1.3627                 1.5008                 1.5219
 Frc consts  --      1.3537                 1.5085                 1.5482
 IR Inten    --     17.4307                62.6645                45.0010

                    100                    101                    102
                      A                      A                      A
 Frequencies --   1336.7133              1350.8840              1358.4121
 Red. masses --      1.7135                 1.5325                 1.4503
 Frc consts  --      1.8039                 1.6477                 1.5767
 IR Inten    --      3.4186                98.9747                 2.3415

                    103                    104                    105
                      A                      A                      A
 Frequencies --   1359.8496              1360.8342              1378.8442
 Red. masses --      1.5173                 2.8228                 1.3500
 Frc consts  --      1.6531                 3.0799                 1.5123
 IR Inten    --      8.2814                 4.1073                25.3712

                    106                    107                    108
                      A                      A                      A
 Frequencies --   1392.8952              1409.3070              1454.6497
 Red. masses --      5.8005                 1.4767                 2.1581
 Frc consts  --      6.6306                 1.7281                 2.6905
 IR Inten    --     62.8361                 6.3388               133.3343

                    109                    110                    111
                      A                      A                      A
 Frequencies --   1467.6959              1470.1885              1475.5365
 Red. masses --      1.0405                 2.2992                 1.0536
 Frc consts  --      1.3205                 2.9281                 1.3515
 IR Inten    --      7.3298                13.0282                 1.7196

                    112                    113                    114
                      A                      A                      A
 Frequencies --   1480.3507              1490.1492              1492.4744
 Red. masses --      1.1029                 2.0378                 1.1225
 Frc consts  --      1.4240                 2.6661                 1.4731
 IR Inten    --     25.0097                70.6352                 6.1532

                    115                    116                    117
                      A                      A                      A
 Frequencies --   1499.8750              1521.4559              1538.0466
 Red. masses --      1.0870                 2.2500                 3.0913
 Frc consts  --      1.4408                 3.0687                 4.3086
 IR Inten    --     10.0203                 9.5892               214.3001

                    118                    119                    120
                      A                      A                      A
 Frequencies --   1600.9923              1625.5614              1638.7567
 Red. masses --      4.6828                 5.9339                 5.6359
 Frc consts  --      7.0719                 9.2384                 8.9174
 IR Inten    --      3.9842                 0.3602               386.1420

                    121                    122                    123
                      A                      A                      A
 Frequencies --   1647.0553              1743.1656              3038.9313
 Red. masses --      5.8063                11.7353                 1.0351
 Frc consts  --      9.2804                21.0097                 5.6320
 IR Inten    --      3.5675               352.7100                22.4479

                    124                    125                    126
                      A                      A                      A
 Frequencies --   3052.4060              3064.5813              3070.7599
 Red. masses --      1.0647                 1.0577                 1.0609
 Frc consts  --      5.8446                 5.8528                 5.8943
 IR Inten    --     33.7669                21.7358                32.8122

                    127                    128                    129
                      A                      A                      A
 Frequencies --   3100.1337              3106.4800              3109.2253
 Red. masses --      1.0850                 1.1056                 1.0918
 Frc consts  --      6.1441                 6.2861                 6.2185
 IR Inten    --     14.1477                 0.2953                18.1512

                    130                    131                    132
                      A                      A                      A
 Frequencies --   3119.6519              3120.3860              3127.2795
 Red. masses --      1.1014                 1.0960                 1.1034
 Frc consts  --      6.3156                 6.2876                 6.3582
 IR Inten    --     32.8710                22.9596                31.1628

                    133                    134                    135
                      A                      A                      A
 Frequencies --   3128.5581              3172.1342              3178.6799
 Red. masses --      1.1076                 1.0853                 1.0915
 Frc consts  --      6.3875                 6.4341                 6.4979
 IR Inten    --     61.1409                 0.1925                 0.6614

                    136                    137                    138
                      A                      A                      A
 Frequencies --   3180.7724              3188.3378              3190.2628
 Red. masses --      1.0891                 1.0876                 1.0933
 Frc consts  --      6.4918                 6.5138                 6.5559
 IR Inten    --     10.6614                 1.6692                26.7813

                    139                    140                    141
                      A                      A                      A
 Frequencies --   3197.1942              3198.3888              3206.0416
 Red. masses --      1.0906                 1.0981                 1.0930
 Frc consts  --      6.5683                 6.6184                 6.6195
 IR Inten    --      2.1468                19.9753                 5.0184

                    142                    143                    144
                      A                      A                      A
 Frequencies --   3213.2619              3221.0633              3230.9411
 Red. masses --      1.0982                 1.0927                 1.0941
 Frc consts  --      6.6806                 6.6794                 6.7291
 IR Inten    --     11.7707                 6.6223                 3.5660

 - Thermochemistry -
 -------------------
 Temperature   298.150 Kelvin.  Pressure   1.00000 Atm.
 Atom     1 has atomic number  6 and mass  12.00000

 Molecular mass:   482.99839 amu.
 Principal axes and moments of inertia in atomic units:
                           1         2         3
     Eigenvalues --  ******************************
           X            0.99892   0.04637  -0.00021
           Y           -0.04635   0.99864   0.02382
           Z            0.00131  -0.02379   0.99972
 This molecule is an asymmetric top.
 Rotational symmetry number  1.
 Warning -- assumption of classical behavior for rotation
           may cause significant error
 Rotational temperatures (Kelvin)      0.00792     0.00602     0.00454
 Rotational constants (GHZ):           0.16512     0.12533     0.09465
    1 imaginary frequencies ignored.
 Zero-point vibrational energy    1012878.0 (Joules/Mol)
                                  242.08364 (Kcal/Mol)
 Warning -- explicit consideration of  43 degrees of freedom as
           vibrations may cause significant error
 Vibrational temperatures:     28.19    38.91    51.59    56.63    71.66
          (Kelvin)             78.86    87.64   100.81   107.70   116.03
                              127.49   145.67   152.12   166.52   169.80
                              174.65   179.75   203.51   240.97   277.04
                              290.27   329.46   357.47   373.68   385.81
                              413.86   438.08   467.06   482.94   514.67
                              522.32   527.63   559.91   576.13   595.05
                              606.95   626.91   701.47   717.58   785.47
                              814.15   864.83   887.96   905.11   908.79
                              934.68   968.27  1017.54  1023.57  1089.27
                             1102.67  1122.37  1133.12  1162.93  1205.58
                             1224.95  1227.51  1248.31  1274.69  1327.52
                             1334.22  1377.79  1387.17  1395.00  1414.54
                             1420.17  1434.97  1439.34  1443.02  1444.10
                             1456.30  1465.79  1473.46  1498.15  1502.75
                             1510.31  1530.47  1545.20  1581.48  1594.35
                             1614.70  1626.46  1633.35  1679.30  1681.66
                             1684.20  1697.99  1703.66  1723.73  1725.79
                             1753.44  1795.14  1821.26  1836.03  1848.28
                             1868.19  1879.22  1890.55  1923.23  1943.62
                             1954.45  1956.52  1957.94  1983.85  2004.07
                             2027.68  2092.92  2111.69  2115.27  2122.97
                             2129.89  2143.99  2147.34  2157.99  2189.04
                             2212.91  2303.47  2338.82  2357.81  2369.75
                             2508.03  4372.34  4391.73  4409.25  4418.14
                             4460.40  4469.53  4473.48  4488.48  4489.54
                             4499.46  4501.30  4563.99  4573.41  4576.42
                             4587.31  4590.08  4600.05  4601.77  4612.78
                             4623.17  4634.39  4648.60

 Zero-point correction=                           0.385785 (Hartree/Particle)
 Thermal correction to Energy=                    0.414260
 Thermal correction to Enthalpy=                  0.415205
 Thermal correction to Gibbs Free Energy=         0.321748
 Sum of electronic and zero-point Energies=          -3683.628486
 Sum of electronic and thermal Energies=             -3683.600010
 Sum of electronic and thermal Enthalpies=           -3683.599066
 Sum of electronic and thermal Free Energies=        -3683.692523

                     E (Thermal)             CV                S
                      KCal/Mol        Cal/Mol-Kelvin    Cal/Mol-Kelvin
 Total                  259.952            103.915            196.696
 Electronic               0.000              0.000              3.561
 Translational            0.889              2.981             44.412
 Rotational               0.889              2.981             36.349
 Vibrational            258.175             97.954            112.374
 Vibration     1          0.593              1.986              6.675
 Vibration     2          0.593              1.984              6.035
 Vibration     3          0.594              1.982              5.476
 Vibration     4          0.594              1.981              5.291
 Vibration     5          0.595              1.978              4.825
 Vibration     6          0.596              1.976              4.636
 Vibration     7          0.597              1.973              4.427
 Vibration     8          0.598              1.968              4.152
 Vibration     9          0.599              1.966              4.021
 Vibration    10          0.600              1.962              3.875
 Vibration    11          0.601              1.957              3.691
 Vibration    12          0.604              1.948              3.430
 Vibration    13          0.605              1.945              3.346
 Vibration    14          0.608              1.936              3.170
 Vibration    15          0.608              1.934              3.133
 Vibration    16          0.609              1.931              3.078
 Vibration    17          0.610              1.928              3.023
 Vibration    18          0.615              1.912              2.784
 Vibration    19          0.624              1.882              2.464
 Vibration    20          0.635              1.850              2.203
 Vibration    21          0.639              1.837              2.117
 Vibration    22          0.652              1.797              1.887
 Vibration    23          0.662              1.765              1.742
 Vibration    24          0.668              1.746              1.664
 Vibration    25          0.673              1.732              1.608
 Vibration    26          0.685              1.697              1.488
 Vibration    27          0.695              1.665              1.392
 Vibration    28          0.709              1.626              1.287
 Vibration    29          0.717              1.604              1.233
 Vibration    30          0.733              1.559              1.132
 Vibration    31          0.737              1.548              1.109
 Vibration    32          0.740              1.541              1.093
 Vibration    33          0.757              1.493              1.003
 Vibration    34          0.766              1.469              0.961
 Vibration    35          0.777              1.441              0.914
 Vibration    36          0.784              1.423              0.886
 Vibration    37          0.796              1.392              0.840
 Vibration    38          0.843              1.278              0.690
 Vibration    39          0.854              1.253              0.661
 Vibration    40          0.901              1.149              0.553
 Vibration    41          0.922              1.105              0.512
 Vibration    42          0.959              1.029              0.448
 Vibration    43          0.977              0.996              0.421

 Optimization completed.
    -- Stationary point found.
 Normal termination of Gaussian 16 at Wed Jul 14 04:23:11 2021.
