 Gaussian 16, Revision A.03,
 Gaussian 16:  ES64L-G16RevA.03 25-Dec-2016

 ----------------------------------------------------------------------
 #p opt freq=noraman ub3lyp jul-cc-pvdz scrf=(pcm,solvent=dichloroethan
 e) pop=cm5
 ----------------------------------------------------------------------

 -----
 title
 -----
 Symbolic Z-matrix:
 Charge =  0 Multiplicity = 1

 SCF Done:  E(UB3LYP) =  -1039.28596933     A.U. after   14 cycles
 SCF Done:  E(UB3LYP) =  -1039.28602434     A.U. after   15 cycles
 SCF Done:  E(UB3LYP) =  -1039.28580751     A.U. after   14 cycles
 SCF Done:  E(UB3LYP) =  -1039.28656963     A.U. after   12 cycles
 SCF Done:  E(UB3LYP) =  -1039.28652171     A.U. after   12 cycles
 SCF Done:  E(UB3LYP) =  -1039.28664689     A.U. after   11 cycles
 SCF Done:  E(UB3LYP) =  -1039.28666019     A.U. after   10 cycles
 SCF Done:  E(UB3LYP) =  -1039.28666252     A.U. after   10 cycles
 SCF Done:  E(UB3LYP) =  -1039.28666369     A.U. after   10 cycles
 SCF Done:  E(UB3LYP) =  -1039.28666388     A.U. after    8 cycles
 SCF Done:  E(UB3LYP) =  -1039.28666403     A.U. after    8 cycles
 SCF Done:  E(UB3LYP) =  -1039.28666409     A.U. after    8 cycles
 SCF Done:  E(UB3LYP) =  -1039.28666413     A.U. after    8 cycles
 Optimization completed.
    -- Stationary point found.
 Normal termination of Gaussian 16 at Sun Jun 27 12:07:44 2021.

 ----------------------------------------------------------------------
 #P Geom=AllCheck Guess=TCheck SCRF=Check GenChk UB3LYP/Jul-CC-pVDZ Fre
 q
 ----------------------------------------------------------------------

 Structure from the checkpoint file:  "/scratch/kwaneu.3001800.bmbhpcps002/Gau-1321.chk"
 -----
 title
 -----
 Charge =  0 Multiplicity = 1

                         Standard orientation:
 ---------------------------------------------------------------------
 Center     Atomic      Atomic             Coordinates (Angstroms)
 Number     Number       Type             X           Y           Z
 ---------------------------------------------------------------------
      1          6           0       -3.911132   -1.118984   -1.063943
      2          6           0       -3.164093   -1.272309    0.118458
      3          6           0       -3.696613   -2.051269    1.164026
      4          6           0       -4.942595   -2.660608    1.032227
      5          6           0       -5.678018   -2.502132   -0.150566
      6          6           0       -5.160427   -1.731437   -1.196249
      7          6           0       -1.821101   -0.641251    0.317107
      8          6           0       -1.280890    0.314729   -0.764394
      9          6           0        0.221796    0.623842   -0.594798
     10          6           0        1.124353   -0.563766   -0.980562
     11          6           0        2.583461   -0.211702   -0.912649
     12          6           0        3.476140   -0.817656   -0.109770
     13          8           0       -1.162867   -0.871556    1.321815
     14          1           0       -3.116136   -2.166192    2.079050
     15          1           0       -5.344647   -3.259864    1.850231
     16          1           0       -6.653417   -2.979849   -0.255668
     17          1           0       -5.728625   -1.607002   -2.118775
     18          1           0       -3.529712   -0.526004   -1.893940
     19          1           0       -1.438834   -0.138386   -1.750915
     20          6           0       -2.075643    1.619142   -0.786872
     21          1           0        0.470014    1.483495   -1.235411
     22          1           0        0.416537    0.922036    0.442996
     23          1           0        0.916602   -1.422578   -0.327525
     24          1           0        0.874245   -0.868627   -2.011891
     25          1           0        2.904883    0.602911   -1.570280
     26          8           0       -2.237540    2.123424    0.444169
     27          8           0       -2.479236    2.155337   -1.802080
     28          6           0       -2.941264    3.397489    0.550635
     29          6           0       -3.007744    3.762305    2.018639
     30          1           0       -2.389273    4.141828   -0.037891
     31          1           0       -3.937933    3.274006    0.107325
     32          1           0       -3.534505    4.720879    2.126947
     33          1           0       -3.554591    3.000133    2.590573
     34          1           0       -2.000892    3.870305    2.444870
     35          6           0        4.916629   -0.529764    0.014334
     36          6           0        5.679464   -1.263499    0.943734
     37          6           0        5.581231    0.449101   -0.754303
     38          6           0        7.048860   -1.033006    1.105894
     39          1           0        5.186231   -2.027260    1.549338
     40          6           0        6.947490    0.681358   -0.594617
     41          1           0        5.026939    1.036465   -1.487319
     42          6           0        7.690716   -0.057781    0.336621
     43          1           0        7.613697   -1.617040    1.834565
     44          1           0        7.438879    1.444067   -1.201441
     45          1           0        8.759297    0.126455    0.458121
     46          1           0        3.114667   -1.624212    0.538095
 ---------------------------------------------------------------------

 SCF Done:  E(UB3LYP) =  -1039.28666413     A.U. after    1 cycles

 The electronic state is 1-A.
 Alpha  occ. eigenvalues --  -19.20605 -19.15416 -19.15342 -10.33315 -10.29383
 Alpha  occ. eigenvalues --  -10.25082 -10.21953 -10.21438 -10.21256 -10.21099
 Alpha  occ. eigenvalues --  -10.20813 -10.20674 -10.20628 -10.20560 -10.19850
 Alpha  occ. eigenvalues --  -10.19684 -10.19636 -10.19546 -10.19493 -10.19488
 Alpha  occ. eigenvalues --  -10.19486 -10.19360 -10.19280 -10.18850  -1.12306
 Alpha  occ. eigenvalues --   -1.06208  -1.03602  -0.87559  -0.86536  -0.83370
 Alpha  occ. eigenvalues --   -0.80636  -0.78074  -0.77821  -0.76472  -0.75394
 Alpha  occ. eigenvalues --   -0.75134  -0.70837  -0.65988  -0.65215  -0.62877
 Alpha  occ. eigenvalues --   -0.61879  -0.61130  -0.59680  -0.58361  -0.56404
 Alpha  occ. eigenvalues --   -0.55638  -0.53946  -0.52013  -0.50494  -0.50343
 Alpha  occ. eigenvalues --   -0.49734  -0.48360  -0.47438  -0.46852  -0.46701
 Alpha  occ. eigenvalues --   -0.45518  -0.45228  -0.44156  -0.43787  -0.43101
 Alpha  occ. eigenvalues --   -0.42802  -0.42311  -0.41676  -0.41103  -0.40439
 Alpha  occ. eigenvalues --   -0.39678  -0.38570  -0.38149  -0.37657  -0.37349
 Alpha  occ. eigenvalues --   -0.37207  -0.36765  -0.36316  -0.35870  -0.35468
 Alpha  occ. eigenvalues --   -0.34977  -0.34190  -0.33938  -0.31984  -0.30446
 Alpha  occ. eigenvalues --   -0.29790  -0.27526  -0.27231  -0.26936  -0.26209
 Alpha  occ. eigenvalues --   -0.22835
 Alpha virt. eigenvalues --   -0.08070  -0.04823  -0.03182  -0.02017  -0.01199
 Alpha virt. eigenvalues --   -0.00455   0.00033   0.00432   0.00870   0.01158
 Alpha virt. eigenvalues --    0.01552   0.01739   0.02299   0.02747   0.02917

  Beta  occ. eigenvalues --  -19.20605 -19.15416 -19.15342 -10.33315 -10.29383
  Beta  occ. eigenvalues --  -10.25082 -10.21953 -10.21438 -10.21256 -10.21099
  Beta  occ. eigenvalues --  -10.20813 -10.20674 -10.20628 -10.20560 -10.19850
  Beta  occ. eigenvalues --  -10.19684 -10.19636 -10.19546 -10.19493 -10.19488
  Beta  occ. eigenvalues --  -10.19486 -10.19360 -10.19280 -10.18850  -1.12306
  Beta  occ. eigenvalues --   -1.06208  -1.03602  -0.87559  -0.86536  -0.83370
  Beta  occ. eigenvalues --   -0.80636  -0.78074  -0.77821  -0.76472  -0.75394
  Beta  occ. eigenvalues --   -0.75134  -0.70837  -0.65988  -0.65215  -0.62877
  Beta  occ. eigenvalues --   -0.61879  -0.61130  -0.59680  -0.58361  -0.56404
  Beta  occ. eigenvalues --   -0.55638  -0.53946  -0.52013  -0.50494  -0.50343
  Beta  occ. eigenvalues --   -0.49734  -0.48360  -0.47438  -0.46852  -0.46701
  Beta  occ. eigenvalues --   -0.45518  -0.45228  -0.44156  -0.43787  -0.43101
  Beta  occ. eigenvalues --   -0.42802  -0.42311  -0.41676  -0.41103  -0.40439
  Beta  occ. eigenvalues --   -0.39678  -0.38570  -0.38149  -0.37657  -0.37349
  Beta  occ. eigenvalues --   -0.37207  -0.36765  -0.36316  -0.35870  -0.35468
  Beta  occ. eigenvalues --   -0.34977  -0.34190  -0.33938  -0.31984  -0.30446
  Beta  occ. eigenvalues --   -0.29790  -0.27526  -0.27231  -0.26936  -0.26209
  Beta  occ. eigenvalues --   -0.22835
  Beta virt. eigenvalues --   -0.08070  -0.04823  -0.03182  -0.02017  -0.01199
  Beta virt. eigenvalues --   -0.00455   0.00033   0.00432   0.00870   0.01158
  Beta virt. eigenvalues --    0.01552   0.01739   0.02299   0.02747   0.02917

 Mulliken charges and spin densities:
               1          2
     1  C    0.052882   0.000000
     2  C    2.037799   0.000000
     3  C   -0.510531   0.000000
     4  C   -0.018453   0.000000
     5  C    0.255972   0.000000
     6  C   -0.267289   0.000000
     7  C    0.271526   0.000000
     8  C   -0.091806   0.000000
     9  C    0.190562   0.000000
    10  C    0.019296   0.000000
    11  C   -0.007260   0.000000
    12  C   -0.023080   0.000000
    13  O   -0.709061   0.000000
    14  H   -0.179881   0.000000
    15  H   -0.158011   0.000000
    16  H   -0.161475   0.000000
    17  H   -0.155974   0.000000
    18  H   -0.177297   0.000000
    19  H   -0.141553   0.000000
    20  C    0.635336   0.000000
    21  H   -0.096568   0.000000
    22  H   -0.050794   0.000000
    23  H   -0.097961   0.000000
    24  H   -0.064156   0.000000
    25  H   -0.212198   0.000000
    26  O   -0.659759   0.000000
    27  O   -0.642468   0.000000
    28  C    0.465191   0.000000
    29  C    0.076082   0.000000
    30  H   -0.043673   0.000000
    31  H   -0.043661   0.000000
    32  H   -0.006560   0.000000
    33  H    0.021546   0.000000
    34  H    0.021289   0.000000
    35  C    1.805835   0.000000
    36  C   -0.239837   0.000000
    37  C    0.246159   0.000000
    38  C   -0.162667   0.000000
    39  H   -0.169655   0.000000
    40  C   -0.335762   0.000000
    41  H   -0.186727   0.000000
    42  C    0.186628   0.000000
    43  H   -0.167959   0.000000
    44  H   -0.157647   0.000000
    45  H   -0.177119   0.000000
    46  H   -0.169259   0.000000
 Sum of Mulliken charges =   0.00000   0.00000

 Dipole moment (field-independent basis, Debye):
    X=             -2.9496    Y=              0.1516    Z=             -0.1794  Tot=              2.9589
 Quadrupole moment (field-independent basis, Debye-Ang):
   XX=           -119.3872   YY=           -133.3803   ZZ=           -145.8213
   XY=              7.9381   XZ=             -3.5227   YZ=              3.4905

  Exact polarizability: 458.450  28.271 298.913  42.991 -43.381 315.312
 Approx polarizability: 496.239  30.408 347.118  62.035 -65.210 400.908

                      1                      2                      3
                      A                      A                      A
 Frequencies --     15.4036                16.8712                19.4051
 Red. masses --      4.3769                 4.2684                 4.7508
 Frc consts  --      0.0006                 0.0007                 0.0011
 IR Inten    --      1.2754                 0.1664                 0.8002

                      4                      5                      6
                      A                      A                      A
 Frequencies --     21.4751                34.3806                44.4069
 Red. masses --      4.8739                 3.9401                 4.6828
 Frc consts  --      0.0013                 0.0027                 0.0054
 IR Inten    --      0.5027                 0.2219                 0.9785

                      7                      8                      9
                      A                      A                      A
 Frequencies --     64.8834                69.7313                83.2193
 Red. masses --      3.5432                 4.0536                 2.9217
 Frc consts  --      0.0088                 0.0116                 0.0119
 IR Inten    --      0.5528                 1.2483                 0.4048

                     10                     11                     12
                      A                      A                      A
 Frequencies --     96.7327               104.0696               133.8750
 Red. masses --      3.8403                 5.9941                 3.6377
 Frc consts  --      0.0212                 0.0382                 0.0384
 IR Inten    --      0.9376                 2.8468                 0.1619

                     13                     14                     15
                      A                      A                      A
 Frequencies --    148.1811               157.7877               182.2165
 Red. masses --      2.7815                 3.8007                 3.2625
 Frc consts  --      0.0360                 0.0558                 0.0638
 IR Inten    --      1.0829                 1.7526                 5.0818

                     16                     17                     18
                      A                      A                      A
 Frequencies --    200.7815               232.6466               248.2816
 Red. masses --      2.3734                 4.3891                 2.4880
 Frc consts  --      0.0564                 0.1400                 0.0904
 IR Inten    --      7.9939                 4.3621                 1.3887

                     19                     20                     21
                      A                      A                      A
 Frequencies --    261.0802               296.2515               320.5491
 Red. masses --      1.5702                 3.8641                 4.3192
 Frc consts  --      0.0631                 0.1998                 0.2615
 IR Inten    --      1.5756                15.0204                 0.9947

                     22                     23                     24
                      A                      A                      A
 Frequencies --    356.3895               377.2396               391.8122
 Red. masses --      5.2230                 3.8905                 4.0306
 Frc consts  --      0.3909                 0.3262                 0.3646
 IR Inten    --      5.2962                15.5323                 0.8448

                     25                     26                     27
                      A                      A                      A
 Frequencies --    409.3327               412.7699               416.8814
 Red. masses --      2.8301                 2.8418                 4.8050
 Frc consts  --      0.2794                 0.2853                 0.4920
 IR Inten    --      0.1822                 0.0057                 8.7972

                     28                     29                     30
                      A                      A                      A
 Frequencies --    439.6370               473.8885               502.1776
 Red. masses --      4.0819                 4.1166                 4.3941
 Frc consts  --      0.4648                 0.5447                 0.6529
 IR Inten    --      0.5222                 2.2095                 7.5190

                     31                     32                     33
                      A                      A                      A
 Frequencies --    535.1599               597.0580               623.7577
 Red. masses --      3.4185                 4.9309                 6.1840
 Frc consts  --      0.5768                 1.0357                 1.4176
 IR Inten    --     15.8337                12.8633                 0.5739

                     34                     35                     36
                      A                      A                      A
 Frequencies --    626.1925               627.2413               670.7342
 Red. masses --      4.7674                 6.2803                 3.6792
 Frc consts  --      1.1014                 1.4558                 0.9752
 IR Inten    --     12.0335                 1.0959                22.0704

                     37                     38                     39
                      A                      A                      A
 Frequencies --    694.6940               699.5071               727.0738
 Red. masses --      1.6761                 1.5795                 2.1311
 Frc consts  --      0.4766                 0.4554                 0.6638
 IR Inten    --     68.7767                67.2808                 4.6680

                     40                     41                     42
                      A                      A                      A
 Frequencies --    734.7353               746.4733               768.3454
 Red. masses --      2.6662                 2.1236                 2.7981
 Frc consts  --      0.8480                 0.6972                 0.9733
 IR Inten    --     21.5698                46.4371                13.7250

                     43                     44                     45
                      A                      A                      A
 Frequencies --    799.7240               809.1209               824.7605
 Red. masses --      2.6547                 1.1276                 3.1334
 Frc consts  --      1.0003                 0.4349                 1.2558
 IR Inten    --     26.1202                 0.8222                 1.9410

                     46                     47                     48
                      A                      A                      A
 Frequencies --    839.0481               846.7303               850.0685
 Red. masses --      1.2841                 1.3044                 3.0435
 Frc consts  --      0.5326                 0.5510                 1.2958
 IR Inten    --      0.0126                 1.3708                14.4965

                     49                     50                     51
                      A                      A                      A
 Frequencies --    855.9273               882.6273               924.2258
 Red. masses --      1.9360                 2.7026                 1.5838
 Frc consts  --      0.8357                 1.2405                 0.7971
 IR Inten    --      1.2201                 6.0068                 2.2636

                     52                     53                     54
                      A                      A                      A
 Frequencies --    943.5557               950.0022               971.1022
 Red. masses --      2.3688                 2.1707                 3.6464
 Frc consts  --      1.2425                 1.1542                 2.0260
 IR Inten    --     30.6478                48.5053                39.1706

                     55                     56                     57
                      A                      A                      A
 Frequencies --    979.4137               985.7154               991.8507
 Red. masses --      1.3780                 1.1617                 1.3861
 Frc consts  --      0.7788                 0.6650                 0.8034
 IR Inten    --      0.0131                40.1024                 0.8087

                     58                     59                     60
                      A                      A                      A
 Frequencies --    994.7799               996.4433               997.6718
 Red. masses --      5.6117                 4.1469                 1.3634
 Frc consts  --      3.2719                 2.4259                 0.7995
 IR Inten    --      0.2531                 0.5597                 7.7696

                     61                     62                     63
                      A                      A                      A
 Frequencies --   1009.4802              1011.5488              1033.5504
 Red. masses --      1.7229                 1.5965                 3.0860
 Frc consts  --      1.0344                 0.9625                 1.9423
 IR Inten    --     13.6058                 9.3428                46.4626

                     64                     65                     66
                      A                      A                      A
 Frequencies --   1044.4126              1045.4863              1049.9987
 Red. masses --      2.2898                 2.2392                 3.0761
 Frc consts  --      1.4716                 1.4421                 1.9981
 IR Inten    --     23.7309                19.8775                85.6597

                     67                     68                     69
                      A                      A                      A
 Frequencies --   1078.6983              1091.6308              1102.5927
 Red. masses --      2.3410                 1.8164                 1.6973
 Frc consts  --      1.6049                 1.2753                 1.2157
 IR Inten    --     16.7308                13.7744                 8.6093

                     70                     71                     72
                      A                      A                      A
 Frequencies --   1110.5475              1128.7012              1165.1406
 Red. masses --      2.0462                 2.1697                 1.0820
 Frc consts  --      1.4868                 1.6285                 0.8655
 IR Inten    --      6.3863                10.7464                 0.1173

                     73                     74                     75
                      A                      A                      A
 Frequencies --   1166.1527              1168.2136              1175.1064
 Red. masses --      1.5400                 1.1094                 1.3054
 Frc consts  --      1.2339                 0.8920                 1.0621
 IR Inten    --      7.2281                11.6920                20.8441

                     76                     77                     78
                      A                      A                      A
 Frequencies --   1190.8199              1191.8265              1214.5304
 Red. masses --      1.1267                 1.1581                 2.1251
 Frc consts  --      0.9414                 0.9692                 1.8470
 IR Inten    --      2.1440                47.9266               316.6662

                     79                     80                     81
                      A                      A                      A
 Frequencies --   1226.4854              1235.6332              1263.0485
 Red. masses --      2.1392                 2.3709                 1.8078
 Frc consts  --      1.8960                 2.1328                 1.6992
 IR Inten    --     12.1658               186.8377               187.4854

                     82                     83                     84
                      A                      A                      A
 Frequencies --   1281.5338              1294.3644              1304.6792
 Red. masses --      1.1022                 1.8607                 1.2071
 Frc consts  --      1.0665                 1.8367                 1.2106
 IR Inten    --      2.8941               187.0805                 9.6115

                     85                     86                     87
                      A                      A                      A
 Frequencies --   1318.0172              1327.3326              1329.5308
 Red. masses --      1.9429                 1.4258                 1.3497
 Frc consts  --      1.9886                 1.4800                 1.4057
 IR Inten    --     16.7287                 0.8167                 3.9539

                     88                     89                     90
                      A                      A                      A
 Frequencies --   1351.7499              1358.1053              1358.9954
 Red. masses --      1.5251                 2.4090                 2.4113
 Frc consts  --      1.6419                 2.6179                 2.6239
 IR Inten    --      2.2031                48.0582                 2.6309

                     91                     92                     93
                      A                      A                      A
 Frequencies --   1362.3786              1376.0608              1380.2027
 Red. masses --      1.9900                 1.3492                 1.4843
 Frc consts  --      2.1762                 1.5052                 1.6660
 IR Inten    --     23.8198                 7.4203                 4.4673

                     94                     95                     96
                      A                      A                      A
 Frequencies --   1407.6795              1458.6818              1467.0677
 Red. masses --      1.4238                 1.0968                 2.1962
 Frc consts  --      1.6623                 1.3750                 2.7850
 IR Inten    --     11.5790                 9.6488                20.3828

                     97                     98                     99
                      A                      A                      A
 Frequencies --   1467.1138              1468.7259              1475.9649
 Red. masses --      1.0618                 2.0587                 1.0544
 Frc consts  --      1.3466                 2.6165                 1.3533
 IR Inten    --     12.8156                14.0690                 2.1344

                    100                    101                    102
                      A                      A                      A
 Frequencies --   1477.0390              1500.9400              1513.5517
 Red. masses --      1.1471                 1.0864                 2.2201
 Frc consts  --      1.4745                 1.4420                 2.9965
 IR Inten    --     10.1919                11.2827                 3.5810

                    103                    104                    105
                      A                      A                      A
 Frequencies --   1517.3438              1613.7456              1616.7600
 Red. masses --      2.3070                 5.5341                 5.6649
 Frc consts  --      3.1295                 8.4912                 8.7244
 IR Inten    --     20.0298                 1.2543                29.0005

                    106                    107                    108
                      A                      A                      A
 Frequencies --   1635.9941              1640.0897              1707.2105
 Red. masses --      5.7763                 5.8631                 6.5225
 Frc consts  --      9.1088                 9.2921                11.2005
 IR Inten    --     70.2936                16.6809               159.3801

                    109                    110                    111
                      A                      A                      A
 Frequencies --   1709.8062              1741.7096              3000.0923
 Red. masses --     10.0906                11.4519                 1.0675
 Frc consts  --     17.3804                20.4683                 5.6610
 IR Inten    --    544.5452               198.7296                47.7963

                    112                    113                    114
                      A                      A                      A
 Frequencies --   3040.2221              3042.3276              3063.9967
 Red. masses --      1.0351                 1.0655                 1.0578
 Frc consts  --      5.6368                 5.8105                 5.8510
 IR Inten    --     19.9686                31.3420                24.9199

                    115                    116                    117
                      A                      A                      A
 Frequencies --   3080.7050              3087.2610              3107.5578
 Red. masses --      1.0905                 1.0852                 1.1064
 Frc consts  --      6.0977                 6.0942                 6.2948
 IR Inten    --     13.9804                12.5798                 0.0807

                    118                    119                    120
                      A                      A                      A
 Frequencies --   3109.9786              3118.7783              3122.3560
 Red. masses --      1.0992                 1.1015                 1.0903
 Frc consts  --      6.2638                 6.3124                 6.2626
 IR Inten    --     23.0402                30.6145                12.4327

                    121                    122                    123
                      A                      A                      A
 Frequencies --   3129.5558              3132.3890              3160.2694
 Red. masses --      1.1073                 1.0869                 1.0859
 Frc consts  --      6.3900                 6.2832                 6.3896
 IR Inten    --     56.0563                47.3778                11.9404

                    124                    125                    126
                      A                      A                      A
 Frequencies --   3167.4599              3173.9449              3177.0999
 Red. masses --      1.0867                 1.0854                 1.0912
 Frc consts  --      6.4237                 6.4424                 6.4895
 IR Inten    --      0.4261                 0.2601                19.2765

                    127                    128                    129
                      A                      A                      A
 Frequencies --   3184.6650              3185.4769              3193.8876
 Red. masses --      1.0897                 1.0940                 1.0987
 Frc consts  --      6.5115                 6.5404                 6.6037
 IR Inten    --     11.2822                44.9102                22.9916

                    130                    131                    132
                      A                      A                      A
 Frequencies --   3194.1524              3205.1231              3207.8478
 Red. masses --      1.0941                 1.0937                 1.0952
 Frc consts  --      6.5769                 6.6197                 6.6400
 IR Inten    --     18.6400                13.6778                 5.3618

 - Thermochemistry -
 -------------------
 Temperature   298.150 Kelvin.  Pressure   1.00000 Atm.
 Atom     1 has atomic number  6 and mass  12.00000

 Molecular mass:   322.15689 amu.
 Principal axes and moments of inertia in atomic units:
                           1         2         3
     Eigenvalues --  4630.53057********************
           X            0.99999  -0.00267  -0.00211
           Y            0.00270   0.99982   0.01874
           Z            0.00206  -0.01874   0.99982
 This molecule is an asymmetric top.
 Rotational symmetry number  1.
 Warning -- assumption of classical behavior for rotation
           may cause significant error
 Rotational temperatures (Kelvin)      0.01870     0.00408     0.00369
 Rotational constants (GHZ):           0.38975     0.08503     0.07680
 Zero-point vibrational energy     993362.4 (Joules/Mol)
                                  237.41931 (Kcal/Mol)
 Warning -- explicit consideration of  32 degrees of freedom as
           vibrations may cause significant error
 Vibrational temperatures:     22.16    24.27    27.92    30.90    49.47
          (Kelvin)             63.89    93.35   100.33   119.73   139.18
                              149.73   192.62   213.20   227.02   262.17
                              288.88   334.73   357.22   375.64   426.24
                              461.20   512.77   542.76   563.73   588.94
                              593.88   599.80   632.54   681.82   722.52
                              769.98   859.03   897.45   900.95   902.46
                              965.04   999.51  1006.43  1046.10  1057.12
                             1074.01  1105.48  1150.62  1164.14  1186.65
                             1207.20  1218.26  1223.06  1231.49  1269.90
                             1329.75  1357.57  1366.84  1397.20  1409.16
                             1418.22  1427.05  1431.27  1433.66  1435.43
                             1452.42  1455.39  1487.05  1502.68  1504.22
                             1510.71  1552.01  1570.61  1586.38  1597.83
                             1623.95  1676.38  1677.83  1680.80  1690.72
                             1713.32  1714.77  1747.44  1764.64  1777.80
                             1817.25  1843.84  1862.30  1877.14  1896.33
                             1909.74  1912.90  1944.87  1954.01  1955.29
                             1960.16  1979.84  1985.80  2025.34  2098.72
                             2110.78  2110.85  2113.17  2123.58  2125.13
                             2159.52  2177.66  2183.12  2321.82  2326.16
                             2353.83  2359.72  2456.30  2460.03  2505.93
                             4316.46  4374.20  4377.23  4408.41  4432.45
                             4441.88  4471.08  4474.57  4487.23  4492.37
                             4502.73  4506.81  4546.92  4557.27  4566.60
                             4571.14  4582.02  4583.19  4595.29  4595.67
                             4611.46  4615.38

 Zero-point correction=                           0.378352 (Hartree/Particle)
 Thermal correction to Energy=                    0.401538
 Thermal correction to Enthalpy=                  0.402482
 Thermal correction to Gibbs Free Energy=         0.320035
 Sum of electronic and zero-point Energies=          -1038.908312
 Sum of electronic and thermal Energies=             -1038.885126
 Sum of electronic and thermal Enthalpies=           -1038.884182
 Sum of electronic and thermal Free Energies=        -1038.966629

                     E (Thermal)             CV                S
                      KCal/Mol        Cal/Mol-Kelvin    Cal/Mol-Kelvin
 Total                  251.969             86.231            173.523
 Electronic               0.000              0.000              0.000
 Translational            0.889              2.981             43.205
 Rotational               0.889              2.981             36.089
 Vibrational            250.191             80.269             94.229
 Vibration     1          0.593              1.986              7.153
 Vibration     2          0.593              1.986              6.972
 Vibration     3          0.593              1.986              6.694
 Vibration     4          0.593              1.985              6.493
 Vibration     5          0.594              1.983              5.559
 Vibration     6          0.595              1.980              5.052
 Vibration     7          0.597              1.971              4.303
 Vibration     8          0.598              1.969              4.161
 Vibration     9          0.600              1.961              3.813
 Vibration    10          0.603              1.952              3.519
 Vibration    11          0.605              1.946              3.377
 Vibration    12          0.613              1.920              2.890
 Vibration    13          0.618              1.905              2.695
 Vibration    14          0.621              1.894              2.576
 Vibration    15          0.630              1.864              2.306
 Vibration    16          0.638              1.839              2.126
 Vibration    17          0.653              1.791              1.858
 Vibration    18          0.662              1.766              1.743
 Vibration    19          0.669              1.744              1.655
 Vibration    20          0.690              1.681              1.438
 Vibration    21          0.706              1.634              1.307
 Vibration    22          0.732              1.562              1.138
 Vibration    23          0.748              1.519              1.050
 Vibration    24          0.759              1.488              0.993
 Vibration    25          0.774              1.450              0.929
 Vibration    26          0.777              1.443              0.917
 Vibration    27          0.780              1.434              0.903
 Vibration    28          0.800              1.384              0.828
 Vibration    29          0.831              1.308              0.727
 Vibration    30          0.858              1.245              0.653
 Vibration    31          0.890              1.172              0.576
 Vibration    32          0.955              1.038              0.455

 Optimization completed.
    -- Stationary point found.
 Normal termination of Gaussian 16 at Sun Jun 27 14:24:01 2021.
