 Gaussian 16, Revision A.03,
 Gaussian 16:  ES64L-G16RevA.03 25-Dec-2016

 ----------------------------------------------------------------------
 #p freq=noraman b3lyp scrf=(solvent=dichloromethane,pcm) pop=none empi
 ricaldispersion=gd3bj jul-cc-pvdz
 ----------------------------------------------------------------------

 -----
 title
 -----
 Symbolic Z-matrix:
 Charge =  0 Multiplicity = 6

                         Standard orientation:
 ---------------------------------------------------------------------
 Center     Atomic      Atomic             Coordinates (Angstroms)
 Number     Number       Type             X           Y           Z
 ---------------------------------------------------------------------
      1          6           0        3.366450   -2.389387   -1.193779
      2          6           0        2.624251   -1.196587   -1.341126
      3          6           0        3.071596   -0.205504   -2.245170
      4          6           0        4.232636   -0.406509   -2.980284
      5          6           0        4.969285   -1.587931   -2.815566
      6          6           0        4.537725   -2.574906   -1.921256
      7          6           0        1.418271   -0.961923   -0.561889
      8          6           0        0.795991   -2.051927    0.291087
      9          6           0       -0.709852   -1.832992    0.523811
     10          6           0       -1.531028   -1.972554   -0.768415
     11          6           0       -2.998017   -1.813528   -0.498581
     12          6           0       -3.733783   -0.777645   -0.934370
     13          8           0        0.862515    0.161891   -0.554081
     14          1           0        2.495511    0.707637   -2.380197
     15          1           0        4.568937    0.354649   -3.683550
     16          1           0        5.882852   -1.741083   -3.391122
     17          1           0        5.115418   -3.489781   -1.794333
     18          1           0        3.047420   -3.160249   -0.495773
     19          1           0        0.969542   -3.025506   -0.175102
     20          6           0        1.554664   -2.081012    1.628710
     21          1           0       -1.046449   -2.577811    1.258686
     22          1           0       -0.870611   -0.843738    0.965622
     23          1           0       -1.206908   -1.219335   -1.500137
     24          1           0       -1.336554   -2.964460   -1.209034
     25          1           0       -3.455681   -2.590401    0.121208
     26          8           0        1.366630   -0.951113    2.304752
     27          8           0        2.223643   -3.022746    2.002626
     28          6           0        2.039213   -0.823717    3.595590
     29          6           0        1.545354    0.453741    4.235812
     30          1           0        1.801024   -1.713060    4.191399
     31          1           0        3.119715   -0.806633    3.403524
     32          1           0        2.041159    0.580221    5.208203
     33          1           0        1.777533    1.321134    3.605904
     34          1           0        0.460174    0.414191    4.399802
     35          6           0       -5.162556   -0.530441   -0.685131
     36          6           0       -5.756503    0.626900   -1.221620
     37          6           0       -5.974152   -1.398827    0.072568
     38          6           0       -7.108273    0.912569   -1.012635
     39          1           0       -5.143770    1.312639   -1.810295
     40          6           0       -7.323033   -1.116462    0.282492
     41          1           0       -5.548199   -2.304848    0.504031
     42          6           0       -7.899082    0.041092   -0.258735
     43          1           0       -7.542746    1.817743   -1.439248
     44          1           0       -7.932057   -1.802740    0.872907
     45          1           0       -8.954731    0.258921   -0.091809
     46          1           0       -3.234821   -0.015735   -1.542950
     47         26           0        1.082254    2.017181    0.044105
     48         17           0        1.057376    3.276493   -1.784407
     49         17           0        3.074774    1.968315    1.014265
     50         17           0       -0.633480    2.382403    1.397206
 ---------------------------------------------------------------------

 SCF Done:  E(UB3LYP) =  -3684.03595574     A.U. after   26 cycles

 Isotropic polarizability for W=    0.000000      483.20 Bohr**3.
 End of Minotr F.D. properties file   721 does not exist.

 ******    1 imaginary frequencies (negative Signs) ******

                      1                      2                      3
                      A                      A                      A
 Frequencies --    -32.6282                12.7009                16.2528
 Red. masses --      9.4041                 6.4840                 6.6258
 Frc consts  --      0.0059                 0.0006                 0.0010
 IR Inten    --      0.8431                 0.3539                 1.7883

                      4                      5                      6
                      A                      A                      A
 Frequencies --     17.8377                22.8714                35.9264
 Red. masses --      5.0181                 4.8658                 6.9508
 Frc consts  --      0.0009                 0.0015                 0.0053
 IR Inten    --      0.2215                 0.1681                 1.3548

                      7                      8                      9
                      A                      A                      A
 Frequencies --     43.7692                54.6346                64.3872
 Red. masses --      7.5805                 5.1772                 6.0798
 Frc consts  --      0.0086                 0.0091                 0.0149
 IR Inten    --      1.0988                 0.0994                 2.9592

                     10                     11                     12
                      A                      A                      A
 Frequencies --     67.9030                71.6402                79.2927
 Red. masses --      9.2977                 5.4368                 4.4438
 Frc consts  --      0.0253                 0.0164                 0.0165
 IR Inten    --      0.1206                 0.8591                 2.4706

                     13                     14                     15
                      A                      A                      A
 Frequencies --     83.2226                85.6818                94.7832
 Red. masses --      3.3234                 4.1105                 6.5477
 Frc consts  --      0.0136                 0.0178                 0.0347
 IR Inten    --      0.9429                 0.7875                 1.6985

                     16                     17                     18
                      A                      A                      A
 Frequencies --    106.1943               110.4065               129.8188
 Red. masses --      5.4261                 6.9016                24.0462
 Frc consts  --      0.0361                 0.0496                 0.2388
 IR Inten    --      2.3435                 2.0177                 4.8775

                     19                     20                     21
                      A                      A                      A
 Frequencies --    140.3170               143.2609               157.5101
 Red. masses --      7.1228                 4.9753                 2.4555
 Frc consts  --      0.0826                 0.0602                 0.0359
 IR Inten    --     11.5172                 3.9124                 2.4399

                     22                     23                     24
                      A                      A                      A
 Frequencies --    183.9126               189.4170               206.3476
 Red. masses --      6.1039                 3.6849                 2.5787
 Frc consts  --      0.1216                 0.0779                 0.0647
 IR Inten    --      6.3917                 2.2695                 3.2530

                     25                     26                     27
                      A                      A                      A
 Frequencies --    237.9646               250.3162               259.2006
 Red. masses --      3.0374                 3.5827                 1.6096
 Frc consts  --      0.1013                 0.1323                 0.0637
 IR Inten    --     10.4516                 1.3502                 8.5829

                     28                     29                     30
                      A                      A                      A
 Frequencies --    274.0406               319.6333               329.0272
 Red. masses --      5.1986                 4.7722                20.2049
 Frc consts  --      0.2300                 0.2873                 1.2888
 IR Inten    --     33.7212                 6.1548                48.2029

                     31                     32                     33
                      A                      A                      A
 Frequencies --    331.0853               373.1849               378.5203
 Red. masses --      4.7517                 6.8608                 3.5405
 Frc consts  --      0.3069                 0.5630                 0.2989
 IR Inten    --      5.1416                47.2191                18.4699

                     34                     35                     36
                      A                      A                      A
 Frequencies --    391.4731               396.8314               400.2028
 Red. masses --     16.5478                 4.6924                17.4410
 Frc consts  --      1.4942                 0.4354                 1.6458
 IR Inten    --    151.5147                70.0900               159.8877

                     37                     38                     39
                      A                      A                      A
 Frequencies --    412.3142               419.4388               427.1890
 Red. masses --      2.8428                 3.2184                 4.9087
 Frc consts  --      0.2847                 0.3336                 0.5278
 IR Inten    --      0.0148                12.1908                 3.6641

                     40                     41                     42
                      A                      A                      A
 Frequencies --    439.1489               487.4962               528.8984
 Red. masses --      3.9668                 3.4082                 5.2885
 Frc consts  --      0.4507                 0.4772                 0.8716
 IR Inten    --      6.7378                16.2720                27.5109

                     43                     44                     45
                      A                      A                      A
 Frequencies --    536.1689               613.9553               623.2883
 Red. masses --      3.5494                 5.5847                 6.3275
 Frc consts  --      0.6012                 1.2403                 1.4483
 IR Inten    --     18.4312                14.6014                 1.5871

                     46                     47                     48
                      A                      A                      A
 Frequencies --    628.7918               635.8924               664.8244
 Red. masses --      6.3730                 5.1522                 3.6865
 Frc consts  --      1.4846                 1.2275                 0.9600
 IR Inten    --      0.0261                14.9309                20.9812

                     49                     50                     51
                      A                      A                      A
 Frequencies --    698.8064               703.1264               721.4064
 Red. masses --      1.5643                 2.0503                 3.4451
 Frc consts  --      0.4501                 0.5972                 1.0564
 IR Inten    --     61.5016                58.8866                15.3220

                     52                     53                     54
                      A                      A                      A
 Frequencies --    747.3977               755.7671               768.6004
 Red. masses --      1.5635                 2.1961                 2.1767
 Frc consts  --      0.5146                 0.7391                 0.7576
 IR Inten    --     11.2089               102.9260                 3.2049

                     55                     56                     57
                      A                      A                      A
 Frequencies --    808.2430               816.1681               837.7254
 Red. masses --      1.1299                 3.0213                 1.5890
 Frc consts  --      0.4349                 1.1858                 0.6570
 IR Inten    --      4.1940                18.8326                 0.1354

                     58                     59                     60
                      A                      A                      A
 Frequencies --    838.7471               857.0649               857.5628
 Red. masses --      2.4201                 2.8308                 2.1615
 Frc consts  --      1.0031                 1.2251                 0.9365
 IR Inten    --      0.2787                25.8299                 1.7314

                     61                     62                     63
                      A                      A                      A
 Frequencies --    864.6951               882.6989               924.0666
 Red. masses --      1.2717                 2.9179                 1.5862
 Frc consts  --      0.5602                 1.3395                 0.7980
 IR Inten    --      2.3643                 7.9812                 2.1199

                     64                     65                     66
                      A                      A                      A
 Frequencies --    952.2673               975.1456               977.5261
 Red. masses --      3.8468                 1.4901                 3.3189
 Frc consts  --      2.0553                 0.8348                 1.8685
 IR Inten    --     19.7271                11.7152                53.8961

                     67                     68                     69
                      A                      A                      A
 Frequencies --    979.1163               984.5444               997.6435
 Red. masses --      1.3783                 1.1348                 1.3221
 Frc consts  --      0.7785                 0.6481                 0.7753
 IR Inten    --      0.1722                46.3572                 6.6410

                     70                     71                     72
                      A                      A                      A
 Frequencies --    998.8134              1001.9789              1014.3163
 Red. masses --      4.8454                 5.0565                 1.3663
 Frc consts  --      2.8480                 2.9910                 0.8282
 IR Inten    --      0.1756                12.0699                 0.8851

                     73                     74                     75
                      A                      A                      A
 Frequencies --   1022.8180              1034.9711              1047.9858
 Red. masses --      2.6118                 3.0334                 2.4223
 Frc consts  --      1.6098                 1.9144                 1.5675
 IR Inten    --     24.3085                64.8127                47.0464

                     76                     77                     78
                      A                      A                      A
 Frequencies --   1050.4605              1053.5040              1075.5048
 Red. masses --      2.9120                 2.0740                 1.3588
 Frc consts  --      1.8932                 1.3562                 0.9261
 IR Inten    --     48.9642                 2.3213                13.4672

                     79                     80                     81
                      A                      A                      A
 Frequencies --   1083.1581              1094.7348              1116.0872
 Red. masses --      2.1856                 1.7315                 2.2942
 Frc consts  --      1.5108                 1.2226                 1.6837
 IR Inten    --     18.5545                14.8157                 6.8874

                     82                     83                     84
                      A                      A                      A
 Frequencies --   1132.5346              1139.2281              1166.8006
 Red. masses --      2.1392                 1.6189                 1.3355
 Frc consts  --      1.6166                 1.2379                 1.0713
 IR Inten    --     12.9279                30.7634                16.6989

                     85                     86                     87
                      A                      A                      A
 Frequencies --   1166.8091              1181.9429              1187.2156
 Red. masses --      1.2205                 1.0986                 1.2822
 Frc consts  --      0.9790                 0.9043                 1.0648
 IR Inten    --      8.2917                 3.4658                46.3086

                     88                     89                     90
                      A                      A                      A
 Frequencies --   1193.2748              1202.9949              1232.5407
 Red. masses --      1.1338                 2.1156                 2.0551
 Frc consts  --      0.9512                 1.8039                 1.8394
 IR Inten    --      7.7021               357.9036                 0.8531

                     91                     92                     93
                      A                      A                      A
 Frequencies --   1234.5626              1263.3712              1270.7383
 Red. masses --      1.2311                 2.0676                 1.6240
 Frc consts  --      1.1055                 1.9443                 1.5450
 IR Inten    --     53.4025               367.1012                91.1007

                     94                     95                     96
                      A                      A                      A
 Frequencies --   1285.5773              1306.1526              1314.2106
 Red. masses --      1.1177                 1.2577                 1.9245
 Frc consts  --      1.0884                 1.2642                 1.9584
 IR Inten    --      7.6628                 6.2975               105.3801

                     97                     98                     99
                      A                      A                      A
 Frequencies --   1325.9910              1328.6508              1353.0003
 Red. masses --      1.7127                 1.3544                 1.6288
 Frc consts  --      1.7743                 1.4087                 1.7568
 IR Inten    --     69.7668                 8.3599                14.8273

                    100                    101                    102
                      A                      A                      A
 Frequencies --   1355.3655              1363.6435              1377.0911
 Red. masses --      1.8183                 2.1982                 1.3890
 Frc consts  --      1.9680                 2.4084                 1.5519
 IR Inten    --     19.5372                 8.0976                13.3430

                    103                    104                    105
                      A                      A                      A
 Frequencies --   1382.9870              1385.3623              1396.7094
 Red. masses --      2.8982                 1.5585                 1.4954
 Frc consts  --      3.2660                 1.7623                 1.7188
 IR Inten    --     29.2855                12.5264               109.0818

                    106                    107                    108
                      A                      A                      A
 Frequencies --   1411.3267              1465.8508              1467.3768
 Red. masses --      1.4442                 1.2199                 1.0402
 Frc consts  --      1.6949                 1.5444                 1.3196
 IR Inten    --     29.2099                31.3119                 4.9808

                    109                    110                    111
                      A                      A                      A
 Frequencies --   1470.4597              1472.3630              1477.5432
 Red. masses --      2.4090                 1.8872                 1.0555
 Frc consts  --      3.0690                 2.4104                 1.3577
 IR Inten    --    103.7328                 6.7011                 2.0165

                    112                    113                    114
                      A                      A                      A
 Frequencies --   1484.9402              1499.9428              1520.0773
 Red. masses --      1.1088                 1.0867                 2.3336
 Frc consts  --      1.4405                 1.4405                 3.1769
 IR Inten    --     28.6430                17.8553                17.6120

                    115                    116                    117
                      A                      A                      A
 Frequencies --   1532.5982              1568.3299              1617.2111
 Red. masses --      2.0494                 6.9914                 5.5958
 Frc consts  --      2.8362                10.1319                 8.6227
 IR Inten    --      3.2141              1490.8825                 1.6004

                    118                    119                    120
                      A                      A                      A
 Frequencies --   1618.1052              1643.7886              1646.5487
 Red. masses --      5.1285                 5.8996                 5.4088
 Frc consts  --      7.9114                 9.3921                 8.6397
 IR Inten    --     88.5413                13.7191                85.4661

                    121                    122                    123
                      A                      A                      A
 Frequencies --   1714.4847              1749.5889              3012.6462
 Red. masses --      5.9562                11.4418                 1.0645
 Frc consts  --     10.3155                20.6357                 5.6921
 IR Inten    --      0.7104               509.9545                48.3631

                    124                    125                    126
                      A                      A                      A
 Frequencies --   3045.4189              3055.5134              3069.2958
 Red. masses --      1.0354                 1.0681                 1.0583
 Frc consts  --      5.6581                 5.8753                 5.8740
 IR Inten    --     19.9599                21.3084                23.0379

                    127                    128                    129
                      A                      A                      A
 Frequencies --   3077.3854              3117.0364              3121.9012
 Red. masses --      1.0938                 1.1044                 1.0933
 Frc consts  --      6.1033                 6.3219                 6.2780
 IR Inten    --     29.9223                12.1602                 3.2068

                    130                    131                    132
                      A                      A                      A
 Frequencies --   3124.3786              3125.9073              3134.8304
 Red. masses --      1.1041                 1.0898                 1.0909
 Frc consts  --      6.3504                 6.2744                 6.3166
 IR Inten    --     22.8335                17.2485                12.5570

                    133                    134                    135
                      A                      A                      A
 Frequencies --   3140.8180              3142.5969              3163.0996
 Red. masses --      1.0876                 1.1055                 1.0858
 Frc consts  --      6.3215                 6.4326                 6.4009
 IR Inten    --     38.1014                34.5289                11.5064

                    136                    137                    138
                      A                      A                      A
 Frequencies --   3169.8879              3179.7135              3186.8228
 Red. masses --      1.0868                 1.0911                 1.0870
 Frc consts  --      6.4342                 6.4999                 6.5044
 IR Inten    --      0.3824                17.3288                 0.9629

                    139                    140                    141
                      A                      A                      A
 Frequencies --   3187.8862              3196.3323              3199.9529
 Red. masses --      1.0941                 1.0989                 1.0909
 Frc consts  --      6.5509                 6.6147                 6.5814
 IR Inten    --     43.5052                22.5289                 7.8782

                    142                    143                    144
                      A                      A                      A
 Frequencies --   3206.7445              3221.3066              3239.6168
 Red. masses --      1.0957                 1.0946                 1.0912
 Frc consts  --      6.6382                 6.6923                 6.7475
 IR Inten    --     11.4081                 4.9504                 6.6303

 - Thermochemistry -
 -------------------
 Temperature   298.150 Kelvin.  Pressure   1.00000 Atm.
 Atom     1 has atomic number  6 and mass  12.00000

 Molecular mass:   482.99839 amu.
 Principal axes and moments of inertia in atomic units:
                           1         2         3
     Eigenvalues --  ******************************
           X            0.99997  -0.00794  -0.00006
           Y            0.00794   0.99991   0.01104
           Z           -0.00002  -0.01104   0.99994
 This molecule is an asymmetric top.
 Rotational symmetry number  1.
 Warning -- assumption of classical behavior for rotation
           may cause significant error
 Rotational temperatures (Kelvin)      0.00806     0.00347     0.00330
 Rotational constants (GHZ):           0.16794     0.07239     0.06880
    1 imaginary frequencies ignored.
 Zero-point vibrational energy    1011119.7 (Joules/Mol)
                                  241.66340 (Kcal/Mol)
 Warning -- explicit consideration of  43 degrees of freedom as
           vibrations may cause significant error
 Vibrational temperatures:     18.27    23.38    25.66    32.91    51.69
          (Kelvin)             62.97    78.61    92.64    97.70   103.07
                              114.08   119.74   123.28   136.37   152.79
                              158.85   186.78   201.88   206.12   226.62
                              264.61   272.53   296.89   342.38   360.15
                              372.93   394.28   459.88   473.40   476.36
                              536.93   544.61   563.24   570.95   575.80
                              593.23   603.48   614.63   631.84   701.40
                              760.97   771.43   883.34   896.77   904.69
                              914.91   956.53  1005.43  1011.64  1037.94
                             1075.34  1087.38  1105.84  1162.88  1174.28
                             1205.30  1206.77  1233.13  1233.84  1244.10
                             1270.01  1329.53  1370.10  1403.02  1406.44
                             1408.73  1416.54  1435.39  1437.07  1441.62
                             1459.37  1471.61  1489.09  1507.82  1511.38
                             1515.76  1547.41  1558.42  1575.08  1605.80
                             1629.46  1639.10  1678.77  1678.78  1700.55
                             1708.14  1716.86  1730.84  1773.35  1776.26
                             1817.71  1828.31  1849.66  1879.26  1890.86
                             1907.81  1911.63  1946.67  1950.07  1961.98
                             1981.33  1989.81  1993.23  2009.55  2030.58
                             2109.03  2111.23  2115.66  2118.40  2125.86
                             2136.50  2158.08  2187.05  2205.07  2256.48
                             2326.81  2328.09  2365.05  2369.02  2466.76
                             2517.27  4334.53  4381.68  4396.20  4416.03
                             4427.67  4484.72  4491.72  4495.28  4497.48
                             4510.32  4518.94  4521.50  4550.99  4560.76
                             4574.90  4585.13  4586.66  4598.81  4604.02
                             4613.79  4634.74  4661.09

 Zero-point correction=                           0.385115 (Hartree/Particle)
 Thermal correction to Energy=                    0.414693
 Thermal correction to Enthalpy=                  0.415637
 Thermal correction to Gibbs Free Energy=         0.316439
 Sum of electronic and zero-point Energies=          -3683.650841
 Sum of electronic and thermal Energies=             -3683.621263
 Sum of electronic and thermal Enthalpies=           -3683.620318
 Sum of electronic and thermal Free Energies=        -3683.719517

                     E (Thermal)             CV                S
                      KCal/Mol        Cal/Mol-Kelvin    Cal/Mol-Kelvin
 Total                  260.224            105.340            208.781
 Electronic               0.000              0.000              3.561
 Translational            0.889              2.981             44.412
 Rotational               0.889              2.981             37.195
 Vibrational            258.446             99.378            123.614
 Vibration     1          0.593              1.987              7.536
 Vibration     2          0.593              1.986              7.046
 Vibration     3          0.593              1.986              6.861
 Vibration     4          0.593              1.985              6.368
 Vibration     5          0.594              1.982              5.472
 Vibration     6          0.595              1.980              5.081
 Vibration     7          0.596              1.976              4.642
 Vibration     8          0.597              1.971              4.318
 Vibration     9          0.598              1.970              4.213
 Vibration    10          0.598              1.968              4.108
 Vibration    11          0.600              1.963              3.908
 Vibration    12          0.600              1.961              3.813
 Vibration    13          0.601              1.959              3.756
 Vibration    14          0.603              1.953              3.559
 Vibration    15          0.605              1.944              3.337
 Vibration    16          0.606              1.941              3.262
 Vibration    17          0.612              1.923              2.949
 Vibration    18          0.615              1.913              2.800
 Vibration    19          0.616              1.910              2.760
 Vibration    20          0.621              1.894              2.579
 Vibration    21          0.631              1.862              2.288
 Vibration    22          0.633              1.854              2.234
 Vibration    23          0.641              1.831              2.076
 Vibration    24          0.656              1.783              1.818
 Vibration    25          0.663              1.762              1.728
 Vibration    26          0.668              1.747              1.667
 Vibration    27          0.676              1.721              1.571
 Vibration    28          0.706              1.636              1.312
 Vibration    29          0.712              1.618              1.265
 Vibration    30          0.713              1.613              1.255
 Vibration    31          0.745              1.527              1.067
 Vibration    32          0.749              1.516              1.045
 Vibration    33          0.759              1.488              0.995
 Vibration    34          0.763              1.477              0.974
 Vibration    35          0.766              1.470              0.962
 Vibration    36          0.776              1.443              0.918
 Vibration    37          0.782              1.428              0.894
 Vibration    38          0.789              1.411              0.868
 Vibration    39          0.799              1.385              0.829
 Vibration    40          0.843              1.278              0.690
 Vibration    41          0.884              1.186              0.590
 Vibration    42          0.891              1.170              0.574
 Vibration    43          0.973              1.002              0.426

 Normal termination of Gaussian 16 at Sun Jul 11 05:31:26 2021.
