 Gaussian 16, Revision A.03,
 Gaussian 16:  ES64L-G16RevA.03 25-Dec-2016

 ----------------------------------------------------------------------
 #p opt=(calcfc,ts,noeigentest,maxstep=5) freq=noraman b3lyp scrf=(solv
 ent=dichloroethane,pcm) pop=none empiricaldispersion=gd3bj jul-cc-pvdz
 ----------------------------------------------------------------------

 -----
 title
 -----
 Symbolic Z-matrix:
 Charge =  0 Multiplicity = 6

 SCF Done:  E(UB3LYP) =  -3684.01214389     A.U. after   24 cycles
 Optimization completed.
    -- Stationary point found.
 Normal termination of Gaussian 16 at Tue Jul 13 17:12:02 2021.

 ----------------------------------------------------------------------
 #P Geom=AllCheck Guess=TCheck SCRF=Check GenChk UB3LYP/Jul-CC-pVDZ Fre
 q
 ----------------------------------------------------------------------

 Structure from the checkpoint file:  "/scratch/kwaneu.3017189.bmbhpcps002/Gau-35201.chk"
 -----
 title
 -----
 Charge =  0 Multiplicity = 6

                         Standard orientation:
 ---------------------------------------------------------------------
 Center     Atomic      Atomic             Coordinates (Angstroms)
 Number     Number       Type             X           Y           Z
 ---------------------------------------------------------------------
      1          6           0        1.645619    3.323979    0.246957
      2          6           0        1.232376    1.994493    0.437873
      3          6           0        1.935065    1.193196    1.343587
      4          6           0        3.018833    1.713646    2.060550
      5          6           0        3.420706    3.036137    1.870891
      6          6           0        2.729207    3.840928    0.955703
      7          6           0        0.090406    1.436925   -0.389831
      8          6           0       -1.149744    2.404272   -0.437584
      9          6           0       -1.217271    2.898225   -1.904424
     10          6           0       -0.660295    1.742706   -2.746570
     11          6           0        0.501154    1.209314   -1.897386
     12          6           0        0.663897   -0.275963   -1.879090
     13          8           0       -0.221793    0.095834   -0.004872
     14         26           0       -0.785740   -1.322932    1.041863
     15         17           0        1.026304   -2.380405    1.866882
     16         17           0       -1.743385   -2.746446   -0.427429
     17         17           0       -2.173732   -0.757446    2.684213
     18          1           0        1.648189    0.157036    1.488363
     19          1           0        3.550518    1.073417    2.765357
     20          1           0        4.266261    3.441344    2.427848
     21          1           0        3.034469    4.875579    0.795871
     22          1           0        1.126428    3.966933   -0.463940
     23          1           0       -0.985543    3.232742    0.254680
     24          6           0       -2.454946    1.776746    0.015848
     25          1           0       -2.231372    3.189664   -2.201423
     26          1           0       -0.578106    3.785509   -2.007840
     27          1           0       -1.426076    0.968282   -2.870364
     28          1           0       -0.329681    2.062262   -3.741527
     29          1           0        1.432905    1.729772   -2.134420
     30          8           0       -2.909965    0.849596   -0.836265
     31          8           0       -3.048368    2.127624    1.018190
     32          6           0       -4.182519    0.220212   -0.512452
     33          6           0       -4.596168   -0.600260   -1.714104
     34          1           0       -4.032112   -0.396032    0.382222
     35          1           0       -4.906452    1.009890   -0.276912
     36          1           0       -5.552377   -1.097515   -1.499427
     37          1           0       -4.728178    0.038795   -2.598389
     38          1           0       -3.845701   -1.370036   -1.933667
     39          6           0        1.874155   -0.972486   -1.661053
     40          6           0        1.852076   -2.393029   -1.707144
     41          6           0        3.091540   -0.302597   -1.360978
     42          6           0        3.008648   -3.118105   -1.469341
     43          1           0        0.908390   -2.898909   -1.909589
     44          6           0        4.240890   -1.036987   -1.115807
     45          1           0        3.124178    0.783078   -1.321958
     46          6           0        4.199575   -2.439447   -1.171960
     47          1           0        2.991810   -4.206479   -1.501085
     48          1           0        5.175254   -0.528714   -0.881791
     49          1           0        5.109154   -3.009915   -0.980195
     50          1           0       -0.197133   -0.873273   -2.181102
 ---------------------------------------------------------------------

 SCF Done:  E(UB3LYP) =  -3684.01214389     A.U. after    1 cycles

 Isotropic polarizability for W=    0.000000      476.08 Bohr**3.
 End of Minotr F.D. properties file   721 does not exist.

 ******    1 imaginary frequencies (negative Signs) ******

                      1                      2                      3
                      A                      A                      A
 Frequencies --   -224.1472                18.9791                34.3229
 Red. masses --     12.0014                 6.1617                11.5659
 Frc consts  --      0.3553                 0.0013                 0.0080
 IR Inten    --    745.9768                 0.9980                 4.3844

                      4                      5                      6
                      A                      A                      A
 Frequencies --     38.9909                47.6455                52.5092
 Red. masses --      7.8108                 5.3560                 8.6544
 Frc consts  --      0.0070                 0.0072                 0.0141
 IR Inten    --      2.0562                 2.9269                 5.4658

                      7                      8                      9
                      A                      A                      A
 Frequencies --     63.5483                64.6451                77.0440
 Red. masses --      6.6942                 3.9816                 4.9543
 Frc consts  --      0.0159                 0.0098                 0.0173
 IR Inten    --      0.4095                 0.2747                 1.7230

                     10                     11                     12
                      A                      A                      A
 Frequencies --     82.3074                82.8878                93.2226
 Red. masses --      6.7206                 3.9114                 9.4227
 Frc consts  --      0.0268                 0.0158                 0.0482
 IR Inten    --      4.9687                 1.1630                 6.2112

                     13                     14                     15
                      A                      A                      A
 Frequencies --    101.5065               108.7281               109.3721
 Red. masses --      6.1622                 7.1577                16.8960
 Frc consts  --      0.0374                 0.0499                 0.1191
 IR Inten    --      1.7600                 0.7808                 5.0206

                     16                     17                     18
                      A                      A                      A
 Frequencies --    118.5747               131.4848               142.2949
 Red. masses --      4.8911                 3.1192                 3.8812
 Frc consts  --      0.0405                 0.0318                 0.0463
 IR Inten    --      1.7519                 4.2473                 7.5915

                     19                     20                     21
                      A                      A                      A
 Frequencies --    148.5090               170.2330               188.5765
 Red. masses --     14.3669                 4.6297                 3.0172
 Frc consts  --      0.1867                 0.0790                 0.0632
 IR Inten    --      9.4009                13.7855                 3.2530

                     22                     23                     24
                      A                      A                      A
 Frequencies --    208.6493               235.8781               236.4624
 Red. masses --      4.0756                 3.1037                 4.2000
 Frc consts  --      0.1045                 0.1017                 0.1384
 IR Inten    --      7.6392                 3.0649                35.0286

                     25                     26                     27
                      A                      A                      A
 Frequencies --    260.0943               270.7333               287.4250
 Red. masses --      2.5175                 2.4641                 3.5796
 Frc consts  --      0.1003                 0.1064                 0.1742
 IR Inten    --      9.4823                 8.6633                 6.9767

                     28                     29                     30
                      A                      A                      A
 Frequencies --    302.9995               319.1987               338.2627
 Red. masses --      4.8213                 7.8608                15.0186
 Frc consts  --      0.2608                 0.4719                 1.0125
 IR Inten    --     29.2725                 7.0984                90.6908

                     31                     32                     33
                      A                      A                      A
 Frequencies --    339.9819               363.5274               372.4506
 Red. masses --     26.4949                 4.3303                31.6662
 Frc consts  --      1.8044                 0.3372                 2.5881
 IR Inten    --    134.3327                20.5537               169.1232

                     34                     35                     36
                      A                      A                      A
 Frequencies --    387.8003               402.5182               414.7001
 Red. masses --      3.7622                 3.0228                 3.0985
 Frc consts  --      0.3334                 0.2886                 0.3140
 IR Inten    --      6.8279                 5.6863                 0.7452

                     37                     38                     39
                      A                      A                      A
 Frequencies --    418.9041               421.7441               478.6808
 Red. masses --      4.2277                 3.6546                 3.7352
 Frc consts  --      0.4371                 0.3830                 0.5043
 IR Inten    --     11.1343                10.4913                 3.6161

                     40                     41                     42
                      A                      A                      A
 Frequencies --    502.6391               558.9391               580.9171
 Red. masses --      3.6755                 3.4281                 3.3454
 Frc consts  --      0.5471                 0.6310                 0.6652
 IR Inten    --     57.4374                 6.7174                22.4385

                     43                     44                     45
                      A                      A                      A
 Frequencies --    601.2301               621.2947               629.4869
 Red. masses --      5.2509                 5.8717                 6.0855
 Frc consts  --      1.1183                 1.3354                 1.4208
 IR Inten    --      9.7089                 2.5176                 0.9207

                     46                     47                     48
                      A                      A                      A
 Frequencies --    641.4974               670.6563               701.3471
 Red. masses --      3.1571                 1.5741                 4.1354
 Frc consts  --      0.7655                 0.4171                 1.1985
 IR Inten    --      4.0633                80.7626                20.0994

                     49                     50                     51
                      A                      A                      A
 Frequencies --    709.5940               712.7055               743.5598
 Red. masses --      4.6307                 1.5939                 5.2620
 Frc consts  --      1.3738                 0.4770                 1.7141
 IR Inten    --     25.4765                79.7817                24.1196

                     52                     53                     54
                      A                      A                      A
 Frequencies --    764.5736               779.5677               808.5397
 Red. masses --      2.2431                 1.8730                 1.1115
 Frc consts  --      0.7726                 0.6707                 0.4281
 IR Inten    --     40.8050                27.4301                 2.6629

                     55                     56                     57
                      A                      A                      A
 Frequencies --    831.0409               837.7299               851.0274
 Red. masses --      1.4746                 2.8357                 3.2947
 Frc consts  --      0.6000                 1.1725                 1.4059
 IR Inten    --      0.3209                17.2814                28.0752

                     58                     59                     60
                      A                      A                      A
 Frequencies --    854.0292               864.0861               879.5412
 Red. masses --      1.2578                 2.5856                 2.9469
 Frc consts  --      0.5405                 1.1374                 1.3432
 IR Inten    --      0.8493                20.9315                15.8031

                     61                     62                     63
                      A                      A                      A
 Frequencies --    914.0828               930.1735               938.4585
 Red. masses --      4.0018                 1.7452                 2.1368
 Frc consts  --      1.9701                 0.8897                 1.1088
 IR Inten    --     49.5335                 6.8929                 6.7048

                     64                     65                     66
                      A                      A                      A
 Frequencies --    948.8907               959.7996               980.0557
 Red. masses --      1.7129                 1.5495                 2.0693
 Frc consts  --      0.9087                 0.8410                 1.1710
 IR Inten    --     10.5810                14.2158                55.2069

                     67                     68                     69
                      A                      A                      A
 Frequencies --    991.8520               993.1798               999.4490
 Red. masses --      1.4132                 1.6190                 2.7334
 Frc consts  --      0.8191                 0.9409                 1.6087
 IR Inten    --      4.3672                 4.2084                47.5165

                     70                     71                     72
                      A                      A                      A
 Frequencies --   1003.7464              1008.4966              1011.3660
 Red. masses --      2.8802                 2.2912                 1.8412
 Frc consts  --      1.7097                 1.3730                 1.1096
 IR Inten    --     20.5500                 8.7497                 4.0561

                     73                     74                     75
                      A                      A                      A
 Frequencies --   1023.2051              1030.1854              1040.3477
 Red. masses --      1.3838                 2.1921                 2.5933
 Frc consts  --      0.8536                 1.3707                 1.6537
 IR Inten    --      1.9677                44.3109                53.6742

                     76                     77                     78
                      A                      A                      A
 Frequencies --   1043.0010              1046.9436              1054.9191
 Red. masses --      2.3035                 3.1939                 2.2313
 Frc consts  --      1.4764                 2.0626                 1.4630
 IR Inten    --      2.1841                48.7057                14.4614

                     79                     80                     81
                      A                      A                      A
 Frequencies --   1081.1092              1087.7673              1105.5074
 Red. masses --      4.1179                 2.6834                 1.7760
 Frc consts  --      2.8357                 1.8707                 1.2788
 IR Inten    --    177.0982               166.0181                 4.4558

                     82                     83                     84
                      A                      A                      A
 Frequencies --   1120.1272              1131.5167              1147.2347
 Red. masses --      1.7052                 2.1511                 2.1248
 Frc consts  --      1.2606                 1.6227                 1.6477
 IR Inten    --      8.1466                11.1230                49.3034

                     85                     86                     87
                      A                      A                      A
 Frequencies --   1166.0155              1170.3617              1171.1866
 Red. masses --      1.5888                 1.3051                 1.2860
 Frc consts  --      1.2727                 1.0533                 1.0393
 IR Inten    --      8.0655                 4.7894                 2.7617

                     88                     89                     90
                      A                      A                      A
 Frequencies --   1181.1088              1184.0217              1199.8804
 Red. masses --      1.0997                 1.4542                 1.1623
 Frc consts  --      0.9039                 1.2011                 0.9859
 IR Inten    --     17.8108                63.5774                70.9364

                     91                     92                     93
                      A                      A                      A
 Frequencies --   1209.8649              1217.8951              1241.0159
 Red. masses --      1.1479                 1.3619                 2.4288
 Frc consts  --      0.9900                 1.1902                 2.2040
 IR Inten    --      0.7559                22.3892                21.2169

                     94                     95                     96
                      A                      A                      A
 Frequencies --   1263.3713              1282.7252              1286.7613
 Red. masses --      1.5614                 1.4607                 1.3983
 Frc consts  --      1.4683                 1.4160                 1.3641
 IR Inten    --     75.3111               102.2030                67.1650

                     97                     98                     99
                      A                      A                      A
 Frequencies --   1300.1723              1303.5065              1336.0900
 Red. masses --      1.5877                 1.5618                 1.5544
 Frc consts  --      1.5813                 1.5635                 1.6348
 IR Inten    --    215.5200               124.4139                16.6972

                    100                    101                    102
                      A                      A                      A
 Frequencies --   1345.4522              1350.0701              1351.9229
 Red. masses --      1.9778                 1.4479                 1.4778
 Frc consts  --      2.1095                 1.5549                 1.5913
 IR Inten    --     12.7612                21.5922                91.0893

                    103                    104                    105
                      A                      A                      A
 Frequencies --   1360.2988              1364.7690              1378.8261
 Red. masses --      1.3705                 2.2125                 1.3363
 Frc consts  --      1.4941                 2.4281                 1.4968
 IR Inten    --     25.1401                 0.7280                38.0102

                    106                    107                    108
                      A                      A                      A
 Frequencies --   1393.7600              1410.1716              1455.4559
 Red. masses --      5.6574                 1.4924                 2.1533
 Frc consts  --      6.4750                 1.7486                 2.6876
 IR Inten    --     64.6880                 8.4753               114.8948

                    109                    110                    111
                      A                      A                      A
 Frequencies --   1467.9842              1469.5103              1477.2116
 Red. masses --      1.0405                 2.2573                 1.1046
 Frc consts  --      1.3211                 2.8720                 1.4201
 IR Inten    --      4.5270                10.6320                28.3446

                    112                    113                    114
                      A                      A                      A
 Frequencies --   1479.6311              1488.6635              1490.9529
 Red. masses --      1.0520                 1.4351                 1.4713
 Frc consts  --      1.3569                 1.8738                 1.9270
 IR Inten    --      5.6106                37.4076                44.5006

                    115                    116                    117
                      A                      A                      A
 Frequencies --   1504.5280              1524.1807              1538.8080
 Red. masses --      1.0895                 2.1876                 3.0724
 Frc consts  --      1.4531                 2.9942                 4.2864
 IR Inten    --     12.8236                10.0747               200.8487

                    118                    119                    120
                      A                      A                      A
 Frequencies --   1601.6113              1626.1594              1639.8828
 Red. masses --      4.6953                 5.7194                 5.6373
 Frc consts  --      7.0963                 8.9109                 8.9320
 IR Inten    --      4.4922                 0.3798               367.0529

                    121                    122                    123
                      A                      A                      A
 Frequencies --   1646.0717              1743.3865              3039.8311
 Red. masses --      5.7204                11.0457                 1.0356
 Frc consts  --      9.1322                19.7801                 5.6381
 IR Inten    --      3.2163               483.1407                28.0508

                    124                    125                    126
                      A                      A                      A
 Frequencies --   3057.5606              3070.2329              3073.4534
 Red. masses --      1.0646                 1.0580                 1.0604
 Frc consts  --      5.8640                 5.8760                 5.9014
 IR Inten    --     43.0396                22.7851                35.5865

                    127                    128                    129
                      A                      A                      A
 Frequencies --   3110.9058              3112.3389              3117.3370
 Red. masses --      1.1032                 1.0982                 1.0941
 Frc consts  --      6.2906                 6.2677                 6.2646
 IR Inten    --     17.6686                29.4713                 4.9372

                    130                    131                    132
                      A                      A                      A
 Frequencies --   3122.0853              3131.8785              3137.4467
 Red. masses --      1.1038                 1.1012                 1.1062
 Frc consts  --      6.3391                 6.3642                 6.4153
 IR Inten    --     18.9191                34.9305                39.2953

                    133                    134                    135
                      A                      A                      A
 Frequencies --   3137.9637              3171.4491              3179.1954
 Red. masses --      1.0874                 1.0850                 1.0887
 Frc consts  --      6.3085                 6.4299                 6.4832
 IR Inten    --     16.1520                 1.1569                 4.8434

                    136                    137                    138
                      A                      A                      A
 Frequencies --   3182.5014              3188.1509              3188.8994
 Red. masses --      1.0912                 1.0936                 1.0875
 Frc consts  --      6.5114                 6.5495                 6.5160
 IR Inten    --      0.6247                33.5650                 1.1958

                    139                    140                    141
                      A                      A                      A
 Frequencies --   3198.0558              3198.7422              3206.0319
 Red. masses --      1.0986                 1.0903                 1.0931
 Frc consts  --      6.6198                 6.5727                 6.6198
 IR Inten    --     25.8446                 1.9230                 5.4496

                    142                    143                    144
                      A                      A                      A
 Frequencies --   3214.1299              3229.4984              3239.0404
 Red. masses --      1.0983                 1.0940                 1.0912
 Frc consts  --      6.6847                 6.7226                 6.7449
 IR Inten    --     10.8950                 2.4958                18.0625

 - Thermochemistry -
 -------------------
 Temperature   298.150 Kelvin.  Pressure   1.00000 Atm.
 Atom     1 has atomic number  6 and mass  12.00000

 Molecular mass:   482.99839 amu.
 Principal axes and moments of inertia in atomic units:
                           1         2         3
     Eigenvalues --  ******************************
           X            0.99952  -0.00731   0.03020
           Y            0.00678   0.99982   0.01765
           Z           -0.03033  -0.01744   0.99939
 This molecule is an asymmetric top.
 Rotational symmetry number  1.
 Warning -- assumption of classical behavior for rotation
           may cause significant error
 Rotational temperatures (Kelvin)      0.00814     0.00655     0.00537
 Rotational constants (GHZ):           0.16962     0.13652     0.11197
    1 imaginary frequencies ignored.
 Zero-point vibrational energy    1014438.2 (Joules/Mol)
                                  242.45655 (Kcal/Mol)
 Warning -- explicit consideration of  42 degrees of freedom as
           vibrations may cause significant error
 Vibrational temperatures:     27.31    49.38    56.10    68.55    75.55
          (Kelvin)             91.43    93.01   110.85   118.42   119.26
                              134.13   146.05   156.44   157.36   170.60
                              189.18   204.73   213.67   244.93   271.32
                              300.20   339.38   340.22   374.22   389.52
                              413.54   435.95   459.26   486.68   489.16
                              523.03   535.87   557.96   579.13   596.66
                              602.71   606.80   688.71   723.19   804.19
                              835.81   865.04   893.90   905.69   922.97
                              964.92  1009.08  1020.95  1025.42  1069.82
                             1100.05  1121.62  1163.31  1195.68  1205.31
                             1224.44  1228.76  1243.23  1265.46  1315.16
                             1338.31  1350.23  1365.24  1380.94  1410.08
                             1427.05  1428.96  1437.98  1444.17  1451.00
                             1455.13  1472.16  1482.21  1496.83  1500.65
                             1506.32  1517.79  1555.48  1565.05  1590.58
                             1611.61  1628.00  1650.61  1677.64  1683.89
                             1685.08  1699.35  1703.54  1726.36  1740.73
                             1752.28  1785.55  1817.71  1845.56  1851.36
                             1870.66  1875.46  1922.34  1935.81  1942.45
                             1945.12  1957.17  1963.60  1983.82  2005.31
                             2028.92  2094.08  2112.10  2114.30  2125.38
                             2128.86  2141.85  2145.15  2164.68  2192.96
                             2214.00  2304.36  2339.68  2359.43  2368.33
                             2508.34  4373.64  4399.15  4417.38  4422.01
                             4475.90  4477.96  4485.15  4491.98  4506.07
                             4514.09  4514.83  4563.01  4574.15  4578.91
                             4587.04  4588.12  4601.29  4602.28  4612.76
                             4624.42  4646.53  4660.26

 Zero-point correction=                           0.386379 (Hartree/Particle)
 Thermal correction to Energy=                    0.414670
 Thermal correction to Enthalpy=                  0.415614
 Thermal correction to Gibbs Free Energy=         0.323471
 Sum of electronic and zero-point Energies=          -3683.625765
 Sum of electronic and thermal Energies=             -3683.597474
 Sum of electronic and thermal Enthalpies=           -3683.596530
 Sum of electronic and thermal Free Energies=        -3683.688673

                     E (Thermal)             CV                S
                      KCal/Mol        Cal/Mol-Kelvin    Cal/Mol-Kelvin
 Total                  260.209            103.743            193.931
 Electronic               0.000              0.000              3.561
 Translational            0.889              2.981             44.412
 Rotational               0.889              2.981             36.070
 Vibrational            258.432             97.781            109.887
 Vibration     1          0.593              1.986              6.738
 Vibration     2          0.594              1.983              5.562
 Vibration     3          0.594              1.981              5.310
 Vibration     4          0.595              1.978              4.913
 Vibration     5          0.596              1.977              4.721
 Vibration     6          0.597              1.972              4.344
 Vibration     7          0.597              1.971              4.310
 Vibration     8          0.599              1.964              3.965
 Vibration     9          0.600              1.961              3.835
 Vibration    10          0.600              1.961              3.821
 Vibration    11          0.602              1.954              3.591
 Vibration    12          0.604              1.948              3.425
 Vibration    13          0.606              1.942              3.291
 Vibration    14          0.606              1.942              3.280
 Vibration    15          0.609              1.934              3.123
 Vibration    16          0.612              1.922              2.924
 Vibration    17          0.616              1.911              2.773
 Vibration    18          0.618              1.904              2.691
 Vibration    19          0.625              1.879              2.433
 Vibration    20          0.633              1.856              2.242
 Vibration    21          0.642              1.827              2.055
 Vibration    22          0.655              1.786              1.834
 Vibration    23          0.655              1.785              1.829
 Vibration    24          0.668              1.746              1.661
 Vibration    25          0.674              1.727              1.592
 Vibration    26          0.685              1.697              1.489
 Vibration    27          0.694              1.668              1.400
 Vibration    28          0.705              1.637              1.314
 Vibration    29          0.719              1.599              1.220
 Vibration    30          0.720              1.596              1.212
 Vibration    31          0.737              1.547              1.107
 Vibration    32          0.744              1.529              1.070
 Vibration    33          0.756              1.496              1.009
 Vibration    34          0.768              1.465              0.953
 Vibration    35          0.778              1.438              0.910
 Vibration    36          0.782              1.429              0.896
 Vibration    37          0.784              1.423              0.886
 Vibration    38          0.835              1.297              0.714
 Vibration    39          0.858              1.244              0.652
 Vibration    40          0.915              1.120              0.526
 Vibration    41          0.938              1.073              0.484
 Vibration    42          0.959              1.029              0.448

 Optimization completed.
    -- Stationary point found.
 Normal termination of Gaussian 16 at Tue Jul 13 22:39:59 2021.
