 Gaussian 16, Revision A.03,
 Gaussian 16:  ES64L-G16RevA.03 25-Dec-2016

 ----------------------------------------------------------------------
 #p freq=noraman ub3lyp scrf=(solvent=dichloroethane,pcm) jul-cc-pvdz p
 op=cm5
 ----------------------------------------------------------------------

 -----
 title
 -----
 Symbolic Z-matrix:
 Charge =  0 Multiplicity = 6

                         Standard orientation:
 ---------------------------------------------------------------------
 Center     Atomic      Atomic             Coordinates (Angstroms)
 Number     Number       Type             X           Y           Z
 ---------------------------------------------------------------------
      1          6           0       -2.273706    1.398488    0.917229
      2          6           0       -1.200169    0.504931    1.077115
      3          6           0       -0.766089    0.206860    2.376521
      4          6           0       -1.387204    0.786342    3.487862
      5          6           0       -2.452059    1.676132    3.319391
      6          6           0       -2.893942    1.978765    2.027123
      7          6           0       -0.510054   -0.142294   -0.129702
      8          6           0       -1.433151   -1.111627   -1.020143
      9          6           0       -1.357795   -0.601945   -2.469397
     10          6           0       -0.045583    0.188232   -2.542818
     11          6           0       -0.079679    0.986973   -1.208237
     12          6           0        1.202345    1.591927   -0.883000
     13          8           0        0.612228   -0.836849    0.281541
     14         26           0        1.927806   -2.098008    0.176115
     15         17           0        1.406932   -3.715259   -1.313373
     16         17           0        2.275162   -2.927564    2.253743
     17         17           0        3.832878   -1.052684   -0.511652
     18          1           0        0.059943   -0.487477    2.515567
     19          1           0       -1.035540    0.536544    4.490134
     20          1           0       -2.935816    2.128602    4.186361
     21          1           0       -3.725979    2.668951    1.879341
     22          1           0       -2.651719    1.641838   -0.075682
     23          1           0       -0.928969   -2.079804   -0.943136
     24          6           0       -2.819568   -1.361146   -0.450232
     25          1           0       -1.378061   -1.427775   -3.191748
     26          1           0       -2.203775    0.058628   -2.693183
     27          1           0        0.824780   -0.479631   -2.568569
     28          1           0        0.008884    0.858887   -3.408579
     29          1           0       -0.885908    1.723617   -1.265272
     30          8           0       -3.788244   -0.654087   -1.055829
     31          8           0       -3.029342   -2.139654    0.462380
     32          6           0       -5.143702   -0.839273   -0.553960
     33          6           0       -6.061306    0.047159   -1.370394
     34          1           0       -5.401785   -1.901868   -0.649725
     35          1           0       -5.152571   -0.576858    0.511905
     36          1           0       -7.093795   -0.080240   -1.015753
     37          1           0       -5.788158    1.106142   -1.263385
     38          1           0       -6.026645   -0.221610   -2.435277
     39          6           0        1.503588    2.944916   -0.681730
     40          6           0        2.853457    3.284077   -0.346264
     41          6           0        0.530005    3.987887   -0.783892
     42          6           0        3.209856    4.602406   -0.119773
     43          1           0        3.591600    2.485169   -0.267007
     44          6           0        0.898251    5.300618   -0.556028
     45          1           0       -0.499468    3.748532   -1.042612
     46          6           0        2.232960    5.606221   -0.225183
     47          1           0        4.235797    4.861429    0.138664
     48          1           0        0.162210    6.100041   -0.632103
     49          1           0        2.512875    6.645859   -0.047996
     50          1           0        2.038775    0.893684   -0.780811
 ---------------------------------------------------------------------

 SCF Done:  E(UB3LYP) =  -3683.88550387     A.U. after   24 cycles

 The electronic state is 6-A.
 Alpha  occ. eigenvalues -- -256.19026-101.50962-101.50912-101.50564 -30.18428
 Alpha  occ. eigenvalues --  -26.03714 -26.03702 -26.03556 -19.20186 -19.15536
 Alpha  occ. eigenvalues --  -19.14579 -10.32513 -10.29165 -10.28822 -10.25580
 Alpha  occ. eigenvalues --  -10.25446 -10.25256 -10.25212 -10.24854 -10.23676
 Alpha  occ. eigenvalues --  -10.23533 -10.23372 -10.21435 -10.21361 -10.21002
 Alpha  occ. eigenvalues --  -10.20242 -10.20121 -10.20015 -10.19975 -10.19872
 Alpha  occ. eigenvalues --  -10.19591 -10.18916  -9.42650  -9.42589  -9.42256
 Alpha  occ. eigenvalues --   -7.18515  -7.18462  -7.18199  -7.18192  -7.18135
 Alpha  occ. eigenvalues --   -7.18131  -7.18118  -7.17813  -7.17774  -3.66166
 Alpha  occ. eigenvalues --   -2.43640  -2.43548  -2.43365  -1.11755  -1.03197
 Alpha  occ. eigenvalues --   -1.02857  -0.91718  -0.87615  -0.86435  -0.83563
 Alpha  occ. eigenvalues --   -0.80121  -0.79168  -0.78586  -0.77974  -0.77681
 Alpha  occ. eigenvalues --   -0.77477  -0.76899  -0.75621  -0.72572  -0.69922
 Alpha  occ. eigenvalues --   -0.66235  -0.65456  -0.63565  -0.61987  -0.61660
 Alpha  occ. eigenvalues --   -0.60223  -0.58847  -0.57234  -0.56467  -0.54183
 Alpha  occ. eigenvalues --   -0.53353  -0.51976  -0.50777  -0.50221  -0.49331
 Alpha  occ. eigenvalues --   -0.48784  -0.48359  -0.47492  -0.47029  -0.46782
 Alpha  occ. eigenvalues --   -0.46582  -0.46229  -0.46132  -0.45886  -0.45280
 Alpha  occ. eigenvalues --   -0.44798  -0.43983  -0.43105  -0.42958  -0.42759
 Alpha  occ. eigenvalues --   -0.41764  -0.41159  -0.40693  -0.40400  -0.39937
 Alpha  occ. eigenvalues --   -0.39267  -0.38826  -0.37803  -0.37660  -0.37414
 Alpha  occ. eigenvalues --   -0.36840  -0.36486  -0.35897  -0.35784  -0.34864
 Alpha  occ. eigenvalues --   -0.34567  -0.33509  -0.33102  -0.32378  -0.31598
 Alpha  occ. eigenvalues --   -0.30601  -0.30367  -0.29947  -0.29766  -0.29472
 Alpha  occ. eigenvalues --   -0.29351  -0.29118  -0.28736  -0.28057  -0.27871
 Alpha  occ. eigenvalues --   -0.26479  -0.25948
 Alpha virt. eigenvalues --   -0.16400  -0.05603  -0.03291  -0.02953  -0.02324
 Alpha virt. eigenvalues --   -0.01453  -0.01109  -0.00625  -0.00340   0.00172
 Alpha virt. eigenvalues --    0.01014   0.01065   0.01331   0.01654   0.02380

  Beta  occ. eigenvalues -- -256.18843-101.50798-101.50763-101.50408 -30.09479
  Beta  occ. eigenvalues --  -25.96246 -25.96246 -25.96106 -19.20185 -19.14662
  Beta  occ. eigenvalues --  -19.14576 -10.32513 -10.29143 -10.28819 -10.25578
  Beta  occ. eigenvalues --  -10.25447 -10.25255 -10.25210 -10.24854 -10.23677
  Beta  occ. eigenvalues --  -10.23534 -10.23345 -10.21412 -10.21363 -10.20977
  Beta  occ. eigenvalues --  -10.20240 -10.20119 -10.20015 -10.19976 -10.19871
  Beta  occ. eigenvalues --  -10.19591 -10.18916  -9.42489  -9.42442  -9.42103
  Beta  occ. eigenvalues --   -7.18235  -7.18187  -7.17982  -7.17980  -7.17948
  Beta  occ. eigenvalues --   -7.17936  -7.17855  -7.17598  -7.17590  -3.45316
  Beta  occ. eigenvalues --   -2.21613  -2.21582  -2.21446  -1.11751  -1.02940
  Beta  occ. eigenvalues --   -1.01385  -0.91699  -0.87399  -0.86417  -0.83519
  Beta  occ. eigenvalues --   -0.80119  -0.79153  -0.77637  -0.77286  -0.76980
  Beta  occ. eigenvalues --   -0.76789  -0.76603  -0.75608  -0.72518  -0.69776
  Beta  occ. eigenvalues --   -0.66118  -0.65450  -0.63488  -0.61909  -0.61616
  Beta  occ. eigenvalues --   -0.60184  -0.58472  -0.56968  -0.56396  -0.54042
  Beta  occ. eigenvalues --   -0.52394  -0.51893  -0.50548  -0.50213  -0.48832
  Beta  occ. eigenvalues --   -0.48526  -0.48123  -0.47261  -0.46833  -0.46065
  Beta  occ. eigenvalues --   -0.45588  -0.44562  -0.44014  -0.43044  -0.42755
  Beta  occ. eigenvalues --   -0.41794  -0.41290  -0.40801  -0.40382  -0.39902
  Beta  occ. eigenvalues --   -0.39257  -0.38811  -0.37740  -0.37589  -0.37337
  Beta  occ. eigenvalues --   -0.36848  -0.36434  -0.36338  -0.35704  -0.35118
  Beta  occ. eigenvalues --   -0.34741  -0.34279  -0.34076  -0.32805  -0.31833
  Beta  occ. eigenvalues --   -0.31674  -0.31597  -0.31321  -0.30928  -0.30813
  Beta  occ. eigenvalues --   -0.30585  -0.28929  -0.28444  -0.28143  -0.27997
  Beta  occ. eigenvalues --   -0.26486  -0.25935
  Beta virt. eigenvalues --   -0.16425  -0.12787  -0.12716  -0.11681  -0.11425
  Beta virt. eigenvalues --   -0.10514  -0.05597  -0.03267  -0.02901  -0.02306
  Beta virt. eigenvalues --   -0.01407  -0.01057  -0.00538  -0.00319   0.00189

 Mulliken charges and spin densities:
               1          2
     1  C   -0.335539   0.001445
     2  C    2.691290   0.012455
     3  C   -0.561602  -0.010280
     4  C   -0.056777   0.005067
     5  C    0.259645  -0.001357
     6  C   -0.046458   0.001990
     7  C   -0.918971  -0.018362
     8  C    0.844109   0.004902
     9  C    0.573653   0.003474
    10  C    0.851810   0.001053
    11  C   -1.088987   0.043989
    12  C   -0.152991  -0.020648
    13  O   -0.665862   0.295618
    14  Fe   0.753527   4.036877
    15  Cl  -0.519213   0.215407
    16  Cl  -0.534454   0.211752
    17  Cl  -0.531862   0.196047
    18  H   -0.204869   0.001553
    19  H   -0.160205   0.000023
    20  H   -0.171356   0.000015
    21  H   -0.171879   0.000214
    22  H   -0.214769  -0.000003
    23  H   -0.249159   0.000654
    24  C    0.745062   0.004812
    25  H   -0.154322   0.000413
    26  H   -0.079886  -0.000060
    27  H   -0.045114   0.000327
    28  H   -0.152900   0.000412
    29  H   -0.219140   0.000832
    30  O   -0.777567   0.000487
    31  O   -0.701438   0.000703
    32  C    0.472914   0.000078
    33  C    0.067678   0.000003
    34  H   -0.047597   0.000019
    35  H   -0.041449   0.000022
    36  H   -0.003332   0.000007
    37  H    0.017889  -0.000001
    38  H    0.020501   0.000003
    39  C    2.847837   0.006242
    40  C   -0.361297   0.000123
    41  C    0.148843   0.000274
    42  C   -0.135784  -0.000587
    43  H   -0.151898  -0.000354
    44  C   -0.176651  -0.000976
    45  H   -0.204693  -0.000102
    46  C    0.253402   0.001999
    47  H   -0.145332   0.000012
    48  H   -0.138562   0.000007
    49  H   -0.123874  -0.000029
    50  H   -0.302368   0.003446
 Sum of Mulliken charges =  -0.00000   5.00000

 Dipole moment (field-independent basis, Debye):
    X=             -6.7063    Y=             24.6336    Z=             -5.9012  Tot=             26.2033
 Quadrupole moment (field-independent basis, Debye-Ang):
   XX=           -193.0677   YY=           -174.9369   ZZ=           -199.3633
   XY=             36.0871   XZ=              2.5845   YZ=              2.7424

  Exact polarizability: 505.440  18.202 570.936   5.977   9.569 423.629
 Approx polarizability: 557.657  13.912 634.016  18.473  13.331 499.575

 ******    2 imaginary frequencies (negative Signs) ******

                      1                      2                      3
                      A                      A                      A
 Frequencies --    -19.5022               -17.0306                25.2460
 Red. masses --      4.5827                 4.5971                 4.7234
 Frc consts  --      0.0010                 0.0008                 0.0018
 IR Inten    --      1.4905                 0.5355                 0.4241

                      4                      5                      6
                      A                      A                      A
 Frequencies --     32.5606                34.9310                41.0375
 Red. masses --      4.3118                10.0608                 7.7250
 Frc consts  --      0.0027                 0.0072                 0.0077
 IR Inten    --      0.4797                 1.0606                 6.3506

                      7                      8                      9
                      A                      A                      A
 Frequencies --     49.4057                50.5022                67.2112
 Red. masses --      3.7999                 8.6815                 4.7207
 Frc consts  --      0.0055                 0.0130                 0.0126
 IR Inten    --      0.4405                 0.3278                 0.5698

                     10                     11                     12
                      A                      A                      A
 Frequencies --     77.6376                80.0234                87.6946
 Red. masses --      4.2570                 3.9365                25.1124
 Frc consts  --      0.0151                 0.0149                 0.1138
 IR Inten    --      4.0743                 2.1781                 1.6587

                     13                     14                     15
                      A                      A                      A
 Frequencies --     91.9113               102.2763               113.2776
 Red. masses --     11.9345                11.0312                15.7329
 Frc consts  --      0.0594                 0.0680                 0.1189
 IR Inten    --     15.5169                 0.1876                 4.0018

                     16                     17                     18
                      A                      A                      A
 Frequencies --    116.3067               123.6096               134.7313
 Red. masses --      4.6634                10.9279                 3.5012
 Frc consts  --      0.0372                 0.0984                 0.0374
 IR Inten    --      2.7047                 5.6698                 3.0846

                     19                     20                     21
                      A                      A                      A
 Frequencies --    149.1910               156.3009               191.7935
 Red. masses --      3.9091                 6.5289                 2.9006
 Frc consts  --      0.0513                 0.0940                 0.0629
 IR Inten    --      2.9032                 2.1239                 3.1804

                     22                     23                     24
                      A                      A                      A
 Frequencies --    213.6239               234.1264               257.1032
 Red. masses --      3.5666                 4.2593                 2.8144
 Frc consts  --      0.0959                 0.1376                 0.1096
 IR Inten    --      1.2771                 1.3869                 3.0682

                     25                     26                     27
                      A                      A                      A
 Frequencies --    264.4095               269.8346               280.6043
 Red. masses --      1.9096                 3.7546                 6.2640
 Frc consts  --      0.0787                 0.1611                 0.2906
 IR Inten    --      1.7333                 6.7037                16.8687

                     28                     29                     30
                      A                      A                      A
 Frequencies --    302.4134               321.5402               331.7349
 Red. masses --      5.5279                10.6247                 9.9324
 Frc consts  --      0.2979                 0.6472                 0.6440
 IR Inten    --      3.9115               102.1992               118.9861

                     31                     32                     33
                      A                      A                      A
 Frequencies --    333.3740               340.3485               365.9910
 Red. masses --     14.1651                20.4062                 3.1574
 Frc consts  --      0.9275                 1.3927                 0.2492
 IR Inten    --    127.9240               134.2915                 4.2333

                     34                     35                     36
                      A                      A                      A
 Frequencies --    383.5254               409.1469               412.6255
 Red. masses --      3.3572                 4.1043                 2.9318
 Frc consts  --      0.2909                 0.4048                 0.2941
 IR Inten    --     11.3532                 7.9650                 3.9775

                     37                     38                     39
                      A                      A                      A
 Frequencies --    426.0149               436.8971               464.1503
 Red. masses --      3.7223                 4.5364                 2.9846
 Frc consts  --      0.3980                 0.5102                 0.3788
 IR Inten    --     14.5299                33.9530                17.6017

                     40                     41                     42
                      A                      A                      A
 Frequencies --    492.4606               539.1850               550.7354
 Red. masses --      3.7264                 3.4783                 2.6988
 Frc consts  --      0.5325                 0.5958                 0.4823
 IR Inten    --     17.2407                13.1603                21.2448

                     43                     44                     45
                      A                      A                      A
 Frequencies --    583.0721               612.8637               623.7364
 Red. masses --      5.5678                 6.1690                 5.1520
 Frc consts  --      1.1153                 1.3652                 1.1809
 IR Inten    --     26.2573                20.3548                83.8076

                     46                     47                     48
                      A                      A                      A
 Frequencies --    626.8748               651.3218               654.3826
 Red. masses --      6.1933                 1.8214                 3.0656
 Frc consts  --      1.4340                 0.4552                 0.7734
 IR Inten    --      4.4989                47.1226                30.7555

                     49                     50                     51
                      A                      A                      A
 Frequencies --    701.4337               707.8315               739.3962
 Red. masses --      2.9358                 2.0669                 3.0671
 Frc consts  --      0.8510                 0.6101                 0.9879
 IR Inten    --      7.9118                94.5143               194.5756

                     52                     53                     54
                      A                      A                      A
 Frequencies --    763.1392               783.7214               785.8927
 Red. masses --      3.4081                 1.8919                 3.1948
 Frc consts  --      1.1694                 0.6846                 1.1626
 IR Inten    --     19.4528                49.2456                85.5801

                     55                     56                     57
                      A                      A                      A
 Frequencies --    807.4489               827.8449               844.1883
 Red. masses --      1.1619                 1.3295                 3.1613
 Frc consts  --      0.4463                 0.5368                 1.3274
 IR Inten    --      1.5001                 1.9927                18.1221

                     58                     59                     60
                      A                      A                      A
 Frequencies --    847.3598               862.5637               868.0600
 Red. masses --      1.3487                 3.3839                 2.9331
 Frc consts  --      0.5706                 1.4834                 1.3022
 IR Inten    --      0.6724                51.3836               103.4471

                     61                     62                     63
                      A                      A                      A
 Frequencies --    897.4042               902.0225               930.6730
 Red. masses --      2.6493                 2.0177                 2.1745
 Frc consts  --      1.2571                 0.9673                 1.1097
 IR Inten    --    102.2104                13.8213                31.8930

                     64                     65                     66
                      A                      A                      A
 Frequencies --    942.0093               971.1286               979.2972
 Red. masses --      2.1273                 1.3792                 2.2726
 Frc consts  --      1.1122                 0.7663                 1.2841
 IR Inten    --     28.6686                 2.1367                20.6246

                     67                     68                     69
                      A                      A                      A
 Frequencies --    984.6407               989.4923               992.8781
 Red. masses --      1.4867                 3.2167                 5.2344
 Frc consts  --      0.8492                 1.8556                 3.0402
 IR Inten    --      2.4191                22.1055                18.1542

                     70                     71                     72
                      A                      A                      A
 Frequencies --    999.3460              1002.8876              1005.1061
 Red. masses --      1.4614                 1.8841                 2.4575
 Frc consts  --      0.8599                 1.1165                 1.4627
 IR Inten    --      2.1751                 5.2933                 4.0459

                     73                     74                     75
                      A                      A                      A
 Frequencies --   1009.8965              1030.8640              1032.8462
 Red. masses --      2.1536                 1.4482                 2.2648
 Frc consts  --      1.2941                 0.9067                 1.4235
 IR Inten    --    117.7899                 9.2752                 3.8400

                     76                     77                     78
                      A                      A                      A
 Frequencies --   1035.5752              1044.2216              1046.7179
 Red. masses --      1.7782                 3.4873                 2.3110
 Frc consts  --      1.1236                 2.2404                 1.4918
 IR Inten    --     36.8182               281.7840                19.0462

                     79                     80                     81
                      A                      A                      A
 Frequencies --   1072.7329              1085.2199              1101.9913
 Red. masses --      3.1674                 2.5089                 1.6066
 Frc consts  --      2.1475                 1.7409                 1.1495
 IR Inten    --    436.2684               319.6655                70.6517

                     82                     83                     84
                      A                      A                      A
 Frequencies --   1104.9484              1126.9824              1147.1997
 Red. masses --      1.6418                 2.0977                 1.8876
 Frc consts  --      1.1810                 1.5697                 1.4637
 IR Inten    --     59.1463                 8.5830               233.0135

                     85                     86                     87
                      A                      A                      A
 Frequencies --   1165.4836              1166.5091              1179.9426
 Red. masses --      1.5392                 1.0827                 1.0920
 Frc consts  --      1.2319                 0.8680                 0.8957
 IR Inten    --      4.7492                 0.0571                 6.3462

                     88                     89                     90
                      A                      A                      A
 Frequencies --   1185.4162              1187.1071              1192.6930
 Red. masses --      1.3018                 1.5586                 1.1808
 Frc consts  --      1.0778                 1.2941                 0.9896
 IR Inten    --     21.6902                 3.2577                96.1467

                     91                     92                     93
                      A                      A                      A
 Frequencies --   1199.0799              1215.0309              1251.8472
 Red. masses --      2.1528                 1.8468                 1.2771
 Frc consts  --      1.8237                 1.6063                 1.1792
 IR Inten    --     56.3284               107.4044                74.8524

                     94                     95                     96
                      A                      A                      A
 Frequencies --   1262.7948              1280.2506              1284.4701
 Red. masses --      3.8774                 1.1027                 1.4682
 Frc consts  --      3.6430                 1.0649                 1.4272
 IR Inten    --    663.5358                 1.0780                 4.9507

                     97                     98                     99
                      A                      A                      A
 Frequencies --   1290.1279              1307.6103              1314.2751
 Red. masses --      1.3397                 1.3857                 1.3523
 Frc consts  --      1.3138                 1.3960                 1.3762
 IR Inten    --     42.5499               144.6380                47.4636

                    100                    101                    102
                      A                      A                      A
 Frequencies --   1328.8116              1345.6498              1352.1322
 Red. masses --      1.7269                 1.3346                 2.9698
 Frc consts  --      1.7966                 1.4239                 3.1990
 IR Inten    --      8.5167                 4.9243                 1.8419

                    103                    104                    105
                      A                      A                      A
 Frequencies --   1352.9461              1359.9829              1376.9206
 Red. masses --      1.5948                 1.4794                 1.3303
 Frc consts  --      1.7200                 1.6121                 1.4860
 IR Inten    --    144.5206                46.2132                15.9597

                    106                    107                    108
                      A                      A                      A
 Frequencies --   1404.3098              1407.2544              1459.7185
 Red. masses --      5.2419                 1.4403                 2.2681
 Frc consts  --      6.0906                 1.6805                 2.8475
 IR Inten    --     94.4484                 9.1453               125.1281

                    109                    110                    111
                      A                      A                      A
 Frequencies --   1465.8386              1467.5981              1475.4267
 Red. masses --      2.2780                 1.0409                 1.0536
 Frc consts  --      2.8838                 1.3210                 1.3514
 IR Inten    --     14.0097                 7.3666                 2.0832

                    112                    113                    114
                      A                      A                      A
 Frequencies --   1480.8806              1491.7966              1493.5225
 Red. masses --      1.1026                 1.7130                 1.1865
 Frc consts  --      1.4247                 2.2460                 1.5593
 IR Inten    --     27.9250                75.1458                10.6626

                    115                    116                    117
                      A                      A                      A
 Frequencies --   1500.2675              1514.3486              1557.4876
 Red. masses --      1.0861                 2.2202                 3.3269
 Frc consts  --      1.4403                 2.9999                 4.7549
 IR Inten    --     10.7830                13.4253               659.0712

                    118                    119                    120
                      A                      A                      A
 Frequencies --   1586.4680              1621.4527              1635.0742
 Red. masses --      4.2500                 5.8573                 5.6107
 Frc consts  --      6.3024                 9.0732                 8.8378
 IR Inten    --     10.1959                 3.2348               628.7068

                    121                    122                    123
                      A                      A                      A
 Frequencies --   1640.0609              1734.8945              3038.3415
 Red. masses --      5.8926                11.5981                 1.0351
 Frc consts  --      9.3385                20.5676                 5.6302
 IR Inten    --     12.1089               393.6579                22.6310

                    124                    125                    126
                      A                      A                      A
 Frequencies --   3063.9252              3068.2299              3073.0623
 Red. masses --      1.0579                 1.0591                 1.0602
 Frc consts  --      5.8513                 5.8747                 5.8993
 IR Inten    --     23.5437                13.9293                37.0025

                    127                    128                    129
                      A                      A                      A
 Frequencies --   3104.7339              3105.4349              3117.4144
 Red. masses --      1.0901                 1.1057                 1.1012
 Frc consts  --      6.1908                 6.2825                 6.3052
 IR Inten    --      8.9379                 0.1236                36.2898

                    130                    131                    132
                      A                      A                      A
 Frequencies --   3117.6611              3123.8095              3127.3593
 Red. masses --      1.0988                 1.0931                 1.1076
 Frc consts  --      6.2928                 6.2844                 6.3822
 IR Inten    --      4.0783                 1.6307                58.2353

                    133                    134                    135
                      A                      A                      A
 Frequencies --   3134.4549              3149.4947              3168.0655
 Red. masses --      1.1009                 1.0899                 1.0850
 Frc consts  --      6.3727                 6.3698                 6.4162
 IR Inten    --     50.4625                34.2787                 0.7183

                    136                    137                    138
                      A                      A                      A
 Frequencies --   3176.4606              3186.0427              3190.4061
 Red. masses --      1.0889                 1.0930                 1.0881
 Frc consts  --      6.4735                 6.5370                 6.5256
 IR Inten    --      9.9375                29.8425                 0.9711

                    139                    140                    141
                      A                      A                      A
 Frequencies --   3194.5699              3197.4464              3206.9667
 Red. masses --      1.0979                 1.0913                 1.0917
 Frc consts  --      6.6017                 6.5735                 6.6150
 IR Inten    --     20.7505                 0.5982                 1.6761

                    142                    143                    144
                      A                      A                      A
 Frequencies --   3214.7197              3215.3090              3223.1832
 Red. masses --      1.0977                 1.0927                 1.0963
 Frc consts  --      6.6836                 6.6556                 6.7102
 IR Inten    --      6.5259                 5.1548                 3.5435

 - Thermochemistry -
 -------------------
 Temperature   298.150 Kelvin.  Pressure   1.00000 Atm.
 Atom     1 has atomic number  6 and mass  12.00000

 Molecular mass:   482.99839 amu.
 Principal axes and moments of inertia in atomic units:
                           1         2         3
     Eigenvalues --  ******************************
           X            0.96609   0.25812   0.00644
           Y           -0.25816   0.96609   0.00579
           Z           -0.00473  -0.00726   0.99996
 This molecule is an asymmetric top.
 Rotational symmetry number  1.
 Warning -- assumption of classical behavior for rotation
           may cause significant error
 Rotational temperatures (Kelvin)      0.00618     0.00581     0.00401
 Rotational constants (GHZ):           0.12885     0.12101     0.08358
    2 imaginary frequencies ignored.
 Zero-point vibrational energy    1009739.6 (Joules/Mol)
                                  241.33356 (Kcal/Mol)
 Warning -- explicit consideration of  42 degrees of freedom as
           vibrations may cause significant error
 Vibrational temperatures:     36.32    46.85    50.26    59.04    71.08
          (Kelvin)             72.66    96.70   111.70   115.14   126.17
                              132.24   147.15   162.98   167.34   177.85
                              193.85   214.65   224.88   275.95   307.36
                              336.86   369.91   380.43   388.23   403.73
                              435.11   462.62   477.29   479.65   489.69
                              526.58   551.81   588.67   593.68   612.94
                              628.60   667.81   708.54   775.77   792.39
                              838.91   881.77   897.42   901.93   937.11
                              941.51  1009.21  1018.41  1063.83  1097.99
                             1127.60  1130.72  1161.74  1191.08  1214.60
                             1219.16  1241.04  1248.94  1291.16  1297.81
                             1339.03  1355.34  1397.24  1408.99  1416.68
                             1423.66  1428.53  1437.84  1442.93  1446.12
                             1453.02  1483.18  1486.04  1489.96  1502.40
                             1505.99  1543.42  1561.39  1585.52  1589.77
                             1621.48  1650.56  1676.87  1678.35  1697.67
                             1705.55  1707.98  1716.02  1725.21  1748.16
                             1801.13  1816.88  1842.00  1848.07  1856.21
                             1881.36  1890.95  1911.86  1936.09  1945.42
                             1946.59  1956.71  1981.08  2020.49  2024.73
                             2100.21  2109.01  2111.55  2122.81  2130.66
                             2146.36  2148.85  2158.55  2178.81  2240.88
                             2282.57  2332.91  2352.51  2359.68  2496.13
                             4371.50  4408.31  4414.50  4421.45  4467.02
                             4468.03  4485.26  4485.62  4494.47  4499.57
                             4509.78  4531.42  4558.14  4570.22  4584.00
                             4590.28  4596.27  4600.41  4614.11  4625.26
                             4626.11  4637.44

 Zero-point correction=                           0.384590 (Hartree/Particle)
 Thermal correction to Energy=                    0.412392
 Thermal correction to Enthalpy=                  0.413336
 Thermal correction to Gibbs Free Energy=         0.321847
 Sum of electronic and zero-point Energies=          -3683.500914
 Sum of electronic and thermal Energies=             -3683.473112
 Sum of electronic and thermal Enthalpies=           -3683.472168
 Sum of electronic and thermal Free Energies=        -3683.563657

                     E (Thermal)             CV                S
                      KCal/Mol        Cal/Mol-Kelvin    Cal/Mol-Kelvin
 Total                  258.780            102.587            192.555
 Electronic               0.000              0.000              3.561
 Translational            0.889              2.981             44.412
 Rotational               0.889              2.981             36.754
 Vibrational            257.002             96.626            107.828
 Vibration     1          0.593              1.985              6.172
 Vibration     2          0.594              1.983              5.667
 Vibration     3          0.594              1.983              5.528
 Vibration     4          0.594              1.981              5.208
 Vibration     5          0.595              1.978              4.841
 Vibration     6          0.595              1.977              4.798
 Vibration     7          0.598              1.970              4.233
 Vibration     8          0.599              1.964              3.950
 Vibration     9          0.600              1.963              3.890
 Vibration    10          0.601              1.958              3.711
 Vibration    11          0.602              1.955              3.619
 Vibration    12          0.604              1.947              3.410
 Vibration    13          0.607              1.938              3.212
 Vibration    14          0.608              1.936              3.161
 Vibration    15          0.610              1.929              3.043
 Vibration    16          0.613              1.919              2.877
 Vibration    17          0.618              1.904              2.683
 Vibration    18          0.620              1.896              2.594
 Vibration    19          0.634              1.851              2.210
 Vibration    20          0.644              1.820              2.012
 Vibration    21          0.654              1.789              1.847
 Vibration    22          0.667              1.751              1.681
 Vibration    23          0.671              1.738              1.632
 Vibration    24          0.674              1.729              1.597
 Vibration    25          0.680              1.709              1.530
 Vibration    26          0.694              1.669              1.404
 Vibration    27          0.707              1.632              1.302
 Vibration    28          0.714              1.612              1.252
 Vibration    29          0.715              1.609              1.244
 Vibration    30          0.720              1.595              1.211
 Vibration    31          0.739              1.542              1.097
 Vibration    32          0.753              1.505              1.025
 Vibration    33          0.774              1.450              0.930
 Vibration    34          0.776              1.443              0.917
 Vibration    35          0.788              1.414              0.872
 Vibration    36          0.797              1.390              0.836
 Vibration    37          0.822              1.330              0.754
 Vibration    38          0.848              1.267              0.677
 Vibration    39          0.894              1.163              0.567
 Vibration    40          0.906              1.138              0.543
 Vibration    41          0.940              1.068              0.480
 Vibration    42          0.972              1.005              0.428

 Normal termination of Gaussian 16 at Sun Jul  4 03:45:01 2021.
