 Gaussian 16, Revision A.03,

 -----------------------------------------------------------
 #p opt=modredundant freq=noraman ub3lyp jul-cc-pvdz pop=cm5
 -----------------------------------------------------------

 -----
 title
 -----
 Symbolic Z-matrix:
 Charge =  0 Multiplicity = 6

 SCF Done:  E(UB3LYP) =  -3531.40964323     A.U. after   25 cycles
 SCF Done:  E(UB3LYP) =  -3531.41011820     A.U. after   16 cycles
 SCF Done:  E(UB3LYP) =  -3531.40921354     A.U. after   15 cycles
 SCF Done:  E(UB3LYP) =  -3531.41027615     A.U. after   15 cycles
 SCF Done:  E(UB3LYP) =  -3531.41029625     A.U. after   14 cycles
 SCF Done:  E(UB3LYP) =  -3531.41031630     A.U. after   14 cycles
 SCF Done:  E(UB3LYP) =  -3531.41033485     A.U. after   13 cycles
 SCF Done:  E(UB3LYP) =  -3531.41034309     A.U. after   14 cycles
 SCF Done:  E(UB3LYP) =  -3531.41034833     A.U. after   14 cycles
 SCF Done:  E(UB3LYP) =  -3531.41035535     A.U. after   14 cycles
 SCF Done:  E(UB3LYP) =  -3531.41036838     A.U. after   12 cycles
 SCF Done:  E(UB3LYP) =  -3531.41036884     A.U. after   11 cycles
 SCF Done:  E(UB3LYP) =  -3531.41036898     A.U. after   11 cycles
 SCF Done:  E(UB3LYP) =  -3531.41036907     A.U. after   10 cycles
 SCF Done:  E(UB3LYP) =  -3531.41036910     A.U. after   10 cycles
 SCF Done:  E(UB3LYP) =  -3531.41036912     A.U. after    8 cycles
 SCF Done:  E(UB3LYP) =  -3531.41036916     A.U. after    8 cycles
 Optimization completed.
    -- Stationary point found.
 Normal termination of Gaussian 16 at Sun Jun 20 06:00:04 2021.

 ----------------------------------------------------------------------
 #P Geom=AllCheck Guess=TCheck SCRF=Check GenChk UB3LYP/Jul-CC-pVDZ Fre
 q
 ----------------------------------------------------------------------

 Structure from the checkpoint file:  "checkpoint.chk"
 -----
 title
 -----
 Charge =  0 Multiplicity = 6

 SCF Done:  E(UB3LYP) =  -3531.41036916     A.U. after    1 cycles

  Exact polarizability: 328.601  12.030 290.865  13.242  13.519 287.720
 Approx polarizability: 503.463  21.764 438.702  10.473  30.325 475.035

 ******    1 imaginary frequencies (negative Signs) ******

                      1                      2                      3
                      A                      A                      A
 Frequencies --   -396.5590                 4.0446                17.5817
 Red. masses --      8.3940                 4.9747                 6.6596
 Frc consts  --      0.7777                 0.0000                 0.0012
 IR Inten    --    260.0186                 1.2879                 1.4748

                      4                      5                      6
                      A                      A                      A
 Frequencies --     25.1041                31.8007                42.9156
 Red. masses --      4.3656                 6.6307                 4.2823
 Frc consts  --      0.0016                 0.0040                 0.0046
 IR Inten    --      0.6515                 0.8340                 0.5837

                      7                      8                      9
                      A                      A                      A
 Frequencies --     55.5427                60.9490                68.6274
 Red. masses --      6.3864                 2.7744                 4.6897
 Frc consts  --      0.0116                 0.0061                 0.0130
 IR Inten    --      0.4120                 0.7578                 2.2825

                     10                     11                     12
                      A                      A                      A
 Frequencies --     84.4676                85.8074                93.8056
 Red. masses --      9.9711                 4.9072                 3.0647
 Frc consts  --      0.0419                 0.0213                 0.0159
 IR Inten    --      1.3490                 2.5071                 0.7925

                     13                     14                     15
                      A                      A                      A
 Frequencies --     97.9779               107.1736               113.0327
 Red. masses --      8.2695                 3.1988                 3.3346
 Frc consts  --      0.0468                 0.0216                 0.0251
 IR Inten    --      1.0550                 5.9410                 0.6179

                     16                     17                     18
                      A                      A                      A
 Frequencies --    126.7906               130.3527               147.3075
 Red. masses --      3.8885                 6.7821                 1.7920
 Frc consts  --      0.0368                 0.0679                 0.0229
 IR Inten    --      0.6972                 1.9154                 1.8245

                     19                     20                     21
                      A                      A                      A
 Frequencies --    151.9510               167.4154               175.8428
 Red. masses --      2.3448                 3.8742                 2.0074
 Frc consts  --      0.0319                 0.0640                 0.0366
 IR Inten    --      7.2716                10.0696                 2.8205

                     22                     23                     24
                      A                      A                      A
 Frequencies --    186.4735               213.4169               234.8988
 Red. masses --      2.4705                 2.8984                 5.1152
 Frc consts  --      0.0506                 0.0778                 0.1663
 IR Inten    --      1.6438                 4.6339                 7.0111

                     25                     26                     27
                      A                      A                      A
 Frequencies --    251.3716               262.0041               291.2064
 Red. masses --      2.0253                 2.6460                 3.9281
 Frc consts  --      0.0754                 0.1070                 0.1963
 IR Inten    --      1.6312                 7.9688                 3.0993

                     28                     29                     30
                      A                      A                      A
 Frequencies --    306.9165               311.3793               334.8503
 Red. masses --      3.1283                 4.3732                26.2043
 Frc consts  --      0.1736                 0.2498                 1.7311
 IR Inten    --      1.3348                20.6778                57.2474

                     31                     32                     33
                      A                      A                      A
 Frequencies --    353.9281               368.4148               369.9772
 Red. masses --      6.4190                10.2217                 5.1189
 Frc consts  --      0.4737                 0.8174                 0.4128
 IR Inten    --      8.7440                56.9224                34.5690

                     34                     35                     36
                      A                      A                      A
 Frequencies --    390.6729               409.8714               412.0440
 Red. masses --     26.9554                 3.1271                 2.9033
 Frc consts  --      2.4239                 0.3095                 0.2904
 IR Inten    --     73.9781                11.4800                 0.7906

                     37                     38                     39
                      A                      A                      A
 Frequencies --    434.7951               456.7254               486.6312
 Red. masses --      4.0118                 4.0331                 2.5652
 Frc consts  --      0.4468                 0.4957                 0.3579
 IR Inten    --      9.7990                16.2021                23.4686

                     40                     41                     42
                      A                      A                      A
 Frequencies --    502.3244               535.2505               560.4570
 Red. masses --      2.5414                 3.1330                 3.1471
 Frc consts  --      0.3778                 0.5288                 0.5824
 IR Inten    --      5.6858                 2.3882                39.0110

                     43                     44                     45
                      A                      A                      A
 Frequencies --    618.2427               628.0453               653.4808
 Red. masses --      4.2068                 5.9367                 4.7624
 Frc consts  --      0.9474                 1.3797                 1.1982
 IR Inten    --     17.5438                 3.3739               109.1259

                     46                     47                     48
                      A                      A                      A
 Frequencies --    701.9609               712.3037               760.7921
 Red. masses --      1.8700                 3.5849                 3.3499
 Frc consts  --      0.5429                 1.0716                 1.1424
 IR Inten    --     29.3350                50.9325                 1.0813

                     49                     50                     51
                      A                      A                      A
 Frequencies --    767.1660               804.1057               813.2266
 Red. masses --      2.9118                 1.1690                 2.2814
 Frc consts  --      1.0097                 0.4453                 0.8889
 IR Inten    --     15.1685                 3.9990                11.0456

                     52                     53                     54
                      A                      A                      A
 Frequencies --    826.5459               845.7642               848.7727
 Red. masses --      4.5540                 1.2610                 1.4241
 Frc consts  --      1.8331                 0.5315                 0.6045
 IR Inten    --     35.9079                 2.1243                 1.2586

                     55                     56                     57
                      A                      A                      A
 Frequencies --    866.2065               882.9420               918.5041
 Red. masses --      2.4435                 1.9698                 2.4692
 Frc consts  --      1.0802                 0.9048                 1.2273
 IR Inten    --     18.6809                 6.9967                 9.3231

                     58                     59                     60
                      A                      A                      A
 Frequencies --    933.2741               958.3420               982.3153
 Red. masses --      1.4654                 2.5627                 1.6310
 Frc consts  --      0.7520                 1.3867                 0.9273
 IR Inten    --      5.8831                14.8941                39.1170

                     61                     62                     63
                      A                      A                      A
 Frequencies --    984.5665               997.7367               999.6359
 Red. masses --      1.4352                 1.7835                 2.2732
 Frc consts  --      0.8197                 1.0461                 1.3384
 IR Inten    --      5.1699                 9.2825                 6.8680

                     64                     65                     66
                      A                      A                      A
 Frequencies --   1001.0513              1007.0305              1011.6176
 Red. masses --      1.8428                 2.7351                 1.5277
 Frc consts  --      1.0880                 1.6342                 0.9212
 IR Inten    --      1.6459                 7.8975                17.5872

                     67                     68                     69
                      A                      A                      A
 Frequencies --   1039.8017              1045.1430              1053.5469
 Red. masses --      2.9907                 2.3341                 1.9055
 Frc consts  --      1.9052                 1.5022                 1.2461
 IR Inten    --     37.1796                18.7764                20.9349

                     70                     71                     72
                      A                      A                      A
 Frequencies --   1062.1871              1097.1025              1105.0071
 Red. masses --      2.0483                 1.5837                 1.6057
 Frc consts  --      1.3616                 1.1231                 1.1551
 IR Inten    --     12.5632                32.6662                18.7714

                     73                     74                     75
                      A                      A                      A
 Frequencies --   1122.2384              1134.2008              1157.9304
 Red. masses --      2.9067                 2.1862                 2.4171
 Frc consts  --      2.1568                 1.6570                 1.9094
 IR Inten    --     17.2754                12.0490                42.8893

                     76                     77                     78
                      A                      A                      A
 Frequencies --   1159.8632              1168.6098              1173.8345
 Red. masses --      1.8260                 1.6374                 1.0866
 Frc consts  --      1.4473                 1.3175                 0.8822
 IR Inten    --     97.7949                10.0796                 0.6466

                     79                     80                     81
                      A                      A                      A
 Frequencies --   1192.2969              1202.2617              1229.8592
 Red. masses --      1.8589                 1.2862                 1.8022
 Frc consts  --      1.5569                 1.0954                 1.6061
 IR Inten    --     73.1289                23.4059               118.3257

                     82                     83                     84
                      A                      A                      A
 Frequencies --   1243.5568              1255.4077              1283.7574
 Red. masses --      2.6132                 1.7584                 1.1057
 Frc consts  --      2.3810                 1.6329                 1.0736
 IR Inten    --    298.1823                36.7354                 1.5914

                     85                     86                     87
                      A                      A                      A
 Frequencies --   1316.1633              1323.1571              1323.9475
 Red. masses --      1.4849                 1.4353                 1.4320
 Frc consts  --      1.5155                 1.4805                 1.4789
 IR Inten    --     55.5579                19.3507                70.3063

                     88                     89                     90
                      A                      A                      A
 Frequencies --   1329.4851              1341.9079              1356.7978
 Red. masses --      1.5497                 1.3271                 3.4175
 Frc consts  --      1.6139                 1.4080                 3.7068
 IR Inten    --      7.2467                85.0987                 0.8224

                     91                     92                     93
                      A                      A                      A
 Frequencies --   1362.0877              1366.7645              1386.4027
 Red. masses --      1.2091                 1.3722                 1.5595
 Frc consts  --      1.3217                 1.5103                 1.7661
 IR Inten    --      5.1779                33.9985                73.3041

                     94                     95                     96
                      A                      A                      A
 Frequencies --   1392.3934              1417.8229              1425.0358
 Red. masses --      1.6040                 1.4427                 1.1741
 Frc consts  --      1.8322                 1.7087                 1.4047
 IR Inten    --     44.2872                 9.5793                39.7734

                     97                     98                     99
                      A                      A                      A
 Frequencies --   1448.0872              1455.0045              1469.5132
 Red. masses --      1.0935                 1.3042                 2.1406
 Frc consts  --      1.3510                 1.6268                 2.7235
 IR Inten    --      4.6950                37.2112                25.1257

                    100                    101                    102
                      A                      A                      A
 Frequencies --   1473.1224              1481.8681              1484.7355
 Red. masses --      1.0387                 1.1106                 1.0526
 Frc consts  --      1.3281                 1.4369                 1.3672
 IR Inten    --      6.1611                 5.8578                 7.8076

                    103                    104                    105
                      A                      A                      A
 Frequencies --   1498.4436              1501.9873              1505.9802
 Red. masses --      1.1431                 1.1479                 1.0870
 Frc consts  --      1.5122                 1.5258                 1.4525
 IR Inten    --     13.4781                15.2774                 9.0636

                    106                    107                    108
                      A                      A                      A
 Frequencies --   1514.5610              1528.0432              1620.0517
 Red. masses --      2.0588                 2.3211                 5.7257
 Frc consts  --      2.7826                 3.1931                 8.8539
 IR Inten    --      4.7936                78.3873                 0.4707

                    109                    110                    111
                      A                      A                      A
 Frequencies --   1639.7146              1761.2592              2992.0817
 Red. masses --      5.7061                11.7014                 1.0524
 Frc consts  --      9.0391                21.3862                 5.5510
 IR Inten    --      6.0772               226.3326                13.2364

                    112                    113                    114
                      A                      A                      A
 Frequencies --   3010.4254              3041.9533              3055.0815
 Red. masses --      1.0413                 1.0362                 1.0629
 Frc consts  --      5.5601                 5.6495                 5.8449
 IR Inten    --      7.7184                16.4391                20.9112

                    115                    116                    117
                      A                      A                      A
 Frequencies --   3057.6134              3063.4149              3066.9305
 Red. masses --      1.0586                 1.0944                 1.0636
 Frc consts  --      5.8313                 6.0514                 5.8942
 IR Inten    --     16.6939                 4.5640                18.4890

                    118                    119                    120
                      A                      A                      A
 Frequencies --   3077.0256              3091.6331              3103.6017
 Red. masses --      1.0832                 1.0800                 1.1013
 Frc consts  --      6.0427                 6.0819                 6.2502
 IR Inten    --      2.4778                14.4430                 6.8273

                    121                    122                    123
                      A                      A                      A
 Frequencies --   3104.1708              3117.6992              3119.0397
 Red. masses --      1.1070                 1.1012                 1.1029
 Frc consts  --      6.2848                 6.3064                 6.3215
 IR Inten    --     10.2984                20.4743                12.2676

                    124                    125                    126
                      A                      A                      A
 Frequencies --   3138.1114              3142.3690              3163.4371
 Red. masses --      1.1042                 1.0872                 1.1018
 Frc consts  --      6.4068                 6.3254                 6.4961
 IR Inten    --     18.9016                 6.6378                 1.9730

                    127                    128                    129
                      A                      A                      A
 Frequencies --   3165.5784              3170.6169              3181.4199
 Red. masses --      1.1031                 1.0853                 1.0897
 Frc consts  --      6.5126                 6.4282                 6.4984
 IR Inten    --      4.5530                 0.0305                 6.3702

                    130                    131                    132
                      A                      A                      A
 Frequencies --   3191.8752              3200.8597              3224.5532
 Red. masses --      1.0944                 1.0958                 1.0922
 Frc consts  --      6.5693                 6.6149                 6.6909
 IR Inten    --     15.7571                 6.7265                 3.1635

 - Thermochemistry -
 -------------------
 Temperature   298.150 Kelvin.  Pressure   1.00000 Atm.
 Atom     1 has atomic number  6 and mass  12.00000

 Molecular mass:   434.99839 amu.
 Principal axes and moments of inertia in atomic units:
                           1         2         3
     Eigenvalues --  8748.63838********************
           X            0.99736   0.07022   0.01840
           Y           -0.07047   0.99743   0.01287
           Z           -0.01745  -0.01413   0.99975
 This molecule is an asymmetric top.
 Rotational symmetry number  1.
 Warning -- assumption of classical behavior for rotation
           may cause significant error
 Rotational temperatures (Kelvin)      0.00990     0.00765     0.00663
 Rotational constants (GHZ):           0.20629     0.15947     0.13807
    1 imaginary frequencies ignored.
 Zero-point vibrational energy     938567.1 (Joules/Mol)
                                  224.32292 (Kcal/Mol)
 Warning -- explicit consideration of  42 degrees of freedom as
           vibrations may cause significant error
 Vibrational temperatures:      5.82    25.30    36.12    45.75    61.75
          (Kelvin)             79.91    87.69    98.74   121.53   123.46
                              134.97   140.97   154.20   162.63   182.42
                              187.55   211.94   218.62   240.87   253.00
                              268.29   307.06   337.97   361.67   376.97
                              418.98   441.58   448.01   481.77   509.22
                              530.07   532.31   562.09   589.71   592.84
                              625.57   657.13   700.15   722.73   770.11
                              806.37   889.51   903.62   940.21  1009.97
                             1024.85  1094.61  1103.78  1156.93  1170.05
                             1189.22  1216.87  1221.19  1246.28  1270.36
                             1321.52  1342.77  1378.84  1413.33  1416.57
                             1435.52  1438.25  1440.29  1448.89  1455.49
                             1496.04  1503.73  1515.82  1528.25  1578.49
                             1589.86  1614.65  1631.86  1666.00  1668.78
                             1681.37  1688.89  1715.45  1729.79  1769.49
                             1789.20  1806.25  1847.04  1893.67  1903.73
                             1904.87  1912.83  1930.71  1952.13  1959.74
                             1966.47  1994.72  2003.34  2039.93  2050.31
                             2083.47  2093.43  2114.30  2119.49  2132.08
                             2136.20  2155.93  2161.02  2166.77  2179.12
                             2198.51  2330.89  2359.18  2534.06  4304.94
                             4331.33  4376.69  4395.58  4399.22  4407.57
                             4412.63  4427.15  4448.17  4465.39  4466.21
                             4485.67  4487.60  4515.04  4521.17  4551.48
                             4554.56  4561.81  4577.35  4592.40  4605.32
                             4639.41

 Zero-point correction=                           0.357481 (Hartree/Particle)
 Thermal correction to Energy=                    0.385297
 Thermal correction to Enthalpy=                  0.386241
 Thermal correction to Gibbs Free Energy=         0.291964
 Sum of electronic and zero-point Energies=          -3531.052888
 Sum of electronic and thermal Energies=             -3531.025072
 Sum of electronic and thermal Enthalpies=           -3531.024128
 Sum of electronic and thermal Free Energies=        -3531.118405

                     E (Thermal)             CV                S
                      KCal/Mol        Cal/Mol-Kelvin    Cal/Mol-Kelvin
 Total                  241.778             97.971            198.424
 Electronic               0.000              0.000              3.561
 Translational            0.889              2.981             44.100
 Rotational               0.889              2.981             35.513
 Vibrational            240.000             92.009            115.249
 Vibration     1          0.593              1.987              9.810
 Vibration     2          0.593              1.986              6.890
 Vibration     3          0.593              1.985              6.183
 Vibration     4          0.594              1.983              5.714
 Vibration     5          0.595              1.980              5.120
 Vibration     6          0.596              1.975              4.610
 Vibration     7          0.597              1.973              4.426
 Vibration     8          0.598              1.969              4.192
 Vibration     9          0.601              1.960              3.784
 Vibration    10          0.601              1.959              3.753
 Vibration    11          0.603              1.954              3.579
 Vibration    12          0.603              1.951              3.494
 Vibration    13          0.606              1.943              3.319
 Vibration    14          0.607              1.939              3.216
 Vibration    15          0.611              1.926              2.994
 Vibration    16          0.612              1.923              2.941
 Vibration    17          0.617              1.906              2.707
 Vibration    18          0.619              1.901              2.648
 Vibration    19          0.624              1.883              2.464
 Vibration    20          0.628              1.872              2.372
 Vibration    21          0.632              1.858              2.263
 Vibration    22          0.644              1.820              2.014
 Vibration    23          0.655              1.787              1.841
 Vibration    24          0.663              1.760              1.721
 Vibration    25          0.669              1.742              1.648
 Vibration    26          0.687              1.690              1.467
 Vibration    27          0.697              1.661              1.379
 Vibration    28          0.700              1.652              1.355
 Vibration    29          0.716              1.606              1.237
 Vibration    30          0.730              1.567              1.149
 Vibration    31          0.741              1.537              1.086
 Vibration    32          0.742              1.534              1.080
 Vibration    33          0.758              1.490              0.998
 Vibration    34          0.774              1.449              0.927
 Vibration    35          0.776              1.444              0.919
 Vibration    36          0.795              1.394              0.843
 Vibration    37          0.815              1.346              0.776
 Vibration    38          0.843              1.280              0.692
 Vibration    39          0.858              1.245              0.652
 Vibration    40          0.890              1.172              0.576
 Vibration    41          0.916              1.117              0.523
 Vibration    42          0.978              0.993              0.419

                           ! Non-Optimized Parameters !
 Normal termination of Gaussian 16 at Sun Jun 20 09:55:59 2021.

 ----------------------------------------------------------------------
 #p ub3lyp jul-cc-pvdz pop=cm5 scrf=(pcm,solvent=dichloroethane) guess=
 read geom=allcheck
 ----------------------------------------------------------------------

 Structure from the checkpoint file:  "checkpoint.chk"
 -----
 title
 -----
 Charge =  0 Multiplicity = 6

 SCF Done:  E(UB3LYP) =  -3531.43612629     A.U. after   17 cycles
 Normal termination of Gaussian 16 at Sun Jun 20 10:20:29 2021.
 Gaussian 16:  ES64L-G16RevA.03 25-Dec-2016

 ----------------------------------------------------------------------
 #p ub3lyp jul-cc-pvdz pop=cm5 scrf=(pcm,solvent=water) guess=read geom
 =allcheck
 ----------------------------------------------------------------------

 Structure from the checkpoint file:  "checkpoint.chk"
 -----
 title
 -----
 Charge =  0 Multiplicity = 6

                         Standard orientation:
 ---------------------------------------------------------------------
 Center     Atomic      Atomic             Coordinates (Angstroms)
 Number     Number       Type             X           Y           Z
 ---------------------------------------------------------------------
      1          6           0        2.938228   -1.438554    0.403622
      2          6           0        1.650591   -0.956729    0.704216
      3          6           0        1.381962   -0.525199    2.012794
      4          6           0        2.373175   -0.580945    2.997766
      5          6           0        3.644603   -1.070268    2.691407
      6          6           0        3.924835   -1.495783    1.386796
      7          6           0        0.558674   -0.857058   -0.350431
      8          6           0        0.945896   -0.105554   -1.690347
      9          6           0        1.295346   -1.126786   -2.776327
     10          6           0        0.325879   -2.291009   -2.544289
     11          6           0        0.321827   -2.503928   -1.037254
     12          6           0       -0.862075   -2.814391   -0.309905
     13          6           0       -2.210553   -2.681728   -0.899527
     14          8           0       -0.626361   -0.476121    0.176851
     15         26           0       -2.043813    0.752244    0.333792
     16         17           0       -2.762912    1.090006   -1.759716
     17          6           0       -0.779254   -3.306262    1.080664
     18         17           0       -1.449905    2.595827    1.393637
     19         17           0       -3.539981   -0.394352    1.550182
     20          1           0        0.399069   -0.124849    2.249605
     21          1           0        2.146160   -0.234585    4.006942
     22          1           0        4.417528   -1.115230    3.460211
     23          1           0        4.918571   -1.866631    1.132381
     24          1           0        3.187875   -1.758751   -0.607181
     25          1           0        0.026487    0.426816   -1.965600
     26          6           0        2.043355    0.937205   -1.499628
     27          1           0        1.194599   -0.691231   -3.778535
     28          1           0        2.339991   -1.447848   -2.672317
     29          1           0       -0.671704   -2.022183   -2.912225
     30          1           0        0.635230   -3.205444   -3.069506
     31          1           0        1.196153   -3.045076   -0.669764
     32          1           0        0.243494   -3.396378    1.456919
     33          1           0       -1.377622   -2.637241    1.721052
     34          1           0       -1.281540   -4.288461    1.126116
     35          1           0       -2.348993   -3.560295   -1.559066
     36          1           0       -2.999254   -2.675326   -0.141587
     37          1           0       -2.303328   -1.796120   -1.540323
     38          8           0        1.573852    2.023662   -0.875112
     39          8           0        3.188039    0.804833   -1.883822
     40          6           0        2.529529    3.095596   -0.625907
     41          6           0        1.764643    4.275389   -0.063648
     42          1           0        3.286542    2.715172    0.073836
     43          1           0        3.031458    3.332248   -1.573256
     44          1           0        2.469949    5.091216    0.152137
     45          1           0        1.019726    4.640235   -0.783582
     46          1           0        1.242100    4.003472    0.862047
 ---------------------------------------------------------------------

 SCF Done:  E(UB3LYP) =  -3531.44084665     A.U. after   15 cycles

 The electronic state is 6-A.
 Alpha  occ. eigenvalues -- -256.19811-101.51780-101.51763-101.51522 -30.19222
 Alpha  occ. eigenvalues --  -26.04526 -26.04457 -26.04371 -19.20353 -19.15799
 Alpha  occ. eigenvalues --  -19.15250 -10.32950 -10.31170 -10.30836 -10.24788
 Alpha  occ. eigenvalues --  -10.22862 -10.22029 -10.21574 -10.21518 -10.21365
 Alpha  occ. eigenvalues --  -10.20597 -10.20441 -10.20426 -10.20357 -10.20300
 Alpha  occ. eigenvalues --  -10.20217 -10.19956 -10.18495  -9.43504  -9.43483
 Alpha  occ. eigenvalues --   -9.43239  -7.19362  -7.19349  -7.19110  -7.19056
 Alpha  occ. eigenvalues --   -7.19037  -7.19035  -7.19015  -7.18789  -7.18762
 Alpha  occ. eigenvalues --   -3.66943  -2.44465  -2.44263  -2.44150  -1.12189
 Alpha  occ. eigenvalues --   -1.04641  -1.03624  -0.88685  -0.87230  -0.84212
 Alpha  occ. eigenvalues --   -0.79699  -0.79053  -0.78867  -0.78787  -0.77806
 Alpha  occ. eigenvalues --   -0.76083  -0.75363  -0.73953  -0.71610  -0.66420
 Alpha  occ. eigenvalues --   -0.64360  -0.62051  -0.61472  -0.59450  -0.57134
 Alpha  occ. eigenvalues --   -0.56594  -0.54496  -0.52969  -0.51459  -0.50808
 Alpha  occ. eigenvalues --   -0.50253  -0.49097  -0.48952  -0.48224  -0.47615
 Alpha  occ. eigenvalues --   -0.47216  -0.47073  -0.46607  -0.46425  -0.45981
 Alpha  occ. eigenvalues --   -0.44701  -0.44297  -0.44098  -0.43182  -0.43059
 Alpha  occ. eigenvalues --   -0.42479  -0.42023  -0.41144  -0.40582  -0.40313
 Alpha  occ. eigenvalues --   -0.39956  -0.38945  -0.37911  -0.37431  -0.37100
 Alpha  occ. eigenvalues --   -0.36963  -0.36519  -0.36178  -0.35799  -0.35530
 Alpha  occ. eigenvalues --   -0.34769  -0.34100  -0.33659  -0.31868  -0.31556
 Alpha  occ. eigenvalues --   -0.30689  -0.30586  -0.30419  -0.29898  -0.29707
 Alpha  occ. eigenvalues --   -0.29380  -0.28614  -0.28269  -0.26897  -0.26113
 Alpha virt. eigenvalues --   -0.12892  -0.03231  -0.02776  -0.01534  -0.01219
 Alpha virt. eigenvalues --   -0.00174  -0.00038   0.00001   0.01444   0.01571
 Alpha virt. eigenvalues --    0.01820   0.01988   0.02403   0.03482   0.03697

  Beta  occ. eigenvalues -- -256.19627-101.51616-101.51592-101.51361 -30.10279
  Beta  occ. eigenvalues --  -25.97050 -25.96998 -25.96943 -19.20353 -19.15247
  Beta  occ. eigenvalues --  -19.15064 -10.32951 -10.31160 -10.30829 -10.24788
  Beta  occ. eigenvalues --  -10.22820 -10.22010 -10.21573 -10.21494 -10.21365
  Beta  occ. eigenvalues --  -10.20596 -10.20442 -10.20427 -10.20355 -10.20302
  Beta  occ. eigenvalues --  -10.20217 -10.19954 -10.18494  -9.43335  -9.43321
  Beta  occ. eigenvalues --   -9.43081  -7.19081  -7.19063  -7.18826  -7.18822
  Beta  occ. eigenvalues --   -7.18813  -7.18811  -7.18808  -7.18573  -7.18567
  Beta  occ. eigenvalues --   -3.46098  -2.22406  -2.22350  -2.22221  -1.12187
  Beta  occ. eigenvalues --   -1.03620  -1.03222  -0.88516  -0.87203  -0.84156
  Beta  occ. eigenvalues --   -0.78858  -0.78625  -0.77882  -0.77708  -0.77647
  Beta  occ. eigenvalues --   -0.76075  -0.75325  -0.73945  -0.71477  -0.66265
  Beta  occ. eigenvalues --   -0.64276  -0.61999  -0.61427  -0.59151  -0.56948
  Beta  occ. eigenvalues --   -0.56154  -0.54370  -0.52072  -0.51366  -0.50557
  Beta  occ. eigenvalues --   -0.50154  -0.48701  -0.48225  -0.48156  -0.46737
  Beta  occ. eigenvalues --   -0.45854  -0.44700  -0.44117  -0.43241  -0.43049
  Beta  occ. eigenvalues --   -0.42476  -0.42030  -0.41195  -0.40527  -0.40325
  Beta  occ. eigenvalues --   -0.39966  -0.38910  -0.37805  -0.37553  -0.37280
  Beta  occ. eigenvalues --   -0.36849  -0.36792  -0.36160  -0.35841  -0.35696
  Beta  occ. eigenvalues --   -0.35330  -0.35188  -0.34692  -0.32839  -0.32579
  Beta  occ. eigenvalues --   -0.32208  -0.31885  -0.31796  -0.31370  -0.29829
  Beta  occ. eigenvalues --   -0.29318  -0.28640  -0.28219  -0.26897  -0.26092
  Beta virt. eigenvalues --   -0.13638  -0.13422  -0.13028  -0.12419  -0.12256
  Beta virt. eigenvalues --   -0.11345  -0.03183  -0.02759  -0.01435  -0.01179
  Beta virt. eigenvalues --   -0.00130  -0.00006   0.00030   0.01457   0.01597

 Mulliken charges and spin densities:
               1          2
     1  C    0.015508   0.001131
     2  C    2.687080   0.004506
     3  C   -0.479025  -0.011395
     4  C    0.038441   0.005505
     5  C    0.235506  -0.001181
     6  C   -0.074877   0.001785
     7  C   -2.172684  -0.005088
     8  C    0.458458   0.011068
     9  C    0.590805   0.001835
    10  C    0.652860   0.000147
    11  C    0.602232   0.025382
    12  C   -0.403698   0.001324
    13  C    0.293755   0.000919
    14  O   -0.472848   0.235343
    15  Fe   0.642174   4.051915
    16  Cl  -0.552538   0.216261
    17  C    0.338825  -0.000112
    18  Cl  -0.486660   0.238009
    19  Cl  -0.543264   0.217604
    20  H   -0.201019   0.002259
    21  H   -0.160541  -0.000005
    22  H   -0.162010   0.000019
    23  H   -0.158804   0.000209
    24  H   -0.202455  -0.000093
    25  H   -0.222702   0.000264
    26  C    0.894004  -0.001773
    27  H   -0.153313   0.000371
    28  H   -0.044232  -0.000083
    29  H   -0.090213  -0.000106
    30  H   -0.133864   0.000837
    31  H   -0.209323  -0.000366
    32  H    0.038948   0.000053
    33  H    0.116641  -0.000226
    34  H    0.036700   0.000103
    35  H    0.062321  -0.000191
    36  H    0.021784  -0.000159
    37  H    0.112795   0.000862
    38  O   -0.702287   0.001492
    39  O   -0.663070   0.001470
    40  C    0.433656   0.000845
    41  C    0.053772  -0.000642
    42  H   -0.033163   0.000026
    43  H   -0.039716   0.000023
    44  H   -0.008167   0.000036
    45  H    0.020731   0.000062
    46  H    0.023477  -0.000242
 Sum of Mulliken charges =  -0.00000   5.00000

 Dipole moment (field-independent basis, Debye):
    X=              7.0670    Y=            -12.2992    Z=             -2.0165  Tot=             14.3275
 Quadrupole moment (field-independent basis, Debye-Ang):
   XX=           -199.6944   YY=           -147.6452   ZZ=           -174.9030
   XY=             16.2513   XZ=             14.0796   YZ=              3.8221

 Normal termination of Gaussian 16 at Sun Jun 20 10:41:56 2021.
