 Gaussian 16, Revision A.03,

 -----------------------------------------------------------
 #p opt=modredundant freq=noraman ub3lyp jul-cc-pvdz pop=cm5
 -----------------------------------------------------------

 -----
 title
 -----
 Symbolic Z-matrix:
 Charge =  0 Multiplicity = 6

 SCF Done:  E(UB3LYP) =  -3531.42798708     A.U. after   22 cycles
 SCF Done:  E(UB3LYP) =  -3531.42760255     A.U. after   16 cycles
 SCF Done:  E(UB3LYP) =  -3531.42462373     A.U. after   17 cycles
 SCF Done:  E(UB3LYP) =  -3531.42390287     A.U. after   15 cycles
 SCF Done:  E(UB3LYP) =  -3531.42812458     A.U. after   11 cycles
 SCF Done:  E(UB3LYP) =  -3531.42796135     A.U. after   15 cycles
 SCF Done:  E(UB3LYP) =  -3531.42845454     A.U. after   15 cycles
 SCF Done:  E(UB3LYP) =  -3531.42852991     A.U. after   14 cycles
 SCF Done:  E(UB3LYP) =  -3531.42853953     A.U. after   13 cycles
 SCF Done:  E(UB3LYP) =  -3531.42855029     A.U. after   12 cycles
 SCF Done:  E(UB3LYP) =  -3531.42855150     A.U. after   14 cycles
 SCF Done:  E(UB3LYP) =  -3531.42855398     A.U. after   12 cycles
 SCF Done:  E(UB3LYP) =  -3531.42855543     A.U. after   13 cycles
 SCF Done:  E(UB3LYP) =  -3531.42855604     A.U. after   10 cycles
 SCF Done:  E(UB3LYP) =  -3531.42855634     A.U. after   10 cycles
 SCF Done:  E(UB3LYP) =  -3531.42855638     A.U. after   10 cycles
 Optimization completed.
    -- Stationary point found.
 Normal termination of Gaussian 16 at Sun Jun 20 03:45:20 2021.

 ----------------------------------------------------------------------
 #P Geom=AllCheck Guess=TCheck SCRF=Check GenChk UB3LYP/Jul-CC-pVDZ Fre
 q
 ----------------------------------------------------------------------

 Structure from the checkpoint file:  "checkpoint.chk"
 -----
 title
 -----
 Charge =  0 Multiplicity = 6

 SCF Done:  E(UB3LYP) =  -3531.42855638     A.U. after    1 cycles

  Exact polarizability: 281.520   3.766 297.436  23.616   4.219 284.187
 Approx polarizability: 412.053   3.502 469.316  43.984   2.813 449.378

                      1                      2                      3
                      A                      A                      A
 Frequencies --     17.7628                26.6007                29.8153
 Red. masses --      8.0104                 5.2721                 4.8689
 Frc consts  --      0.0015                 0.0022                 0.0026
 IR Inten    --      3.6762                 0.6687                 0.3554

                      4                      5                      6
                      A                      A                      A
 Frequencies --     45.1074                48.8368                63.0905
 Red. masses --      5.3038                 4.9464                 2.4252
 Frc consts  --      0.0064                 0.0070                 0.0057
 IR Inten    --      3.6902                 1.8930                 0.2039

                      7                      8                      9
                      A                      A                      A
 Frequencies --     64.0285                74.7783                78.2679
 Red. masses --      6.7459                 6.2491                 9.8207
 Frc consts  --      0.0163                 0.0206                 0.0354
 IR Inten    --     11.0086                 8.0118                 0.9706

                     10                     11                     12
                      A                      A                      A
 Frequencies --     86.3303               102.2588               109.1207
 Red. masses --      8.1950                 5.9820                12.5404
 Frc consts  --      0.0360                 0.0369                 0.0880
 IR Inten    --      4.1831                 0.9080                10.7843

                     13                     14                     15
                      A                      A                      A
 Frequencies --    114.8294               120.1118               124.3435
 Red. masses --     15.1948                 4.2830                 4.9410
 Frc consts  --      0.1180                 0.0364                 0.0450
 IR Inten    --      1.4945                 0.4723                19.2697

                     16                     17                     18
                      A                      A                      A
 Frequencies --    134.8371               167.9880               172.7309
 Red. masses --      4.2142                 2.6884                 3.7575
 Frc consts  --      0.0451                 0.0447                 0.0661
 IR Inten    --     15.0500                 3.4509                24.7545

                     19                     20                     21
                      A                      A                      A
 Frequencies --    193.6307               197.5817               213.3397
 Red. masses --      1.7372                 3.6130                 2.5763
 Frc consts  --      0.0384                 0.0831                 0.0691
 IR Inten    --      7.4487                20.5557                67.2303

                     22                     23                     24
                      A                      A                      A
 Frequencies --    225.8822               238.3980               253.9835
 Red. masses --      3.9908                 1.8401                 1.4398
 Frc consts  --      0.1200                 0.0616                 0.0547
 IR Inten    --      5.1873                 0.7421                 1.4869

                     25                     26                     27
                      A                      A                      A
 Frequencies --    261.0515               261.6741               296.1171
 Red. masses --      1.9906                 2.4110                 3.6679
 Frc consts  --      0.0799                 0.0973                 0.1895
 IR Inten    --      4.2854                23.4829                 1.3261

                     28                     29                     30
                      A                      A                      A
 Frequencies --    313.2870               341.9245               347.1725
 Red. masses --      2.8485                 4.4543                13.1474
 Frc consts  --      0.1647                 0.3068                 0.9336
 IR Inten    --      4.8081                 7.7748                22.1991

                     31                     32                     33
                      A                      A                      A
 Frequencies --    375.2124               379.5526               391.7183
 Red. masses --      3.2431                 3.1787                29.6381
 Frc consts  --      0.2690                 0.2698                 2.6795
 IR Inten    --      4.5496                 7.7847                90.0910

                     34                     35                     36
                      A                      A                      A
 Frequencies --    401.7286               402.9463               410.8613
 Red. masses --     19.9156                 3.8535                 2.9627
 Frc consts  --      1.8937                 0.3686                 0.2947
 IR Inten    --     74.3951                20.3489                 2.7901

                     37                     38                     39
                      A                      A                      A
 Frequencies --    416.5583               468.7205               515.2372
 Red. masses --      5.2343                 3.7682                 3.1379
 Frc consts  --      0.5351                 0.4878                 0.4908
 IR Inten    --     22.7044                 2.3667                 9.7461

                     40                     41                     42
                      A                      A                      A
 Frequencies --    540.8502               556.6057               626.3628
 Red. masses --      3.3428                 2.5023                 5.6396
 Frc consts  --      0.5761                 0.4568                 1.3036
 IR Inten    --     15.5301                 1.3550                 2.7518

                     43                     44                     45
                      A                      A                      A
 Frequencies --    634.0832               668.1729               702.3756
 Red. masses --      4.8549                 4.8150                 3.0024
 Frc consts  --      1.1501                 1.2665                 0.8727
 IR Inten    --     13.8966                13.9294                13.4146

                     46                     47                     48
                      A                      A                      A
 Frequencies --    707.1171               757.1260               780.5449
 Red. masses --      1.8676                 2.7119                 3.4337
 Frc consts  --      0.5502                 0.9159                 1.2326
 IR Inten    --     36.2961                16.8834                15.8149

                     49                     50                     51
                      A                      A                      A
 Frequencies --    786.5852               799.9256               808.7457
 Red. masses --      3.7366                 2.4092                 1.4132
 Frc consts  --      1.3621                 0.9083                 0.5446
 IR Inten    --      7.2209                20.7584                 5.1121

                     52                     53                     54
                      A                      A                      A
 Frequencies --    844.5091               845.2396               872.0049
 Red. masses --      1.5653                 1.5413                 2.6285
 Frc consts  --      0.6577                 0.6488                 1.1776
 IR Inten    --     16.4540                11.7518                 8.4391

                     55                     56                     57
                      A                      A                      A
 Frequencies --    911.3165               920.1973               928.2010
 Red. masses --      1.5356                 1.6585                 1.9585
 Frc consts  --      0.7514                 0.8274                 0.9942
 IR Inten    --     13.3262                42.5131                27.5156

                     58                     59                     60
                      A                      A                      A
 Frequencies --    941.2182               958.8794               968.7031
 Red. masses --      2.3993                 3.2404                 3.5769
 Frc consts  --      1.2523                 1.7554                 1.9776
 IR Inten    --     48.5771                27.6250                 5.5629

                     61                     62                     63
                      A                      A                      A
 Frequencies --    980.9064               983.6999              1001.5795
 Red. masses --      1.3910                 2.2861                 1.3079
 Frc consts  --      0.7886                 1.3034                 0.7730
 IR Inten    --      0.3404                27.0270                 0.4270

                     64                     65                     66
                      A                      A                      A
 Frequencies --   1005.5410              1006.9579              1022.1720
 Red. masses --      3.8836                 1.5682                 2.6994
 Frc consts  --      2.3136                 0.9369                 1.6617
 IR Inten    --      1.4448                 0.5198                22.1496

                     67                     68                     69
                      A                      A                      A
 Frequencies --   1041.1478              1053.1942              1054.8939
 Red. masses --      2.4829                 2.1696                 2.3470
 Frc consts  --      1.5857                 1.4179                 1.5388
 IR Inten    --     36.7833                 2.4368                17.6524

                     70                     71                     72
                      A                      A                      A
 Frequencies --   1065.2734              1098.5360              1104.8865
 Red. masses --      2.8054                 2.2762                 1.7657
 Frc consts  --      1.8757                 1.6184                 1.2700
 IR Inten    --      0.1625                32.7553                 8.7430

                     73                     74                     75
                      A                      A                      A
 Frequencies --   1119.8310              1132.8136              1156.8304
 Red. masses --      1.7537                 2.1772                 1.6613
 Frc consts  --      1.2957                 1.6461                 1.3099
 IR Inten    --      2.1641                 7.6943                29.0207

                     76                     77                     78
                      A                      A                      A
 Frequencies --   1169.2827              1174.8508              1183.2198
 Red. masses --      1.5567                 1.1149                 1.4854
 Frc consts  --      1.2540                 0.9067                 1.2252
 IR Inten    --      3.7956                 1.5905                 6.3062

                     79                     80                     81
                      A                      A                      A
 Frequencies --   1198.6621              1210.7166              1224.2751
 Red. masses --      1.9457                 1.1897                 1.9107
 Frc consts  --      1.6471                 1.0274                 1.6873
 IR Inten    --    140.4848                 9.4342                93.0383

                     82                     83                     84
                      A                      A                      A
 Frequencies --   1255.9070              1265.9803              1283.3540
 Red. masses --      1.8320                 1.8474                 1.1103
 Frc consts  --      1.7025                 1.7444                 1.0774
 IR Inten    --     43.2983                27.4902                 1.6670

                     85                     86                     87
                      A                      A                      A
 Frequencies --   1294.8093              1306.5237              1317.5599
 Red. masses --      1.7477                 2.1160                 1.4043
 Frc consts  --      1.7263                 2.1281                 1.4363
 IR Inten    --     60.4808                 5.0725                 3.5438

                     88                     89                     90
                      A                      A                      A
 Frequencies --   1326.3674              1335.6878              1360.6275
 Red. masses --      1.5979                 2.1527                 2.1872
 Frc consts  --      1.6563                 2.2627                 2.3857
 IR Inten    --     36.1970                 9.2042                 0.0953

                     91                     92                     93
                      A                      A                      A
 Frequencies --   1366.4292              1373.4574              1392.7459
 Red. masses --      1.3662                 1.3898                 1.5722
 Frc consts  --      1.5029                 1.5447                 1.7968
 IR Inten    --     20.0379                 9.1753                69.3987

                     94                     95                     96
                      A                      A                      A
 Frequencies --   1404.6690              1409.3215              1417.0732
 Red. masses --      1.3058                 1.4052                 1.5310
 Frc consts  --      1.5181                 1.6443                 1.8114
 IR Inten    --     27.6594                24.0920                 5.6730

                     97                     98                     99
                      A                      A                      A
 Frequencies --   1454.2307              1469.1354              1473.7421
 Red. masses --      1.0806                 2.2244                 1.0393
 Frc consts  --      1.3464                 2.8286                 1.3299
 IR Inten    --      0.5082                 8.6625                 3.7432

                    100                    101                    102
                      A                      A                      A
 Frequencies --   1476.2258              1477.7168              1487.8939
 Red. masses --      1.0891                 1.0938                 1.0524
 Frc consts  --      1.3984                 1.4072                 1.3727
 IR Inten    --      1.1964                 0.4051                 1.5989

                    103                    104                    105
                      A                      A                      A
 Frequencies --   1488.9031              1499.8793              1507.3610
 Red. masses --      1.0779                 1.0890                 1.0844
 Frc consts  --      1.4079                 1.4435                 1.4517
 IR Inten    --      4.5168                13.2255                 5.9934

                    106                    107                    108
                      A                      A                      A
 Frequencies --   1511.8005              1524.9380              1626.0116
 Red. masses --      1.0771                 2.2419                 5.6598
 Frc consts  --      1.4504                 3.0717                 8.8165
 IR Inten    --      2.6516                 3.5523                 0.6129

                    109                    110                    111
                      A                      A                      A
 Frequencies --   1648.3781              1773.1310              3018.4490
 Red. masses --      5.7467                11.6037                 1.0468
 Frc consts  --      9.1998                21.4946                 5.6192
 IR Inten    --      0.0643               204.1357                 1.8528

                    112                    113                    114
                      A                      A                      A
 Frequencies --   3029.7555              3039.8108              3058.4552
 Red. masses --      1.0466                 1.0355                 1.0585
 Frc consts  --      5.6606                 5.6377                 5.8335
 IR Inten    --     10.4465                20.2023                13.2534

                    115                    116                    117
                      A                      A                      A
 Frequencies --   3061.4565              3067.7220              3082.9061
 Red. masses --      1.0602                 1.0619                 1.0856
 Frc consts  --      5.8547                 5.8877                 6.0788
 IR Inten    --     12.0990                36.2996                 8.0660

                    118                    119                    120
                      A                      A                      A
 Frequencies --   3098.2705              3102.5249              3110.7361
 Red. masses --      1.1025                 1.1066                 1.0862
 Frc consts  --      6.2353                 6.2756                 6.1926
 IR Inten    --      7.0827                 7.1830                 2.6093

                    121                    122                    123
                      A                      A                      A
 Frequencies --   3115.1710              3115.4679              3118.6650
 Red. masses --      1.0985                 1.1021                 1.0869
 Frc consts  --      6.2805                 6.3027                 6.2286
 IR Inten    --      2.5130                23.3019                 1.7085

                    124                    125                    126
                      A                      A                      A
 Frequencies --   3122.0814              3133.4753              3157.6873
 Red. masses --      1.0949                 1.1044                 1.1055
 Frc consts  --      6.2879                 6.3891                 6.4945
 IR Inten    --     25.5756                22.4329                 2.5416

                    127                    128                    129
                      A                      A                      A
 Frequencies --   3161.2683              3169.0801              3178.7921
 Red. masses --      1.1045                 1.0847                 1.0879
 Frc consts  --      6.5031                 6.4183                 6.4769
 IR Inten    --      5.0906                 0.4948                 5.9230

                    130                    131                    132
                      A                      A                      A
 Frequencies --   3187.1556              3193.7724              3199.5854
 Red. masses --      1.0916                 1.0944                 1.0987
 Frc consts  --      6.5334                 6.5771                 6.6268
 IR Inten    --     17.0078                 5.0733                10.7475

 - Thermochemistry -
 -------------------
 Temperature   298.150 Kelvin.  Pressure   1.00000 Atm.
 Atom     1 has atomic number  6 and mass  12.00000

 Molecular mass:   434.99839 amu.
 Principal axes and moments of inertia in atomic units:
                           1         2         3
     Eigenvalues --  9005.58185********************
           X            0.99630   0.08441   0.01625
           Y           -0.08471   0.99622   0.01921
           Z           -0.01457  -0.02051   0.99968
 This molecule is an asymmetric top.
 Rotational symmetry number  1.
 Warning -- assumption of classical behavior for rotation
           may cause significant error
 Rotational temperatures (Kelvin)      0.00962     0.00750     0.00688
 Rotational constants (GHZ):           0.20040     0.15628     0.14341
 Zero-point vibrational energy     945573.8 (Joules/Mol)
                                  225.99757 (Kcal/Mol)
 Warning -- explicit consideration of  41 degrees of freedom as
           vibrations may cause significant error
 Vibrational temperatures:     25.56    38.27    42.90    64.90    70.27
          (Kelvin)             90.77    92.12   107.59   112.61   124.21
                              147.13   157.00   165.21   172.81   178.90
                              194.00   241.70   248.52   278.59   284.28
                              306.95   324.99   343.00   365.43   375.59
                              376.49   426.05   450.75   491.95   499.50
                              539.85   546.09   563.60   578.00   579.75
                              591.14   599.33   674.38   741.31   778.16
                              800.83   901.20   912.30   961.35  1010.56
                             1017.38  1089.34  1123.03  1131.72  1150.91
                             1163.60  1215.06  1216.11  1254.62  1311.18
                             1323.96  1335.47  1354.20  1379.61  1393.75
                             1411.31  1415.32  1441.05  1446.75  1448.79
                             1470.68  1497.98  1515.31  1517.76  1532.69
                             1580.55  1589.69  1611.19  1629.87  1664.42
                             1682.34  1690.35  1702.39  1724.61  1741.95
                             1761.46  1806.97  1821.46  1846.46  1862.94
                             1879.80  1895.67  1908.35  1921.76  1957.64
                             1965.99  1976.10  2003.85  2021.01  2027.70
                             2038.85  2092.31  2113.76  2120.39  2123.96
                             2126.10  2140.75  2142.20  2157.99  2168.76
                             2175.14  2194.05  2339.47  2371.65  2551.14
                             4342.87  4359.14  4373.61  4400.43  4404.75
                             4413.77  4435.61  4457.72  4463.84  4475.66
                             4482.04  4482.46  4487.06  4491.98  4508.37
                             4543.21  4548.36  4559.60  4573.57  4585.61
                             4595.13  4603.49

 Zero-point correction=                           0.360150 (Hartree/Particle)
 Thermal correction to Energy=                    0.387702
 Thermal correction to Enthalpy=                  0.388647
 Thermal correction to Gibbs Free Energy=         0.297652
 Sum of electronic and zero-point Energies=          -3531.068406
 Sum of electronic and thermal Energies=             -3531.040854
 Sum of electronic and thermal Enthalpies=           -3531.039910
 Sum of electronic and thermal Free Energies=        -3531.130904

                     E (Thermal)             CV                S
                      KCal/Mol        Cal/Mol-Kelvin    Cal/Mol-Kelvin
 Total                  243.287             98.372            191.514
 Electronic               0.000              0.000              3.561
 Translational            0.889              2.981             44.100
 Rotational               0.889              2.981             35.525
 Vibrational            241.510             92.410            108.329
 Vibration     1          0.593              1.986              6.870
 Vibration     2          0.593              1.984              6.068
 Vibration     3          0.594              1.984              5.842
 Vibration     4          0.595              1.979              5.021
 Vibration     5          0.595              1.978              4.864
 Vibration     6          0.597              1.972              4.358
 Vibration     7          0.597              1.971              4.329
 Vibration     8          0.599              1.966              4.023
 Vibration     9          0.600              1.964              3.934
 Vibration    10          0.601              1.959              3.742
 Vibration    11          0.604              1.947              3.411
 Vibration    12          0.606              1.942              3.284
 Vibration    13          0.608              1.937              3.186
 Vibration    14          0.609              1.932              3.099
 Vibration    15          0.610              1.929              3.032
 Vibration    16          0.613              1.919              2.876
 Vibration    17          0.625              1.882              2.458
 Vibration    18          0.626              1.876              2.406
 Vibration    19          0.635              1.849              2.193
 Vibration    20          0.637              1.843              2.155
 Vibration    21          0.644              1.821              2.015
 Vibration    22          0.650              1.802              1.911
 Vibration    23          0.656              1.782              1.815
 Vibration    24          0.665              1.756              1.703
 Vibration    25          0.669              1.744              1.655
 Vibration    26          0.669              1.743              1.651
 Vibration    27          0.690              1.681              1.439
 Vibration    28          0.701              1.648              1.345
 Vibration    29          0.721              1.592              1.203
 Vibration    30          0.725              1.581              1.179
 Vibration    31          0.746              1.523              1.058
 Vibration    32          0.750              1.514              1.041
 Vibration    33          0.759              1.488              0.994
 Vibration    34          0.767              1.466              0.956
 Vibration    35          0.768              1.464              0.952
 Vibration    36          0.775              1.447              0.924
 Vibration    37          0.780              1.434              0.904
 Vibration    38          0.826              1.319              0.741
 Vibration    39          0.870              1.216              0.621
 Vibration    40          0.896              1.160              0.563
 Vibration    41          0.912              1.125              0.531

                           ! Non-Optimized Parameters !
 Normal termination of Gaussian 16 at Sun Jun 20 09:10:22 2021.

 ----------------------------------------------------------------------
 #p ub3lyp jul-cc-pvdz pop=cm5 scrf=(pcm,solvent=dichloroethane) guess=
 read geom=allcheck
 ----------------------------------------------------------------------

 Structure from the checkpoint file:  "checkpoint.chk"
 -----
 title
 -----
 Charge =  0 Multiplicity = 6

 SCF Done:  E(UB3LYP) =  -3531.44846157     A.U. after   16 cycles
 Normal termination of Gaussian 16 at Sun Jun 20 09:33:00 2021.
 Gaussian 16:  ES64L-G16RevA.03 25-Dec-2016

 ----------------------------------------------------------------------
 #p ub3lyp jul-cc-pvdz pop=cm5 scrf=(pcm,solvent=water) guess=read geom
 =allcheck
 ----------------------------------------------------------------------

 Structure from the checkpoint file:  "checkpoint.chk"
 -----
 title
 -----
 Charge =  0 Multiplicity = 6

                         Standard orientation:
 ---------------------------------------------------------------------
 Center     Atomic      Atomic             Coordinates (Angstroms)
 Number     Number       Type             X           Y           Z
 ---------------------------------------------------------------------
      1          6           0        1.807039   -2.112487    1.656180
      2          6           0        1.200260   -1.011176    1.035974
      3          6           0        1.209129    0.222594    1.704802
      4          6           0        1.781150    0.342563    2.971695
      5          6           0        2.375563   -0.763671    3.585714
      6          6           0        2.393521   -1.990325    2.919610
      7          6           0        0.610105   -1.122454   -0.353581
      8          6           0        1.548304   -0.636293   -1.514546
      9          6           0        2.186672   -1.935540   -2.036490
     10          6           0        1.047015   -2.975060   -2.031240
     11          6           0        0.149157   -2.573368   -0.845894
     12          6           0       -1.303234   -2.121618   -1.086498
     13          6           0       -1.806494   -1.883554   -2.476498
     14          8           0       -0.745134   -0.525354   -0.469675
     15         26           0       -1.954889    0.864128    0.304535
     16         17           0       -3.738288    0.782871   -1.007705
     17          6           0       -2.315406   -2.638996   -0.109890
     18         17           0       -1.017365    2.854521    0.225782
     19         17           0       -2.477856    0.237463    2.350294
     20          1           0        0.769236    1.104875    1.241864
     21          1           0        1.759502    1.307318    3.479949
     22          1           0        2.823792   -0.668714    4.575722
     23          1           0        2.862017   -2.860172    3.382093
     24          1           0        1.843850   -3.080561    1.157257
     25          1           0        0.892695   -0.194480   -2.275263
     26          6           0        2.595564    0.403399   -1.142184
     27          1           0        2.637277   -1.798137   -3.028015
     28          1           0        2.993929   -2.230759   -1.353078
     29          1           0        0.498104   -2.949232   -2.981027
     30          1           0        1.428345   -3.997809   -1.917108
     31          1           0        0.169465   -3.311422   -0.039352
     32          1           0       -2.506144   -3.691934   -0.380366
     33          1           0       -1.941161   -2.613875    0.919013
     34          1           0       -3.263115   -2.092457   -0.172251
     35          1           0       -2.049298   -2.865119   -2.916618
     36          1           0       -2.722577   -1.283429   -2.453739
     37          1           0       -1.068905   -1.393657   -3.119468
     38          8           0        2.147227    1.649370   -1.374027
     39          8           0        3.701182    0.142922   -0.717028
     40          6           0        3.058458    2.736639   -1.047154
     41          6           0        2.426490    4.027197   -1.527010
     42          1           0        3.217863    2.729731    0.039848
     43          1           0        4.022758    2.534452   -1.531889
     44          1           0        3.087845    4.869276   -1.276541
     45          1           0        2.282379    4.013284   -2.616422
     46          1           0        1.452944    4.190371   -1.046932
 ---------------------------------------------------------------------

 SCF Done:  E(UB3LYP) =  -3531.45232682     A.U. after   14 cycles

 The electronic state is 6-A.
 Alpha  occ. eigenvalues -- -256.21528-101.52980-101.52868-101.52748 -30.20896
 Alpha  occ. eigenvalues --  -26.06280 -26.06111 -26.06007 -19.20292 -19.20153
 Alpha  occ. eigenvalues --  -19.15169 -10.32789 -10.30313 -10.28834 -10.24733
 Alpha  occ. eigenvalues --  -10.22046 -10.21856 -10.21531 -10.20515 -10.20340
 Alpha  occ. eigenvalues --  -10.20282 -10.20279 -10.20271 -10.20229 -10.20190
 Alpha  occ. eigenvalues --  -10.19844 -10.19798 -10.18576  -9.44699  -9.44594
 Alpha  occ. eigenvalues --   -9.44476  -7.20566  -7.20465  -7.20349  -7.20258
 Alpha  occ. eigenvalues --   -7.20236  -7.20155  -7.20123  -7.20024  -7.20020
 Alpha  occ. eigenvalues --   -3.68529  -2.46117  -2.45868  -2.45626  -1.12006
 Alpha  occ. eigenvalues --   -1.04575  -1.03558  -0.87745  -0.86012  -0.83530
 Alpha  occ. eigenvalues --   -0.80970  -0.80225  -0.80091  -0.78659  -0.77736
 Alpha  occ. eigenvalues --   -0.76144  -0.74692  -0.72609  -0.71563  -0.66355
 Alpha  occ. eigenvalues --   -0.63935  -0.62161  -0.60886  -0.59462  -0.56947
 Alpha  occ. eigenvalues --   -0.56061  -0.54162  -0.52821  -0.51321  -0.50465
 Alpha  occ. eigenvalues --   -0.50001  -0.49270  -0.48957  -0.48771  -0.48569
 Alpha  occ. eigenvalues --   -0.48159  -0.47633  -0.47106  -0.46296  -0.46027
 Alpha  occ. eigenvalues --   -0.45478  -0.44675  -0.43923  -0.43228  -0.42875
 Alpha  occ. eigenvalues --   -0.42045  -0.41167  -0.40374  -0.40176  -0.39839
 Alpha  occ. eigenvalues --   -0.39325  -0.38937  -0.37892  -0.37527  -0.37178
 Alpha  occ. eigenvalues --   -0.36857  -0.36529  -0.36095  -0.35656  -0.35270
 Alpha  occ. eigenvalues --   -0.34940  -0.34410  -0.34052  -0.33328  -0.32025
 Alpha  occ. eigenvalues --   -0.31602  -0.31452  -0.31375  -0.31237  -0.30874
 Alpha  occ. eigenvalues --   -0.30244  -0.30158  -0.29185  -0.26852  -0.26512
 Alpha virt. eigenvalues --   -0.05363  -0.03625  -0.02960  -0.01476  -0.01322
 Alpha virt. eigenvalues --   -0.00173  -0.00047   0.00112   0.01485   0.01686
 Alpha virt. eigenvalues --    0.01748   0.01844   0.02389   0.03229   0.03782

  Beta  occ. eigenvalues -- -256.21342-101.52785-101.52673-101.52552 -30.11980
  Beta  occ. eigenvalues --  -25.98746 -25.98714 -25.98643 -19.20292 -19.19748
  Beta  occ. eigenvalues --  -19.15167 -10.32789 -10.30301 -10.28806 -10.24733
  Beta  occ. eigenvalues --  -10.22035 -10.21848 -10.21527 -10.20513 -10.20340
  Beta  occ. eigenvalues --  -10.20282 -10.20276 -10.20271 -10.20229 -10.20189
  Beta  occ. eigenvalues --  -10.19841 -10.19797 -10.18575  -9.44508  -9.44403
  Beta  occ. eigenvalues --   -9.44283  -7.20256  -7.20145  -7.20030  -7.19986
  Beta  occ. eigenvalues --   -7.19974  -7.19883  -7.19869  -7.19757  -7.19753
  Beta  occ. eigenvalues --   -3.47729  -2.24029  -2.23930  -2.23886  -1.12005
  Beta  occ. eigenvalues --   -1.03835  -1.03550  -0.87680  -0.85889  -0.83488
  Beta  occ. eigenvalues --   -0.79715  -0.78904  -0.78735  -0.78623  -0.77690
  Beta  occ. eigenvalues --   -0.76136  -0.74670  -0.72586  -0.71418  -0.66318
  Beta  occ. eigenvalues --   -0.63896  -0.62141  -0.60840  -0.59335  -0.56904
  Beta  occ. eigenvalues --   -0.55482  -0.54125  -0.52133  -0.51229  -0.50040
  Beta  occ. eigenvalues --   -0.49596  -0.48937  -0.47504  -0.47091  -0.46374
  Beta  occ. eigenvalues --   -0.45506  -0.44681  -0.43924  -0.43270  -0.42885
  Beta  occ. eigenvalues --   -0.42052  -0.41165  -0.40355  -0.40133  -0.39812
  Beta  occ. eigenvalues --   -0.38947  -0.38803  -0.38011  -0.37527  -0.37217
  Beta  occ. eigenvalues --   -0.36925  -0.36761  -0.36475  -0.36452  -0.35988
  Beta  occ. eigenvalues --   -0.35622  -0.35242  -0.34112  -0.33771  -0.33680
  Beta  occ. eigenvalues --   -0.33245  -0.32909  -0.32484  -0.31787  -0.31212
  Beta  occ. eigenvalues --   -0.30348  -0.30106  -0.29143  -0.26841  -0.26484
  Beta virt. eigenvalues --   -0.15514  -0.15070  -0.14114  -0.13911  -0.13573
  Beta virt. eigenvalues --   -0.04883  -0.03529  -0.02931  -0.01366  -0.01283
  Beta virt. eigenvalues --   -0.00108  -0.00024   0.00136   0.01511   0.01711

 Mulliken charges and spin densities:
               1          2
     1  C   -0.297615   0.004897
     2  C    3.455146  -0.004501
     3  C   -0.401027  -0.014238
     4  C    0.011758   0.000228
     5  C    0.245578  -0.000497
     6  C   -0.178341   0.001422
     7  C   -2.610754   0.027844
     8  C    0.256285   0.000063
     9  C    0.529375   0.001121
    10  C    0.596780   0.001649
    11  C    0.906876   0.001261
    12  C   -0.885947   0.012294
    13  C    0.433317  -0.003839
    14  O   -0.240110   0.109747
    15  Fe   0.576181   4.057934
    16  Cl  -0.480282   0.266843
    17  C    0.501844   0.001567
    18  Cl  -0.446649   0.268756
    19  Cl  -0.448135   0.262354
    20  H   -0.314610   0.000790
    21  H   -0.164373  -0.000001
    22  H   -0.162566   0.000027
    23  H   -0.157839   0.000032
    24  H   -0.194171  -0.000006
    25  H   -0.211260   0.000051
    26  C    1.016544   0.002195
    27  H   -0.141852   0.000365
    28  H   -0.055614   0.000005
    29  H   -0.093134  -0.000040
    30  H   -0.120531   0.000364
    31  H   -0.223273   0.001096
    32  H    0.023720   0.000136
    33  H    0.053185  -0.000679
    34  H    0.034075   0.000068
    35  H    0.046875   0.002165
    36  H    0.028793  -0.000372
    37  H    0.042310  -0.000254
    38  O   -0.699035  -0.000893
    39  O   -0.662327   0.000619
    40  C    0.415849  -0.001093
    41  C    0.059337   0.001131
    42  H   -0.040799   0.000021
    43  H   -0.048939  -0.000004
    44  H   -0.003884   0.000067
    45  H    0.021846  -0.000007
    46  H    0.027393  -0.000690
 Sum of Mulliken charges =  -0.00000   5.00000

 Dipole moment (field-independent basis, Debye):
    X=              3.9474    Y=             -8.8000    Z=             -4.8451  Tot=             10.7934
 Quadrupole moment (field-independent basis, Debye-Ang):
   XX=           -200.4097   YY=           -153.1838   ZZ=           -167.1515
   XY=             18.0687   XZ=              8.1825   YZ=              6.5445

 Normal termination of Gaussian 16 at Sun Jun 20 09:52:39 2021.
