 Gaussian 16, Revision A.03,

 -----------------------------------------------------------
 #p opt=modredundant freq=noraman ub3lyp jul-cc-pvdz pop=cm5
 -----------------------------------------------------------

 -----
 title
 -----
 Symbolic Z-matrix:
 Charge =  0 Multiplicity = 6

 SCF Done:  E(UB3LYP) =  -3531.41180212     A.U. after   26 cycles
 SCF Done:  E(UB3LYP) =  -3531.41237421     A.U. after   16 cycles
 SCF Done:  E(UB3LYP) =  -3531.41191200     A.U. after   15 cycles
 SCF Done:  E(UB3LYP) =  -3531.41248312     A.U. after   14 cycles
 SCF Done:  E(UB3LYP) =  -3531.41249901     A.U. after   14 cycles
 SCF Done:  E(UB3LYP) =  -3531.41250913     A.U. after   14 cycles
 SCF Done:  E(UB3LYP) =  -3531.41251355     A.U. after   12 cycles
 SCF Done:  E(UB3LYP) =  -3531.41251706     A.U. after   12 cycles
 SCF Done:  E(UB3LYP) =  -3531.41252193     A.U. after   12 cycles
 SCF Done:  E(UB3LYP) =  -3531.41252449     A.U. after   12 cycles
 SCF Done:  E(UB3LYP) =  -3531.41254373     A.U. after   13 cycles
 SCF Done:  E(UB3LYP) =  -3531.41254518     A.U. after   13 cycles
 SCF Done:  E(UB3LYP) =  -3531.41254638     A.U. after   11 cycles
 SCF Done:  E(UB3LYP) =  -3531.41254663     A.U. after   11 cycles
 SCF Done:  E(UB3LYP) =  -3531.41254676     A.U. after   10 cycles
 SCF Done:  E(UB3LYP) =  -3531.41254688     A.U. after   11 cycles
 SCF Done:  E(UB3LYP) =  -3531.41254693     A.U. after    9 cycles
 Optimization completed.
    -- Stationary point found.
 Normal termination of Gaussian 16 at Sun Jun 20 03:59:15 2021.

 ----------------------------------------------------------------------
 #P Geom=AllCheck Guess=TCheck SCRF=Check GenChk UB3LYP/Jul-CC-pVDZ Fre
 q
 ----------------------------------------------------------------------

 Structure from the checkpoint file:  "checkpoint.chk"
 -----
 title
 -----
 Charge =  0 Multiplicity = 6

 SCF Done:  E(UB3LYP) =  -3531.41254693     A.U. after    2 cycles

  Exact polarizability: 330.816  -7.440 292.662  12.484 -11.168 283.140
 Approx polarizability: 496.289  -9.164 447.469   8.989 -25.793 467.233

 ******    1 imaginary frequencies (negative Signs) ******

                      1                      2                      3
                      A                      A                      A
 Frequencies --   -122.0997                15.5292                23.8563
 Red. masses --      5.3037                 4.8869                 4.7651
 Frc consts  --      0.0466                 0.0007                 0.0016
 IR Inten    --     77.1987                 1.3088                 1.9252

                      4                      5                      6
                      A                      A                      A
 Frequencies --     30.0870                32.4893                39.8808
 Red. masses --      8.1062                 6.7718                 5.9481
 Frc consts  --      0.0043                 0.0042                 0.0056
 IR Inten    --      0.5998                 0.7483                 3.0315

                      7                      8                      9
                      A                      A                      A
 Frequencies --     52.8090                64.2718                71.8875
 Red. masses --      4.0696                 2.8610                 3.8417
 Frc consts  --      0.0067                 0.0070                 0.0117
 IR Inten    --      1.4304                 0.1185                 4.4293

                     10                     11                     12
                      A                      A                      A
 Frequencies --     82.7548                88.0621                96.5999
 Red. masses --      6.6409                10.6826                10.6874
 Frc consts  --      0.0268                 0.0488                 0.0588
 IR Inten    --      1.2275                 0.9773                 0.6383

                     13                     14                     15
                      A                      A                      A
 Frequencies --     99.4291               113.2933               117.1683
 Red. masses --      5.0516                 4.3796                 4.2257
 Frc consts  --      0.0294                 0.0331                 0.0342
 IR Inten    --      7.7752                 2.9412                 2.0989

                     16                     17                     18
                      A                      A                      A
 Frequencies --    123.1862               134.1015               151.4589
 Red. masses --      6.2813                 5.1471                 1.6645
 Frc consts  --      0.0562                 0.0545                 0.0225
 IR Inten    --      5.7830                 0.6531                 1.0913

                     19                     20                     21
                      A                      A                      A
 Frequencies --    154.5532               185.8778               187.7920
 Red. masses --      2.8649                 2.5621                 2.0662
 Frc consts  --      0.0403                 0.0522                 0.0429
 IR Inten    --      2.0486                 0.4842                33.2094

                     22                     23                     24
                      A                      A                      A
 Frequencies --    202.6775               213.5441               245.8503
 Red. masses --      1.4592                 3.1569                 3.3834
 Frc consts  --      0.0353                 0.0848                 0.1205
 IR Inten    --      2.9358                13.9026                 7.1182

                     25                     26                     27
                      A                      A                      A
 Frequencies --    252.4788               267.1469               285.6023
 Red. masses --      1.8298                 3.9069                 3.7983
 Frc consts  --      0.0687                 0.1643                 0.1825
 IR Inten    --      1.7674                 6.8041                 2.6336

                     28                     29                     30
                      A                      A                      A
 Frequencies --    300.6673               315.5388               332.9659
 Red. masses --      4.6200                 3.0804                19.4062
 Frc consts  --      0.2461                 0.1807                 1.2676
 IR Inten    --      5.3666                43.3682                56.4496

                     31                     32                     33
                      A                      A                      A
 Frequencies --    354.5428               358.6195               375.8576
 Red. masses --      5.3512                32.4251                 3.7982
 Frc consts  --      0.3963                 2.4570                 0.3161
 IR Inten    --      4.7161                75.2180                14.6395

                     34                     35                     36
                      A                      A                      A
 Frequencies --    394.3230               413.1351               413.6835
 Red. masses --     24.3270                 3.2090                 3.0572
 Frc consts  --      2.2287                 0.3227                 0.3083
 IR Inten    --     80.7386                 8.8218                 2.8532

                     37                     38                     39
                      A                      A                      A
 Frequencies --    433.7447               467.7955               501.7181
 Red. masses --      4.2693                 3.6642                 2.8385
 Frc consts  --      0.4732                 0.4724                 0.4210
 IR Inten    --     10.2593                14.4966                 4.8623

                     40                     41                     42
                      A                      A                      A
 Frequencies --    533.1958               539.2158               560.3644
 Red. masses --      2.4650                 2.8487                 3.0392
 Frc consts  --      0.4129                 0.4880                 0.5623
 IR Inten    --     18.9644                10.5006                37.5618

                     43                     44                     45
                      A                      A                      A
 Frequencies --    625.7071               630.1848               672.5516
 Red. masses --      5.3316                 5.0473                 4.6852
 Frc consts  --      1.2298                 1.1810                 1.2486
 IR Inten    --      7.2937                 6.9584               167.0889

                     46                     47                     48
                      A                      A                      A
 Frequencies --    705.3345               717.7864               761.7124
 Red. masses --      1.8296                 3.4208                 3.6117
 Frc consts  --      0.5363                 1.0384                 1.2346
 IR Inten    --     37.7764                42.7768                 8.6842

                     49                     50                     51
                      A                      A                      A
 Frequencies --    768.8707               804.5425               815.4395
 Red. masses --      2.8048                 1.1306                 1.2969
 Frc consts  --      0.9769                 0.4312                 0.5081
 IR Inten    --     14.5911                 1.5936                 0.9812

                     52                     53                     54
                      A                      A                      A
 Frequencies --    829.2456               833.3653               847.7837
 Red. masses --      3.6764                 2.9777                 1.2770
 Frc consts  --      1.4895                 1.2184                 0.5408
 IR Inten    --     35.0331                25.1350                 3.8531

                     55                     56                     57
                      A                      A                      A
 Frequencies --    869.9592               889.1628               919.0019
 Red. masses --      2.5822                 2.0609                 2.4055
 Frc consts  --      1.1515                 0.9600                 1.1970
 IR Inten    --     19.4878                 2.5805                 7.0007

                     58                     59                     60
                      A                      A                      A
 Frequencies --    928.0983               949.6117               983.6602
 Red. masses --      1.6640                 2.2235                 1.6741
 Frc consts  --      0.8445                 1.1813                 0.9544
 IR Inten    --     15.6923                19.2194                25.6544

                     61                     62                     63
                      A                      A                      A
 Frequencies --    984.9695               998.4151              1000.9782
 Red. masses --      1.5804                 2.0719                 1.4623
 Frc consts  --      0.9034                 1.2169                 0.8632
 IR Inten    --     25.5258                 6.0197                 1.7896

                     64                     65                     66
                      A                      A                      A
 Frequencies --   1003.9412              1007.4408              1020.0362
 Red. masses --      2.1143                 3.2061                 1.5967
 Frc consts  --      1.2555                 1.9172                 0.9788
 IR Inten    --      2.3596                 6.4277                20.3559

                     67                     68                     69
                      A                      A                      A
 Frequencies --   1038.0347              1040.6923              1047.3695
 Red. masses --      2.0784                 2.1626                 2.3233
 Frc consts  --      1.3194                 1.3800                 1.5016
 IR Inten    --     40.7391                 3.0421                 7.7822

                     70                     71                     72
                      A                      A                      A
 Frequencies --   1055.5080              1102.1964              1116.5179
 Red. masses --      2.2420                 1.5803                 2.0605
 Frc consts  --      1.4717                 1.1311                 1.5134
 IR Inten    --     13.9338                16.4049                13.6958

                     73                     74                     75
                      A                      A                      A
 Frequencies --   1124.9557              1133.4651              1155.6670
 Red. masses --      2.5947                 2.1922                 1.6713
 Frc consts  --      1.9347                 1.6594                 1.3151
 IR Inten    --     52.7301                13.8150                31.3574

                     76                     77                     78
                      A                      A                      A
 Frequencies --   1163.1237              1168.0890              1172.7740
 Red. masses --      2.4477                 1.6077                 1.0859
 Frc consts  --      1.9510                 1.2924                 0.8799
 IR Inten    --     90.8911                 8.4022                 0.6471

                     79                     80                     81
                      A                      A                      A
 Frequencies --   1187.0779              1199.8462              1232.7167
 Red. masses --      2.0469                 1.2038                 1.7391
 Frc consts  --      1.6994                 1.0211                 1.5571
 IR Inten    --    102.9351                14.2891                97.9765

                     82                     83                     84
                      A                      A                      A
 Frequencies --   1241.9315              1252.3523              1281.7825
 Red. masses --      2.4634                 1.7409                 1.1023
 Frc consts  --      2.2386                 1.6087                 1.0670
 IR Inten    --    263.6632                72.9481                 0.8290

                     85                     86                     87
                      A                      A                      A
 Frequencies --   1309.6781              1313.5219              1315.9549
 Red. masses --      1.4213                 1.2822                 1.5278
 Frc consts  --      1.4364                 1.3034                 1.5589
 IR Inten    --     52.0933                41.9867               135.1702

                     88                     89                     90
                      A                      A                      A
 Frequencies --   1323.9307              1331.2143              1345.4633
 Red. masses --      1.3323                 1.5680                 1.2461
 Frc consts  --      1.3759                 1.6372                 1.3291
 IR Inten    --     13.9642                18.9772                14.8488

                     91                     92                     93
                      A                      A                      A
 Frequencies --   1355.3219              1364.8821              1375.1181
 Red. masses --      3.6650                 1.4571                 1.6764
 Frc consts  --      3.9665                 1.5993                 1.8677
 IR Inten    --      1.3794                46.3810                60.8578

                     94                     95                     96
                      A                      A                      A
 Frequencies --   1390.2225              1417.0435              1420.3019
 Red. masses --      1.5817                 1.4204                 1.1882
 Frc consts  --      1.8011                 1.6805                 1.4122
 IR Inten    --     52.6409                22.7429                12.5280

                     97                     98                     99
                      A                      A                      A
 Frequencies --   1427.2397              1450.5284              1468.8672
 Red. masses --      1.1385                 1.3733                 2.2493
 Frc consts  --      1.3665                 1.7024                 2.8593
 IR Inten    --     30.6556                18.7569                18.7707

                    100                    101                    102
                      A                      A                      A
 Frequencies --   1473.7695              1483.4738              1484.3455
 Red. masses --      1.0393                 1.0519                 1.0947
 Frc consts  --      1.3300                 1.3639                 1.4211
 IR Inten    --      5.9344                 7.5595                 6.4561

                    103                    104                    105
                      A                      A                      A
 Frequencies --   1489.1197              1496.8916              1505.8835
 Red. masses --      1.2212                 1.1991                 1.1084
 Frc consts  --      1.5955                 1.5830                 1.4809
 IR Inten    --      4.9278                22.1013                13.2186

                    106                    107                    108
                      A                      A                      A
 Frequencies --   1507.9779              1514.7993              1621.6360
 Red. masses --      1.5730                 2.0956                 5.8227
 Frc consts  --      2.1074                 2.8331                 9.0215
 IR Inten    --     16.5491                 5.9350                 0.3901

                    109                    110                    111
                      A                      A                      A
 Frequencies --   1640.3667              1762.4710              2939.7294
 Red. masses --      5.7449                11.8183                 1.0574
 Frc consts  --      9.1078                21.6297                 5.3841
 IR Inten    --      0.9067               225.5757               102.0463

                    112                    113                    114
                      A                      A                      A
 Frequencies --   2953.0808              3037.3782              3041.9462
 Red. masses --      1.0588                 1.0765                 1.0359
 Frc consts  --      5.4402                 5.8513                 5.6475
 IR Inten    --     77.6219                 6.4871                13.7499

                    115                    116                    117
                      A                      A                      A
 Frequencies --   3052.4270              3056.7493              3063.5061
 Red. masses --      1.0615                 1.0580                 1.0633
 Frc consts  --      5.8274                 5.8244                 5.8794
 IR Inten    --     22.9415                16.8308                15.7138

                    118                    119                    120
                      A                      A                      A
 Frequencies --   3064.1593              3085.3505              3088.6700
 Red. masses --      1.0759                 1.0845                 1.0861
 Frc consts  --      5.9519                 6.0826                 6.1046
 IR Inten    --      1.5588                 2.0271                 5.4020

                    121                    122                    123
                      A                      A                      A
 Frequencies --   3101.7872              3106.7046              3118.2488
 Red. masses --      1.1080                 1.1008                 1.1007
 Frc consts  --      6.2806                 6.2601                 6.3059
 IR Inten    --      6.3155                 7.3117                24.7231

                    124                    125                    126
                      A                      A                      A
 Frequencies --   3119.6151              3133.8376              3165.9240
 Red. masses --      1.1034                 1.1048                 1.0988
 Frc consts  --      6.3267                 6.3929                 6.4892
 IR Inten    --     15.2725                24.0820                 7.9580

                    127                    128                    129
                      A                      A                      A
 Frequencies --   3168.5612              3175.7914              3177.3009
 Red. masses --      1.0849                 1.1009                 1.0887
 Frc consts  --      6.4175                 6.5421                 6.4753
 IR Inten    --      0.3189                 4.2359                 4.5948

                    130                    131                    132
                      A                      A                      A
 Frequencies --   3186.5120              3195.6899              3221.5218
 Red. masses --      1.0933                 1.0982                 1.0922
 Frc consts  --      6.5404                 6.6076                 6.6783
 IR Inten    --     14.8386                12.7326                 3.0444

 - Thermochemistry -
 -------------------
 Temperature   298.150 Kelvin.  Pressure   1.00000 Atm.
 Atom     1 has atomic number  6 and mass  12.00000

 Molecular mass:   434.99839 amu.
 Principal axes and moments of inertia in atomic units:
                           1         2         3
     Eigenvalues --  8506.99791********************
           X            0.99737  -0.06992   0.01886
           Y            0.07015   0.99746  -0.01198
           Z           -0.01797   0.01327   0.99975
 This molecule is an asymmetric top.
 Rotational symmetry number  1.
 Warning -- assumption of classical behavior for rotation
           may cause significant error
 Rotational temperatures (Kelvin)      0.01018     0.00739     0.00644
 Rotational constants (GHZ):           0.21215     0.15407     0.13426
    1 imaginary frequencies ignored.
 Zero-point vibrational energy     937598.1 (Joules/Mol)
                                  224.09134 (Kcal/Mol)
 Warning -- explicit consideration of  41 degrees of freedom as
           vibrations may cause significant error
 Vibrational temperatures:     22.34    34.32    43.29    46.74    57.38
          (Kelvin)             75.98    92.47   103.43   119.07   126.70
                              138.99   143.06   163.00   168.58   177.24
                              192.94   217.92   222.37   267.44   270.19
                              291.61   307.24   353.72   363.26   384.36
                              410.92   432.59   453.99   479.06   510.11
                              515.97   540.78   567.34   594.41   595.20
                              624.06   673.05   721.86   767.15   775.81
                              806.24   900.25   906.70   967.65  1014.82
                             1032.73  1095.93  1106.23  1157.56  1173.24
                             1193.10  1199.03  1219.77  1251.68  1279.31
                             1322.24  1335.33  1366.28  1415.27  1417.15
                             1436.50  1440.18  1444.45  1449.48  1467.60
                             1493.50  1497.32  1506.93  1518.64  1585.81
                             1606.42  1618.56  1630.80  1662.75  1673.48
                             1680.62  1687.36  1707.94  1726.31  1773.60
                             1786.86  1801.86  1844.20  1884.33  1889.87
                             1893.37  1904.84  1915.32  1935.82  1950.01
                             1963.76  1978.49  2000.22  2038.81  2043.50
                             2053.48  2086.99  2113.37  2120.43  2134.39
                             2135.64  2142.51  2153.69  2166.63  2169.64
                             2179.46  2333.17  2360.12  2535.80  4229.61
                             4248.82  4370.11  4376.68  4391.76  4397.98
                             4407.70  4408.64  4439.13  4443.91  4462.78
                             4469.85  4486.46  4488.43  4508.89  4555.06
                             4558.85  4569.26  4571.43  4584.68  4597.89
                             4635.05

 Zero-point correction=                           0.357112 (Hartree/Particle)
 Thermal correction to Energy=                    0.384686
 Thermal correction to Enthalpy=                  0.385630
 Thermal correction to Gibbs Free Energy=         0.293586
 Sum of electronic and zero-point Energies=          -3531.055435
 Sum of electronic and thermal Energies=             -3531.027861
 Sum of electronic and thermal Enthalpies=           -3531.026917
 Sum of electronic and thermal Free Energies=        -3531.118961

                     E (Thermal)             CV                S
                      KCal/Mol        Cal/Mol-Kelvin    Cal/Mol-Kelvin
 Total                  241.394             97.709            193.723
 Electronic               0.000              0.000              3.561
 Translational            0.889              2.981             44.100
 Rotational               0.889              2.981             35.548
 Vibrational            239.617             91.747            110.514
 Vibration     1          0.593              1.986              7.137
 Vibration     2          0.593              1.985              6.284
 Vibration     3          0.594              1.984              5.824
 Vibration     4          0.594              1.983              5.671
 Vibration     5          0.594              1.981              5.265
 Vibration     6          0.596              1.976              4.709
 Vibration     7          0.597              1.971              4.322
 Vibration     8          0.598              1.967              4.101
 Vibration     9          0.600              1.961              3.824
 Vibration    10          0.601              1.958              3.703
 Vibration    11          0.603              1.952              3.522
 Vibration    12          0.604              1.950              3.465
 Vibration    13          0.607              1.938              3.212
 Vibration    14          0.608              1.935              3.147
 Vibration    15          0.610              1.930              3.050
 Vibration    16          0.613              1.919              2.886
 Vibration    17          0.619              1.901              2.654
 Vibration    18          0.620              1.898              2.615
 Vibration    19          0.632              1.859              2.269
 Vibration    20          0.632              1.857              2.250
 Vibration    21          0.639              1.836              2.109
 Vibration    22          0.644              1.820              2.013
 Vibration    23          0.660              1.770              1.760
 Vibration    24          0.664              1.759              1.713
 Vibration    25          0.672              1.733              1.615
 Vibration    26          0.683              1.700              1.500
 Vibration    27          0.693              1.672              1.413
 Vibration    28          0.703              1.644              1.333
 Vibration    29          0.715              1.610              1.246
 Vibration    30          0.730              1.566              1.146
 Vibration    31          0.733              1.558              1.128
 Vibration    32          0.747              1.522              1.056
 Vibration    33          0.761              1.482              0.984
 Vibration    34          0.777              1.442              0.916
 Vibration    35          0.777              1.441              0.914
 Vibration    36          0.794              1.397              0.847
 Vibration    37          0.825              1.321              0.744
 Vibration    38          0.857              1.246              0.654
 Vibration    39          0.888              1.177              0.580
 Vibration    40          0.894              1.163              0.567
 Vibration    41          0.916              1.117              0.523

                           ! Non-Optimized Parameters !
 Normal termination of Gaussian 16 at Sun Jun 20 07:49:41 2021.

 ----------------------------------------------------------------------
 #p ub3lyp jul-cc-pvdz pop=cm5 scrf=(pcm,solvent=dichloroethane) guess=
 read geom=allcheck
 ----------------------------------------------------------------------

 Structure from the checkpoint file:  "checkpoint.chk"
 -----
 title
 -----
 Charge =  0 Multiplicity = 6

 SCF Done:  E(UB3LYP) =  -3531.43884234     A.U. after   17 cycles
 Normal termination of Gaussian 16 at Sun Jun 20 08:10:30 2021.
 Gaussian 16:  ES64L-G16RevA.03 25-Dec-2016

 ----------------------------------------------------------------------
 #p ub3lyp jul-cc-pvdz pop=cm5 scrf=(pcm,solvent=water) guess=read geom
 =allcheck
 ----------------------------------------------------------------------

 Structure from the checkpoint file:  "checkpoint.chk"
 -----
 title
 -----
 Charge =  0 Multiplicity = 6

                         Standard orientation:
 ---------------------------------------------------------------------
 Center     Atomic      Atomic             Coordinates (Angstroms)
 Number     Number       Type             X           Y           Z
 ---------------------------------------------------------------------
      1          6           0       -2.830717   -1.680517   -0.297898
      2          6           0       -1.645733   -1.013644   -0.655272
      3          6           0       -1.536573   -0.488089   -1.950889
      4          6           0       -2.579607   -0.637715   -2.871026
      5          6           0       -3.748518   -1.311125   -2.509634
      6          6           0       -3.872259   -1.828233   -1.214596
      7          6           0       -0.493118   -0.819129    0.336614
      8          6           0       -0.899323   -0.088277    1.694510
      9          6           0       -1.004431   -1.134135    2.805564
     10          6           0        0.108523   -2.129772    2.467582
     11          6           0       -0.034262   -2.333052    0.959104
     12          6           0        1.099244   -2.742740    0.165503
     13          6           0        2.465962   -2.691229    0.699886
     14          8           0        0.569547   -0.235548   -0.274273
     15         26           0        2.049944    0.893064   -0.345299
     16         17           0        2.945658    0.820101    1.722611
     17          6           0        0.923176   -3.127783   -1.241427
     18         17           0        1.532109    2.934544   -0.995056
     19         17           0        3.387427   -0.169159   -1.808366
     20          1           0       -0.632921    0.049757   -2.228529
     21          1           0       -2.474034   -0.221161   -3.873841
     22          1           0       -4.561742   -1.429002   -3.227422
     23          1           0       -4.786044   -2.342591   -0.913971
     24          1           0       -2.964096   -2.075116    0.709665
     25          1           0       -0.046876    0.571955    1.895556
     26          6           0       -2.137881    0.787341    1.569145
     27          1           0       -0.879761   -0.682657    3.797632
     28          1           0       -1.993545   -1.611466    2.790576
     29          1           0        1.081530   -1.687526    2.715682
     30          1           0        0.017503   -3.079522    3.013004
     31          1           0       -0.896046   -2.964452    0.715188
     32          1           0       -0.117583   -3.240676   -1.553577
     33          1           0        1.408732   -2.314606   -1.822446
     34          1           0        1.512390   -4.029807   -1.467890
     35          1           0        3.227172   -2.976649   -0.031014
     36          1           0        2.675244   -1.668205    1.072607
     37          1           0        2.528131   -3.328277    1.598740
     38          8           0       -1.879393    1.882047    0.841638
     39          8           0       -3.212726    0.536000    2.076041
     40          6           0       -2.985626    2.803359    0.629386
     41          6           0       -2.458478    3.970742   -0.179313
     42          1           0       -3.786930    2.260320    0.109766
     43          1           0       -3.367182    3.112492    1.611898
     44          1           0       -3.275450    4.684245   -0.360576
     45          1           0       -1.652875    4.489499    0.357035
     46          1           0       -2.064143    3.634520   -1.147223
 ---------------------------------------------------------------------

 SCF Done:  E(UB3LYP) =  -3531.44373497     A.U. after   14 cycles

 The electronic state is 6-A.
 Alpha  occ. eigenvalues -- -256.19761-101.51895-101.51871-101.51553 -30.19172
 Alpha  occ. eigenvalues --  -26.04481 -26.04409 -26.04314 -19.20287 -19.15766
 Alpha  occ. eigenvalues --  -19.15243 -10.32869 -10.31764 -10.30412 -10.24815
 Alpha  occ. eigenvalues --  -10.23189 -10.22063 -10.21953 -10.21878 -10.21293
 Alpha  occ. eigenvalues --  -10.20442 -10.20381 -10.20287 -10.20229 -10.20121
 Alpha  occ. eigenvalues --  -10.20029 -10.19874 -10.18634  -9.43613  -9.43585
 Alpha  occ. eigenvalues --   -9.43267  -7.19467  -7.19453  -7.19171  -7.19142
 Alpha  occ. eigenvalues --   -7.19138  -7.19138  -7.19113  -7.18819  -7.18786
 Alpha  occ. eigenvalues --   -3.66907  -2.44423  -2.44246  -2.44111  -1.12135
 Alpha  occ. eigenvalues --   -1.04266  -1.03598  -0.89329  -0.87108  -0.84523
 Alpha  occ. eigenvalues --   -0.79772  -0.79136  -0.78970  -0.78821  -0.77672
 Alpha  occ. eigenvalues --   -0.75918  -0.75503  -0.74620  -0.71699  -0.66476
 Alpha  occ. eigenvalues --   -0.64278  -0.61958  -0.61404  -0.59569  -0.57155
 Alpha  occ. eigenvalues --   -0.56942  -0.54523  -0.53275  -0.51508  -0.50968
 Alpha  occ. eigenvalues --   -0.50332  -0.49015  -0.48816  -0.48438  -0.47566
 Alpha  occ. eigenvalues --   -0.47206  -0.47048  -0.46789  -0.46297  -0.45968
 Alpha  occ. eigenvalues --   -0.44976  -0.44545  -0.44080  -0.43317  -0.43059
 Alpha  occ. eigenvalues --   -0.42681  -0.42094  -0.41455  -0.40935  -0.40715
 Alpha  occ. eigenvalues --   -0.39989  -0.38848  -0.37725  -0.37486  -0.37070
 Alpha  occ. eigenvalues --   -0.36836  -0.36571  -0.36099  -0.35758  -0.35441
 Alpha  occ. eigenvalues --   -0.34847  -0.34117  -0.33938  -0.31815  -0.31389
 Alpha  occ. eigenvalues --   -0.30804  -0.30670  -0.30538  -0.30086  -0.29771
 Alpha  occ. eigenvalues --   -0.29506  -0.28547  -0.28355  -0.26748  -0.26208
 Alpha virt. eigenvalues --   -0.13951  -0.03117  -0.02775  -0.01552  -0.01201
 Alpha virt. eigenvalues --   -0.00192  -0.00086   0.00007   0.01433   0.01536
 Alpha virt. eigenvalues --    0.01819   0.02026   0.02299   0.03482   0.03696

  Beta  occ. eigenvalues -- -256.19577-101.51734-101.51704-101.51397 -30.10237
  Beta  occ. eigenvalues --  -25.97007 -25.96973 -25.96883 -19.20287 -19.15240
  Beta  occ. eigenvalues --  -19.14962 -10.32870 -10.31754 -10.30398 -10.24815
  Beta  occ. eigenvalues --  -10.23158 -10.22062 -10.21955 -10.21858 -10.21265
  Beta  occ. eigenvalues --  -10.20440 -10.20382 -10.20286 -10.20229 -10.20120
  Beta  occ. eigenvalues --  -10.20031 -10.19872 -10.18634  -9.43449  -9.43427
  Beta  occ. eigenvalues --   -9.43112  -7.19196  -7.19166  -7.18934  -7.18932
  Beta  occ. eigenvalues --   -7.18925  -7.18914  -7.18858  -7.18604  -7.18603
  Beta  occ. eigenvalues --   -3.46084  -2.22392  -2.22359  -2.22205  -1.12132
  Beta  occ. eigenvalues --   -1.03594  -1.02703  -0.89168  -0.87065  -0.84452
  Beta  occ. eigenvalues --   -0.78963  -0.78724  -0.78003  -0.77733  -0.77528
  Beta  occ. eigenvalues --   -0.75907  -0.75470  -0.74609  -0.71566  -0.66303
  Beta  occ. eigenvalues --   -0.64174  -0.61894  -0.61354  -0.59342  -0.57101
  Beta  occ. eigenvalues --   -0.56295  -0.54395  -0.52479  -0.51295  -0.50712
  Beta  occ. eigenvalues --   -0.50229  -0.48743  -0.48452  -0.47940  -0.46508
  Beta  occ. eigenvalues --   -0.45906  -0.44849  -0.44418  -0.43346  -0.43095
  Beta  occ. eigenvalues --   -0.42714  -0.42085  -0.41522  -0.40968  -0.40653
  Beta  occ. eigenvalues --   -0.39990  -0.38814  -0.37667  -0.37611  -0.37248
  Beta  occ. eigenvalues --   -0.37032  -0.36742  -0.36059  -0.35784  -0.35532
  Beta  occ. eigenvalues --   -0.35437  -0.35192  -0.34800  -0.32876  -0.32635
  Beta  occ. eigenvalues --   -0.32268  -0.31901  -0.31788  -0.31750  -0.29831
  Beta  occ. eigenvalues --   -0.29478  -0.28628  -0.28178  -0.26752  -0.26167
  Beta virt. eigenvalues --   -0.14068  -0.13602  -0.13338  -0.12557  -0.12164
  Beta virt. eigenvalues --   -0.11272  -0.03081  -0.02746  -0.01437  -0.01161
  Beta virt. eigenvalues --   -0.00148  -0.00053   0.00037   0.01448   0.01562

 Mulliken charges and spin densities:
               1          2
     1  C   -0.080710   0.001102
     2  C    2.741963   0.000216
     3  C   -0.578002  -0.008108
     4  C    0.001586   0.003403
     5  C    0.217088  -0.001598
     6  C   -0.087704   0.002182
     7  C   -2.039587   0.007979
     8  C    0.355331   0.014096
     9  C    0.693009   0.000926
    10  C    0.650038   0.000600
    11  C    0.632464   0.017483
    12  C   -0.399356   0.006968
    13  C    0.304807  -0.002383
    14  O   -0.531454   0.261938
    15  Fe   0.653383   4.044643
    16  Cl  -0.562913   0.207713
    17  C    0.335437  -0.000956
    18  Cl  -0.493003   0.232905
    19  Cl  -0.546946   0.210232
    20  H   -0.195200   0.000684
    21  H   -0.158328   0.000003
    22  H   -0.164045   0.000026
    23  H   -0.159228   0.000227
    24  H   -0.183512  -0.000104
    25  H   -0.237679   0.000367
    26  C    0.909086  -0.004845
    27  H   -0.159643   0.000423
    28  H   -0.062640  -0.000161
    29  H   -0.076880  -0.000281
    30  H   -0.149950   0.000497
    31  H   -0.181336  -0.000419
    32  H    0.045003   0.000051
    33  H    0.156547  -0.000046
    34  H    0.017950   0.000028
    35  H   -0.006584  -0.000097
    36  H    0.173078   0.002584
    37  H    0.079040   0.000331
    38  O   -0.696394  -0.000651
    39  O   -0.671059   0.001540
    40  C    0.453294   0.001038
    41  C    0.050551  -0.000512
    42  H   -0.037675   0.000002
    43  H   -0.042958   0.000001
    44  H   -0.008396   0.000013
    45  H    0.022697  -0.000011
    46  H    0.018830  -0.000033
 Sum of Mulliken charges =  -0.00000   5.00000

 Dipole moment (field-independent basis, Debye):
    X=             -6.0558    Y=            -13.0074    Z=              1.3395  Tot=             14.4104
 Quadrupole moment (field-independent basis, Debye-Ang):
   XX=           -196.6614   YY=           -150.0667   ZZ=           -176.7957
   XY=            -21.9369   XZ=             15.2302   YZ=             -1.8356

 Normal termination of Gaussian 16 at Sun Jun 20 08:27:42 2021.
