 Gaussian 16, Revision A.03,

 -----------------------------------------------------------
 #p opt=modredundant freq=noraman ub3lyp jul-cc-pvdz pop=cm5
 -----------------------------------------------------------

 -----
 title
 -----
 Symbolic Z-matrix:
 Charge =  0 Multiplicity = 6

 SCF Done:  E(UB3LYP) =  -3531.40462570     A.U. after   26 cycles
 SCF Done:  E(UB3LYP) =  -3531.40386279     A.U. after   18 cycles
 SCF Done:  E(UB3LYP) =  -3531.40022581     A.U. after   21 cycles
 SCF Done:  E(UB3LYP) =  -3531.39972004     A.U. after   21 cycles
 SCF Done:  E(UB3LYP) =  -3531.40474965     A.U. after   15 cycles
 SCF Done:  E(UB3LYP) =  -3531.40463059     A.U. after   18 cycles
 SCF Done:  E(UB3LYP) =  -3531.40496245     A.U. after   18 cycles
 SCF Done:  E(UB3LYP) =  -3531.40492713     A.U. after   18 cycles
 SCF Done:  E(UB3LYP) =  -3531.40521222     A.U. after   17 cycles
 SCF Done:  E(UB3LYP) =  -3531.40521178     A.U. after   16 cycles
 SCF Done:  E(UB3LYP) =  -3531.40524193     A.U. after   13 cycles
 SCF Done:  E(UB3LYP) =  -3531.40524253     A.U. after   11 cycles
 SCF Done:  E(UB3LYP) =  -3531.40524541     A.U. after   12 cycles
 SCF Done:  E(UB3LYP) =  -3531.40524276     A.U. after   13 cycles
 SCF Done:  E(UB3LYP) =  -3531.40524298     A.U. after    9 cycles
 SCF Done:  E(UB3LYP) =  -3531.40524543     A.U. after   12 cycles
 SCF Done:  E(UB3LYP) =  -3531.40524309     A.U. after   13 cycles
 Optimization completed.
    -- Stationary point found.
 Normal termination of Gaussian 16 at Sun Jun 20 05:18:38 2021.

 ----------------------------------------------------------------------
 #P Geom=AllCheck Guess=TCheck SCRF=Check GenChk UB3LYP/Jul-CC-pVDZ Fre
 q
 ----------------------------------------------------------------------

 Structure from the checkpoint file:  "checkpoint.chk"
 -----
 title
 -----
 Charge =  0 Multiplicity = 6

 SCF Done:  E(UB3LYP) =  -3531.40524309     A.U. after    2 cycles

  Exact polarizability: 319.583  13.420 297.406  12.385  13.849 300.812
 Approx polarizability: 496.304  41.499 455.372  12.309  23.931 501.520

 ******    2 imaginary frequencies (negative Signs) ******

                      1                      2                      3
                      A                      A                      A
 Frequencies --   -303.1336               -24.8208                25.2362
 Red. masses --      7.2406                 5.4926                 5.8362
 Frc consts  --      0.3920                 0.0020                 0.0022
 IR Inten    --    269.5582                 1.2506                 0.4002

                      4                      5                      6
                      A                      A                      A
 Frequencies --     27.1466                40.2151                49.8663
 Red. masses --      8.3960                 5.1786                 4.7397
 Frc consts  --      0.0036                 0.0049                 0.0069
 IR Inten    --      0.8991                 0.6993                 2.0595

                      7                      8                      9
                      A                      A                      A
 Frequencies --     53.1122                59.4165                67.3533
 Red. masses --      3.3206                 6.0329                 3.8407
 Frc consts  --      0.0055                 0.0125                 0.0103
 IR Inten    --      0.4334                 0.9971                 0.8471

                     10                     11                     12
                      A                      A                      A
 Frequencies --     82.5615                91.7461                98.2862
 Red. masses --      8.9419                 7.3460                 4.9100
 Frc consts  --      0.0359                 0.0364                 0.0279
 IR Inten    --      0.5884                 0.6209                 4.3333

                     13                     14                     15
                      A                      A                      A
 Frequencies --    104.6653               108.1097               120.2493
 Red. masses --     10.7495                 4.7078                19.5411
 Frc consts  --      0.0694                 0.0324                 0.1665
 IR Inten    --      2.8966                 4.1029                 0.9659

                     16                     17                     18
                      A                      A                      A
 Frequencies --    128.2698               147.0644               167.3339
 Red. masses --      8.1659                 4.5011                 2.6783
 Frc consts  --      0.0792                 0.0574                 0.0442
 IR Inten    --      2.0959                 2.8136                 2.2444

                     19                     20                     21
                      A                      A                      A
 Frequencies --    176.7509               190.9402               195.9859
 Red. masses --      1.2593                 2.4176                 3.2878
 Frc consts  --      0.0232                 0.0519                 0.0744
 IR Inten    --      3.3157                 1.8506                 4.2481

                     22                     23                     24
                      A                      A                      A
 Frequencies --    206.7908               214.4998               226.2282
 Red. masses --      1.5512                 2.3782                 2.9910
 Frc consts  --      0.0391                 0.0645                 0.0902
 IR Inten    --      1.1485                 0.8702                12.4454

                     25                     26                     27
                      A                      A                      A
 Frequencies --    244.3434               261.1317               293.1636
 Red. masses --      2.8821                 1.9519                 3.9948
 Frc consts  --      0.1014                 0.0784                 0.2023
 IR Inten    --      6.5082                 3.1316                 5.3796

                     28                     29                     30
                      A                      A                      A
 Frequencies --    319.6274               330.3000               345.7144
 Red. masses --      2.1928                 7.8832                 8.1408
 Frc consts  --      0.1320                 0.5067                 0.5733
 IR Inten    --      0.2505                 7.2028                40.0101

                     31                     32                     33
                      A                      A                      A
 Frequencies --    353.2050               381.0958               383.1796
 Red. masses --      8.2362                 4.8181                16.1181
 Frc consts  --      0.6054                 0.4123                 1.3943
 IR Inten    --     15.4830                17.8558                71.0605

                     34                     35                     36
                      A                      A                      A
 Frequencies --    392.3880               403.7568               410.0525
 Red. masses --     30.1988                 2.7293                 2.8625
 Frc consts  --      2.7395                 0.2621                 0.2836
 IR Inten    --     75.0938                13.8601                 0.9428

                     37                     38                     39
                      A                      A                      A
 Frequencies --    431.6326               452.5856               477.1229
 Red. masses --      3.3988                 4.1846                 3.1478
 Frc consts  --      0.3731                 0.5050                 0.4222
 IR Inten    --     12.3657                13.2149                12.7008

                     40                     41                     42
                      A                      A                      A
 Frequencies --    509.9820               521.0994               565.2698
 Red. masses --      3.1316                 3.0066                 3.2887
 Frc consts  --      0.4799                 0.4810                 0.6191
 IR Inten    --     14.3977                 5.0169                50.4669

                     43                     44                     45
                      A                      A                      A
 Frequencies --    607.0846               626.0958               637.5675
 Red. masses --      3.7825                 6.0228                 4.4016
 Frc consts  --      0.8214                 1.3910                 1.0542
 IR Inten    --     23.9689                17.3768               110.7857

                     46                     47                     48
                      A                      A                      A
 Frequencies --    692.1733               703.4433               756.8019
 Red. masses --      1.6213                 5.8799                 4.6975
 Frc consts  --      0.4577                 1.7143                 1.5852
 IR Inten    --     50.3246                29.6020                 5.8799

                     49                     50                     51
                      A                      A                      A
 Frequencies --    764.9003               795.5328               801.5758
 Red. masses --      2.3567                 2.5193                 1.4524
 Frc consts  --      0.8124                 0.9394                 0.5498
 IR Inten    --     12.1683                10.4854                 8.8956

                     52                     53                     54
                      A                      A                      A
 Frequencies --    818.9332               839.2802               861.4238
 Red. masses --      2.6172                 1.2620                 2.1119
 Frc consts  --      1.0342                 0.5238                 0.9233
 IR Inten    --     27.4465                 1.1504                 9.1740

                     55                     56                     57
                      A                      A                      A
 Frequencies --    867.7654               885.6302               915.0598
 Red. masses --      1.6771                 1.7520                 1.8479
 Frc consts  --      0.7441                 0.8096                 0.9117
 IR Inten    --     33.6923                 3.6353                11.2896

                     58                     59                     60
                      A                      A                      A
 Frequencies --    937.0051               944.6778               960.0248
 Red. masses --      1.4039                 1.3788                 3.1498
 Frc consts  --      0.7262                 0.7250                 1.7104
 IR Inten    --     10.5421                27.2596                23.7478

                     61                     62                     63
                      A                      A                      A
 Frequencies --    984.8612               989.8930               999.3365
 Red. masses --      1.4885                 2.6248                 1.9458
 Frc consts  --      0.8507                 1.5154                 1.1449
 IR Inten    --      4.5390                26.7188                 2.9495

                     64                     65                     66
                      A                      A                      A
 Frequencies --   1002.0092              1006.6273              1007.8638
 Red. masses --      2.1410                 1.5191                 1.8500
 Frc consts  --      1.2665                 0.9069                 1.1072
 IR Inten    --      1.9185                 3.2659                 3.4834

                     67                     68                     69
                      A                      A                      A
 Frequencies --   1036.6790              1046.5157              1064.8393
 Red. masses --      2.7451                 2.5041                 2.1412
 Frc consts  --      1.7382                 1.6158                 1.4305
 IR Inten    --     41.2536                 5.4366                25.5724

                     70                     71                     72
                      A                      A                      A
 Frequencies --   1069.7786              1094.7216              1110.9162
 Red. masses --      1.8507                 1.8435                 1.5792
 Frc consts  --      1.2479                 1.3016                 1.1483
 IR Inten    --     31.1460                10.4425                11.8979

                     73                     74                     75
                      A                      A                      A
 Frequencies --   1132.4582              1136.3074              1162.0649
 Red. masses --      2.1261                 2.2937                 1.7077
 Frc consts  --      1.6065                 1.7450                 1.3587
 IR Inten    --     10.8111                 8.8472                57.4232

                     76                     77                     78
                      A                      A                      A
 Frequencies --   1170.2919              1176.2842              1193.9240
 Red. masses --      1.5724                 1.0887                 1.7285
 Frc consts  --      1.2688                 0.8876                 1.4517
 IR Inten    --      7.5667                 1.1856                44.2465

                     79                     80                     81
                      A                      A                      A
 Frequencies --   1203.5509              1215.6571              1235.7779
 Red. masses --      1.3057                 2.2350                 2.4841
 Frc consts  --      1.1143                 1.9461                 2.2351
 IR Inten    --     22.6373                31.2747               177.3533

                     82                     83                     84
                      A                      A                      A
 Frequencies --   1256.5492              1273.1348              1287.6078
 Red. masses --      1.9130                 2.2990                 1.1650
 Frc consts  --      1.7796                 2.1955                 1.1380
 IR Inten    --     35.7669               358.7820                31.7555

                     85                     86                     87
                      A                      A                      A
 Frequencies --   1319.9821              1326.2174              1333.6167
 Red. masses --      1.3999                 1.4897                 1.6697
 Frc consts  --      1.4371                 1.5437                 1.7496
 IR Inten    --     28.8843                50.1966                35.0411

                     88                     89                     90
                      A                      A                      A
 Frequencies --   1352.5500              1360.3451              1361.7043
 Red. masses --      1.5873                 1.6476                 2.5128
 Frc consts  --      1.7109                 1.7964                 2.7452
 IR Inten    --     59.5948                23.7031                15.3180

                     91                     92                     93
                      A                      A                      A
 Frequencies --   1379.1970              1384.6246              1394.3955
 Red. masses --      1.3914                 1.4151                 1.3120
 Frc consts  --      1.5594                 1.5984                 1.5030
 IR Inten    --     81.8607                44.5058                52.2267

                     94                     95                     96
                      A                      A                      A
 Frequencies --   1404.2717              1416.0001              1452.2594
 Red. masses --      1.4211                 1.4235                 1.0907
 Frc consts  --      1.6512                 1.6816                 1.3553
 IR Inten    --     46.8734                 2.4659                10.8247

                     97                     98                     99
                      A                      A                      A
 Frequencies --   1458.7489              1470.8075              1473.2755
 Red. masses --      1.0875                 2.1772                 1.0389
 Frc consts  --      1.3635                 2.7749                 1.3286
 IR Inten    --     10.6473                22.6887                 4.8171

                    100                    101                    102
                      A                      A                      A
 Frequencies --   1474.6044              1485.8493              1488.1963
 Red. masses --      1.1375                 1.1025                 1.0541
 Frc consts  --      1.4573                 1.4341                 1.3754
 IR Inten    --      7.9630                22.5902                 1.9848

                    103                    104                    105
                      A                      A                      A
 Frequencies --   1498.8731              1506.2326              1507.7093
 Red. masses --      1.1656                 1.0841                 1.1094
 Frc consts  --      1.5429                 1.4491                 1.4858
 IR Inten    --      6.7984                 6.2326                18.3517

                    106                    107                    108
                      A                      A                      A
 Frequencies --   1516.6937              1602.3931              1618.6723
 Red. masses --      1.8517                 4.5828                 5.4759
 Frc consts  --      2.5096                 6.9330                 8.4532
 IR Inten    --      1.9503               153.8854                 9.8133

                    109                    110                    111
                      A                      A                      A
 Frequencies --   1639.0680              1765.2715              3010.6540
 Red. masses --      5.6538                11.4798                 1.0521
 Frc consts  --      8.9492                21.0769                 5.6185
 IR Inten    --     23.3777               235.5478                 1.5397

                    112                    113                    114
                      A                      A                      A
 Frequencies --   3020.8418              3041.6918              3052.3784
 Red. masses --      1.0473                 1.0361                 1.0634
 Frc consts  --      5.6309                 5.6478                 5.8376
 IR Inten    --      4.1419                20.0596                23.9898

                    115                    116                    117
                      A                      A                      A
 Frequencies --   3061.6383              3071.0153              3079.5826
 Red. masses --      1.0592                 1.0640                 1.0857
 Frc consts  --      5.8499                 5.9120                 6.0667
 IR Inten    --     14.0574                28.6913                 0.5640

                    118                    119                    120
                      A                      A                      A
 Frequencies --   3096.9085              3099.3038              3110.3512
 Red. masses --      1.0857                 1.1006                 1.1050
 Frc consts  --      6.1353                 6.2287                 6.2985
 IR Inten    --      4.4079                 4.1287                10.8460

                    121                    122                    123
                      A                      A                      A
 Frequencies --   3117.8346              3118.1431              3124.7755
 Red. masses --      1.1028                 1.0812                 1.0992
 Frc consts  --      6.3160                 6.1939                 6.3235
 IR Inten    --     15.5018                 0.9259                16.7363

                    124                    125                    126
                      A                      A                      A
 Frequencies --   3141.2480              3151.1589              3171.5918
 Red. masses --      1.1044                 1.1051                 1.1039
 Frc consts  --      6.4207                 6.4656                 6.5426
 IR Inten    --     12.7876                 1.6914                 2.7603

                    127                    128                    129
                      A                      A                      A
 Frequencies --   3173.6552              3177.3564              3186.4902
 Red. masses --      1.0860                 1.0885                 1.0912
 Frc consts  --      6.4448                 6.4747                 6.5280
 IR Inten    --      0.3046                 6.8467                 7.2428

                    130                    131                    132
                      A                      A                      A
 Frequencies --   3196.2695              3232.1780              3235.6672
 Red. masses --      1.0970                 1.0921                 1.0913
 Frc consts  --      6.6032                 6.7220                 6.7319
 IR Inten    --     13.9197                 1.8967                 1.3476

 - Thermochemistry -
 -------------------
 Temperature   298.150 Kelvin.  Pressure   1.00000 Atm.
 Atom     1 has atomic number  6 and mass  12.00000

 Molecular mass:   434.99839 amu.
 Principal axes and moments of inertia in atomic units:
                           1         2         3
     Eigenvalues --  9020.71120********************
           X            0.99948  -0.02814   0.01591
           Y            0.02765   0.99917   0.02992
           Z           -0.01674  -0.02946   0.99943
 This molecule is an asymmetric top.
 Rotational symmetry number  1.
 Warning -- assumption of classical behavior for rotation
           may cause significant error
 Rotational temperatures (Kelvin)      0.00960     0.00797     0.00693
 Rotational constants (GHZ):           0.20007     0.16613     0.14444
    2 imaginary frequencies ignored.
 Zero-point vibrational energy     942611.9 (Joules/Mol)
                                  225.28964 (Kcal/Mol)
 Warning -- explicit consideration of  41 degrees of freedom as
           vibrations may cause significant error
 Vibrational temperatures:     36.31    39.06    57.86    71.75    76.42
          (Kelvin)             85.49    96.91   118.79   132.00   141.41
                              150.59   155.55   173.01   184.55   211.59
                              240.76   254.31   274.72   281.98   297.53
                              308.62   325.49   351.56   375.71   421.80
                              459.87   475.23   497.41   508.18   548.31
                              551.31   564.56   580.92   589.97   621.02
                              651.17   686.47   733.75   749.75   813.30
                              873.46   900.81   917.32   995.88  1012.10
                             1088.87  1100.52  1144.59  1153.29  1178.26
                             1207.54  1239.40  1248.52  1274.22  1316.57
                             1348.14  1359.18  1381.26  1417.00  1424.24
                             1437.82  1441.67  1448.31  1450.09  1491.55
                             1505.70  1532.07  1539.17  1575.06  1598.36
                             1629.35  1634.89  1671.95  1683.79  1692.41
                             1717.79  1731.64  1749.06  1778.01  1807.89
                             1831.76  1852.58  1899.16  1908.13  1918.78
                             1946.02  1957.23  1959.19  1984.36  1992.17
                             2006.22  2020.43  2037.31  2089.48  2098.81
                             2116.16  2119.71  2121.63  2137.81  2141.18
                             2156.54  2167.13  2169.26  2182.18  2305.49
                             2328.91  2358.25  2539.83  4331.66  4346.32
                             4376.32  4391.69  4405.01  4418.51  4430.83
                             4455.76  4459.21  4475.10  4485.87  4486.31
                             4495.85  4519.56  4533.81  4563.21  4566.18
                             4571.51  4584.65  4598.72  4650.38  4655.40

 Zero-point correction=                           0.359022 (Hartree/Particle)
 Thermal correction to Energy=                    0.385587
 Thermal correction to Enthalpy=                  0.386531
 Thermal correction to Gibbs Free Energy=         0.298554
 Sum of electronic and zero-point Energies=          -3531.046221
 Sum of electronic and thermal Energies=             -3531.019656
 Sum of electronic and thermal Enthalpies=           -3531.018712
 Sum of electronic and thermal Free Energies=        -3531.106689

                     E (Thermal)             CV                S
                      KCal/Mol        Cal/Mol-Kelvin    Cal/Mol-Kelvin
 Total                  241.960             95.754            185.163
 Electronic               0.000              0.000              3.561
 Translational            0.889              2.981             44.100
 Rotational               0.889              2.981             35.458
 Vibrational            240.182             89.792            102.044
 Vibration     1          0.593              1.985              6.173
 Vibration     2          0.593              1.984              6.028
 Vibration     3          0.594              1.981              5.248
 Vibration     4          0.595              1.978              4.823
 Vibration     5          0.596              1.976              4.698
 Vibration     6          0.597              1.974              4.476
 Vibration     7          0.598              1.970              4.229
 Vibration     8          0.600              1.961              3.829
 Vibration     9          0.602              1.955              3.622
 Vibration    10          0.604              1.950              3.488
 Vibration    11          0.605              1.945              3.366
 Vibration    12          0.606              1.943              3.303
 Vibration    13          0.609              1.932              3.096
 Vibration    14          0.611              1.925              2.972
 Vibration    15          0.617              1.906              2.710
 Vibration    16          0.624              1.883              2.465
 Vibration    17          0.628              1.871              2.362
 Vibration    18          0.634              1.852              2.219
 Vibration    19          0.636              1.845              2.170
 Vibration    20          0.641              1.830              2.072
 Vibration    21          0.644              1.819              2.005
 Vibration    22          0.650              1.801              1.909
 Vibration    23          0.660              1.772              1.771
 Vibration    24          0.669              1.744              1.654
 Vibration    25          0.688              1.686              1.456
 Vibration    26          0.706              1.636              1.312
 Vibration    27          0.713              1.615              1.259
 Vibration    28          0.724              1.584              1.186
 Vibration    29          0.729              1.569              1.152
 Vibration    30          0.751              1.510              1.035
 Vibration    31          0.752              1.506              1.027
 Vibration    32          0.760              1.486              0.991
 Vibration    33          0.769              1.462              0.949
 Vibration    34          0.774              1.448              0.926
 Vibration    35          0.793              1.401              0.853
 Vibration    36          0.811              1.355              0.788
 Vibration    37          0.834              1.301              0.718
 Vibration    38          0.865              1.228              0.634
 Vibration    39          0.876              1.203              0.607
 Vibration    40          0.921              1.106              0.513
 Vibration    41          0.966              1.017              0.438

 Optimization completed.
    -- Stationary point found.
 Normal termination of Gaussian 16 at Sun Jun 20 08:32:48 2021.

 ----------------------------------------------------------------------
 #p ub3lyp jul-cc-pvdz pop=cm5 scrf=(pcm,solvent=dichloroethane) guess=
 read geom=allcheck
 ----------------------------------------------------------------------

 Structure from the checkpoint file:  "checkpoint.chk"
 -----
 title
 -----
 Charge =  0 Multiplicity = 6

 SCF Done:  E(UB3LYP) =  -3531.42513824     A.U. after   19 cycles
 Normal termination of Gaussian 16 at Sun Jun 20 08:54:34 2021.
 Gaussian 16:  ES64L-G16RevA.03 25-Dec-2016

 ----------------------------------------------------------------------
 #p ub3lyp jul-cc-pvdz pop=cm5 scrf=(pcm,solvent=water) guess=read geom
 =allcheck
 ----------------------------------------------------------------------

 Structure from the checkpoint file:  "checkpoint.chk"
 -----
 title
 -----
 Charge =  0 Multiplicity = 6

                         Standard orientation:
 ---------------------------------------------------------------------
 Center     Atomic      Atomic             Coordinates (Angstroms)
 Number     Number       Type             X           Y           Z
 ---------------------------------------------------------------------
      1          6           0        3.225394   -0.184982    0.509644
      2          6           0        1.863481   -0.485600    0.717575
      3          6           0        1.417566   -0.716646    2.033376
      4          6           0        2.306515   -0.653204    3.107483
      5          6           0        3.655174   -0.363286    2.886790
      6          6           0        4.109996   -0.125873    1.583450
      7          6           0        0.866998   -0.535542   -0.397502
      8          6           0        1.019444    0.400567   -1.634681
      9          6           0        1.974391   -0.151298   -2.700688
     10          6           0        1.677431   -1.653772   -2.851131
     11          6           0        1.479708   -2.231637   -1.473535
     12          6           0        0.288926   -2.723054   -0.971351
     13          6           0       -0.977417   -2.759638   -1.765087
     14          8           0       -0.362259   -0.835576   -0.047559
     15         26           0       -2.059799   -0.042607    0.417389
     16         17           0       -2.914175    0.790455   -1.451805
     17          6           0        0.277771   -3.488577    0.310264
     18         17           0       -1.782739    1.428912    2.044400
     19         17           0       -3.215846   -1.797297    1.154383
     20          1           0        0.364771   -0.916677    2.213735
     21          1           0        1.938541   -0.821962    4.120042
     22          1           0        4.350341   -0.312631    3.726319
     23          1           0        5.158524    0.114445    1.404127
     24          1           0        3.601663    0.019193   -0.488499
     25          1           0        0.003593    0.460540   -2.045127
     26          6           0        1.409175    1.824864   -1.213433
     27          1           0        1.829796    0.389256   -3.645736
     28          1           0        3.015799    0.018539   -2.404707
     29          1           0        0.786662   -1.800382   -3.474079
     30          1           0        2.509039   -2.161739   -3.359947
     31          1           0        2.383570   -2.474325   -0.915970
     32          1           0        0.193599   -4.556918    0.045750
     33          1           0        1.197766   -3.357566    0.890084
     34          1           0       -0.600496   -3.238328    0.917399
     35          1           0       -0.945382   -3.687519   -2.363990
     36          1           0       -1.857330   -2.809376   -1.116040
     37          1           0       -1.089744   -1.922703   -2.459293
     38          8           0        0.346414    2.488782   -0.751903
     39          8           0        2.527698    2.285074   -1.313005
     40          6           0        0.564425    3.864363   -0.312258
     41          6           0       -0.791306    4.519447   -0.151638
     42          1           0        1.123014    3.823525    0.632964
     43          1           0        1.190624    4.365107   -1.061292
     44          1           0       -0.649636    5.554287    0.192779
     45          1           0       -1.331644    4.542016   -1.107821
     46          1           0       -1.402234    3.982787    0.584652
 ---------------------------------------------------------------------

 SCF Done:  E(UB3LYP) =  -3531.42880949     A.U. after   17 cycles

 The electronic state is 6-A.
 Alpha  occ. eigenvalues -- -256.20432-101.52197-101.52177-101.52062 -30.19801
 Alpha  occ. eigenvalues --  -26.05115 -26.05045 -26.04948 -19.20795 -19.17012
 Alpha  occ. eigenvalues --  -19.15689 -10.33596 -10.32978 -10.26973 -10.24984
 Alpha  occ. eigenvalues --  -10.22883 -10.22247 -10.21480 -10.21195 -10.21137
 Alpha  occ. eigenvalues --  -10.21075 -10.20740 -10.20658 -10.20425 -10.20242
 Alpha  occ. eigenvalues --  -10.19990 -10.19980 -10.18556  -9.43920  -9.43890
 Alpha  occ. eigenvalues --   -9.43778  -7.19786  -7.19756  -7.19649  -7.19465
 Alpha  occ. eigenvalues --   -7.19463  -7.19439  -7.19432  -7.19323  -7.19314
 Alpha  occ. eigenvalues --   -3.67501  -2.45025  -2.44847  -2.44682  -1.12650
 Alpha  occ. eigenvalues --   -1.07269  -1.04122  -0.88105  -0.86822  -0.83713
 Alpha  occ. eigenvalues --   -0.80170  -0.79468  -0.79351  -0.78832  -0.78426
 Alpha  occ. eigenvalues --   -0.76668  -0.75182  -0.72262  -0.71121  -0.66797
 Alpha  occ. eigenvalues --   -0.64732  -0.62497  -0.61833  -0.59676  -0.57519
 Alpha  occ. eigenvalues --   -0.56115  -0.54288  -0.53201  -0.51698  -0.50815
 Alpha  occ. eigenvalues --   -0.50005  -0.49669  -0.49074  -0.48114  -0.47897
 Alpha  occ. eigenvalues --   -0.47772  -0.47585  -0.46959  -0.46708  -0.46170
 Alpha  occ. eigenvalues --   -0.45048  -0.44904  -0.43705  -0.43273  -0.42951
 Alpha  occ. eigenvalues --   -0.42583  -0.41191  -0.40740  -0.40322  -0.40086
 Alpha  occ. eigenvalues --   -0.39250  -0.38876  -0.38314  -0.37862  -0.37553
 Alpha  occ. eigenvalues --   -0.37153  -0.37038  -0.36280  -0.36007  -0.35875
 Alpha  occ. eigenvalues --   -0.34599  -0.34280  -0.33867  -0.32281  -0.31954
 Alpha  occ. eigenvalues --   -0.31082  -0.30971  -0.30701  -0.30549  -0.30051
 Alpha  occ. eigenvalues --   -0.29641  -0.29256  -0.28402  -0.27366  -0.25382
 Alpha virt. eigenvalues --   -0.10990  -0.03181  -0.02783  -0.01722  -0.01325
 Alpha virt. eigenvalues --   -0.00152  -0.00002   0.00038   0.01321   0.01545
 Alpha virt. eigenvalues --    0.01718   0.01943   0.02518   0.02938   0.03182

  Beta  occ. eigenvalues -- -256.20247-101.52017-101.52001-101.51889 -30.10886
  Beta  occ. eigenvalues --  -25.97641 -25.97602 -25.97574 -19.20795 -19.16440
  Beta  occ. eigenvalues --  -19.15687 -10.33597 -10.32987 -10.26955 -10.24984
  Beta  occ. eigenvalues --  -10.22869 -10.22227 -10.21400 -10.21198 -10.21142
  Beta  occ. eigenvalues --  -10.21081 -10.20736 -10.20655 -10.20419 -10.20246
  Beta  occ. eigenvalues --  -10.19990 -10.19979 -10.18555  -9.43743  -9.43718
  Beta  occ. eigenvalues --   -9.43609  -7.19491  -7.19465  -7.19352  -7.19224
  Beta  occ. eigenvalues --   -7.19216  -7.19203  -7.19196  -7.19094  -7.19091
  Beta  occ. eigenvalues --   -3.46708  -2.23011  -2.22914  -2.22886  -1.12647
  Beta  occ. eigenvalues --   -1.06179  -1.04120  -0.88038  -0.86702  -0.83668
  Beta  occ. eigenvalues --   -0.79031  -0.78844  -0.78378  -0.78194  -0.78122
  Beta  occ. eigenvalues --   -0.76666  -0.75134  -0.72238  -0.70988  -0.66679
  Beta  occ. eigenvalues --   -0.64671  -0.62463  -0.61784  -0.59275  -0.57276
  Beta  occ. eigenvalues --   -0.55710  -0.54219  -0.52335  -0.51655  -0.50447
  Beta  occ. eigenvalues --   -0.49737  -0.48985  -0.48669  -0.47888  -0.47297
  Beta  occ. eigenvalues --   -0.45987  -0.45073  -0.43725  -0.43257  -0.43019
  Beta  occ. eigenvalues --   -0.42525  -0.41174  -0.40728  -0.40313  -0.40093
  Beta  occ. eigenvalues --   -0.39251  -0.38790  -0.38199  -0.37907  -0.37764
  Beta  occ. eigenvalues --   -0.37360  -0.37038  -0.36303  -0.36023  -0.35848
  Beta  occ. eigenvalues --   -0.35770  -0.35732  -0.34439  -0.33267  -0.32953
  Beta  occ. eigenvalues --   -0.32461  -0.32315  -0.32085  -0.31201  -0.30351
  Beta  occ. eigenvalues --   -0.29574  -0.29264  -0.28593  -0.27369  -0.25395
  Beta virt. eigenvalues --   -0.14374  -0.14030  -0.13153  -0.13052  -0.12668
  Beta virt. eigenvalues --   -0.10544  -0.03134  -0.02724  -0.01671  -0.01222
  Beta virt. eigenvalues --   -0.00111   0.00034   0.00068   0.01409   0.01573

 Mulliken charges and spin densities:
               1          2
     1  C    0.264048  -0.001043
     2  C    2.883678  -0.001435
     3  C   -0.497983  -0.014011
     4  C    0.058878   0.006442
     5  C    0.267532  -0.003150
     6  C   -0.101446   0.002766
     7  C   -2.373444  -0.010714
     8  C    0.410337   0.013470
     9  C    0.470635   0.004932
    10  C    0.660514  -0.004360
    11  C    0.540562   0.055975
    12  C   -0.415277   0.004628
    13  C    0.304457   0.001147
    14  O   -0.463913   0.176107
    15  Fe   0.688453   4.049596
    16  Cl  -0.535298   0.233167
    17  C    0.373993  -0.000250
    18  Cl  -0.495685   0.242936
    19  Cl  -0.522537   0.236140
    20  H   -0.256216   0.001621
    21  H   -0.159813  -0.000018
    22  H   -0.154752   0.000064
    23  H   -0.154699   0.000161
    24  H   -0.257756  -0.000121
    25  H   -0.186148  -0.000703
    26  C    0.851795   0.002258
    27  H   -0.133911   0.000327
    28  H   -0.009620  -0.000042
    29  H   -0.080179   0.000174
    30  H   -0.107586   0.001702
    31  H   -0.272238  -0.001742
    32  H    0.011550   0.000665
    33  H    0.022869   0.000125
    34  H    0.069026   0.000168
    35  H    0.020280   0.000343
    36  H    0.041699   0.000891
    37  H    0.079097  -0.000357
    38  O   -0.660122   0.002775
    39  O   -0.620481   0.000813
    40  C    0.425011   0.000402
    41  C    0.039747  -0.001541
    42  H   -0.034668  -0.000017
    43  H   -0.037045   0.000035
    44  H   -0.007915   0.000047
    45  H    0.025976   0.000067
    46  H    0.028594  -0.000442
 Sum of Mulliken charges =  -0.00000   5.00000

 Dipole moment (field-independent basis, Debye):
    X=             10.6468    Y=             -5.5999    Z=             -3.6300  Tot=             12.5654
 Quadrupole moment (field-independent basis, Debye-Ang):
   XX=           -195.2764   YY=           -157.6750   ZZ=           -167.5805
   XY=             -9.0361   XZ=              9.1178   YZ=              7.9643

 Normal termination of Gaussian 16 at Sun Jun 20 09:13:53 2021.
