 Gaussian 16, Revision A.03,

 -----------------------------------------------------------
 #p opt=modredundant freq=noraman ub3lyp jul-cc-pvdz pop=cm5
 -----------------------------------------------------------

 -----
 title
 -----
 Symbolic Z-matrix:
 Charge =  0 Multiplicity = 6

 SCF Done:  E(UB3LYP) =  -3531.44505399     A.U. after   24 cycles
 SCF Done:  E(UB3LYP) =  -3531.44503427     A.U. after   18 cycles
 SCF Done:  E(UB3LYP) =  -3531.44275679     A.U. after   18 cycles
 SCF Done:  E(UB3LYP) =  -3531.44290102     A.U. after   16 cycles
 SCF Done:  E(UB3LYP) =  -3531.44531325     A.U. after   12 cycles
 SCF Done:  E(UB3LYP) =  -3531.44495981     A.U. after   18 cycles
 SCF Done:  E(UB3LYP) =  -3531.44556137     A.U. after   17 cycles
 SCF Done:  E(UB3LYP) =  -3531.44563917     A.U. after   15 cycles
 SCF Done:  E(UB3LYP) =  -3531.44569714     A.U. after   15 cycles
 SCF Done:  E(UB3LYP) =  -3531.44569936     A.U. after   14 cycles
 SCF Done:  E(UB3LYP) =  -3531.44573323     A.U. after   11 cycles
 SCF Done:  E(UB3LYP) =  -3531.44573369     A.U. after   11 cycles
 SCF Done:  E(UB3LYP) =  -3531.44573415     A.U. after   12 cycles
 SCF Done:  E(UB3LYP) =  -3531.44573436     A.U. after   10 cycles
 SCF Done:  E(UB3LYP) =  -3531.44573455     A.U. after   11 cycles
 SCF Done:  E(UB3LYP) =  -3531.44573471     A.U. after    9 cycles
 SCF Done:  E(UB3LYP) =  -3531.44573488     A.U. after    9 cycles
 Optimization completed.
    -- Stationary point found.
 Normal termination of Gaussian 16 at Sun Jun 20 16:47:21 2021.

 ----------------------------------------------------------------------
 #P Geom=AllCheck Guess=TCheck SCRF=Check GenChk UB3LYP/Jul-CC-pVDZ Fre
 q
 ----------------------------------------------------------------------

 Structure from the checkpoint file:  "checkpoint.chk"
 -----
 title
 -----
 Charge =  0 Multiplicity = 6

 SCF Done:  E(UB3LYP) =  -3531.44573488     A.U. after    1 cycles

  Exact polarizability: 311.279   9.712 300.303  27.732  -5.556 303.034
 Approx polarizability: 488.213  43.674 456.890  56.969 -20.718 483.936

 ******    1 imaginary frequencies (negative Signs) ******

                      1                      2                      3
                      A                      A                      A
 Frequencies --    -16.8488                21.1741                23.7341
 Red. masses --      4.8764                 9.2071                 5.4201
 Frc consts  --      0.0008                 0.0024                 0.0018
 IR Inten    --      0.1349                 0.5224                 1.0254

                      4                      5                      6
                      A                      A                      A
 Frequencies --     26.9661                43.9041                51.7502
 Red. masses --      7.8333                 6.6138                 5.0788
 Frc consts  --      0.0034                 0.0075                 0.0080
 IR Inten    --      1.8176                 1.5829                 0.6242

                      7                      8                      9
                      A                      A                      A
 Frequencies --     62.6295                66.7920                77.6584
 Red. masses --      3.5448                 3.2139                 5.3442
 Frc consts  --      0.0082                 0.0084                 0.0190
 IR Inten    --      0.2700                 0.7827                 0.7463

                     10                     11                     12
                      A                      A                      A
 Frequencies --     81.1340                90.1901                97.7723
 Red. masses --     10.7871                 7.1571                 3.4433
 Frc consts  --      0.0418                 0.0343                 0.0194
 IR Inten    --      0.1906                 2.2071                 0.3571

                     13                     14                     15
                      A                      A                      A
 Frequencies --    103.2797               110.4999               115.6020
 Red. masses --      4.2516                 2.2206                 6.9122
 Frc consts  --      0.0267                 0.0160                 0.0544
 IR Inten    --      1.7105                 0.3610                 0.3107

                     16                     17                     18
                      A                      A                      A
 Frequencies --    119.6213               124.7264               148.5990
 Red. masses --     12.9349                 5.0334                 2.8748
 Frc consts  --      0.1091                 0.0461                 0.0374
 IR Inten    --      1.6960                 1.3497                 5.0830

                     19                     20                     21
                      A                      A                      A
 Frequencies --    152.6845               160.5703               181.2752
 Red. masses --      5.8946                 1.8764                 3.8515
 Frc consts  --      0.0810                 0.0285                 0.0746
 IR Inten    --      7.8918                 0.3756                10.6103

                     22                     23                     24
                      A                      A                      A
 Frequencies --    204.5585               206.0201               214.7854
 Red. masses --      1.5008                 1.9209                 3.2445
 Frc consts  --      0.0370                 0.0480                 0.0882
 IR Inten    --      1.3495                 4.2088                 1.8889

                     25                     26                     27
                      A                      A                      A
 Frequencies --    258.3274               263.9863               279.6736
 Red. masses --      1.4657                 3.4737                 4.3137
 Frc consts  --      0.0576                 0.1426                 0.1988
 IR Inten    --      1.7862                18.4529                 2.6025

                     28                     29                     30
                      A                      A                      A
 Frequencies --    317.9228               324.9070               343.3550
 Red. masses --      2.3699                 8.9500                22.8675
 Frc consts  --      0.1411                 0.5567                 1.5884
 IR Inten    --      1.5726                 7.7356                35.8059

                     31                     32                     33
                      A                      A                      A
 Frequencies --    359.1527               381.4398               391.4043
 Red. masses --      5.1090                 3.6986                 3.0319
 Frc consts  --      0.3883                 0.3171                 0.2737
 IR Inten    --     31.0718                 2.6419                 7.4465

                     34                     35                     36
                      A                      A                      A
 Frequencies --    399.9621               406.9247               412.2797
 Red. masses --     20.5459                20.7570                 3.1885
 Frc consts  --      1.9365                 2.0251                 0.3193
 IR Inten    --     70.8623                73.8641                 8.0194

                     37                     38                     39
                      A                      A                      A
 Frequencies --    422.8493               443.9074               471.1603
 Red. masses --      3.6643                 2.9336                 3.3560
 Frc consts  --      0.3860                 0.3406                 0.4389
 IR Inten    --     24.7962                 6.0932                 1.7714

                     40                     41                     42
                      A                      A                      A
 Frequencies --    498.8617               513.9419               549.9383
 Red. masses --      2.5139                 2.7835                 4.0595
 Frc consts  --      0.3686                 0.4332                 0.7234
 IR Inten    --     10.6491                 0.9201                17.4980

                     43                     44                     45
                      A                      A                      A
 Frequencies --    567.3989               623.4052               660.9234
 Red. masses --      4.3292                 6.4034                 4.6606
 Frc consts  --      0.8212                 1.4662                 1.1995
 IR Inten    --     53.8082                 1.7300                40.9494

                     46                     47                     48
                      A                      A                      A
 Frequencies --    695.4268               696.9923               751.6547
 Red. masses --      1.8393                 3.8708                 4.3706
 Frc consts  --      0.5241                 1.1079                 1.4549
 IR Inten    --     37.7026                29.4597                 6.5655

                     49                     50                     51
                      A                      A                      A
 Frequencies --    774.6475               780.2407               805.4990
 Red. masses --      2.4199                 2.1407                 1.1364
 Frc consts  --      0.8556                 0.7678                 0.4344
 IR Inten    --     28.0170                 0.9565                 1.6258

                     52                     53                     54
                      A                      A                      A
 Frequencies --    833.3688               838.6572               853.1382
 Red. masses --      3.8026                 1.6024                 1.2555
 Frc consts  --      1.5560                 0.6640                 0.5384
 IR Inten    --      8.5517                19.7005                 1.0276

                     55                     56                     57
                      A                      A                      A
 Frequencies --    864.4701               894.8426               905.8004
 Red. masses --      2.8199                 2.2157                 2.1746
 Frc consts  --      1.2416                 1.0453                 1.0512
 IR Inten    --     22.1453                 4.1064                15.4973

                     58                     59                     60
                      A                      A                      A
 Frequencies --    959.8689               963.8205               976.5972
 Red. masses --      1.4133                 1.5746                 2.8670
 Frc consts  --      0.7672                 0.8618                 1.6111
 IR Inten    --      1.2428                 4.7324                18.4018

                     61                     62                     63
                      A                      A                      A
 Frequencies --    991.0851               994.1894               999.9321
 Red. masses --      2.4762                 1.3330                 1.9735
 Frc consts  --      1.4330                 0.7763                 1.1626
 IR Inten    --     32.5889                 3.6679                 3.9141

                     64                     65                     66
                      A                      A                      A
 Frequencies --   1003.1601              1014.8248              1016.3459
 Red. masses --      2.2855                 1.5284                 1.7533
 Frc consts  --      1.3551                 0.9274                 1.0671
 IR Inten    --      0.2278                 0.6835                 0.2332

                     67                     68                     69
                      A                      A                      A
 Frequencies --   1035.8483              1046.5331              1077.6815
 Red. masses --      2.6080                 2.4544                 2.1779
 Frc consts  --      1.6487                 1.5838                 1.4903
 IR Inten    --     40.5537                 2.9167                 2.0504

                     70                     71                     72
                      A                      A                      A
 Frequencies --   1093.6477              1095.6266              1117.2603
 Red. masses --      2.3450                 1.7539                 1.5746
 Frc consts  --      1.6525                 1.2405                 1.1581
 IR Inten    --     11.9890                 7.7101                 6.6066

                     73                     74                     75
                      A                      A                      A
 Frequencies --   1133.2464              1135.7562              1164.2485
 Red. masses --      2.1694                 2.0962                 1.6698
 Frc consts  --      1.6415                 1.5931                 1.3336
 IR Inten    --     15.7863                11.7532                94.0597

                     76                     77                     78
                      A                      A                      A
 Frequencies --   1169.3719              1179.4805              1206.0700
 Red. masses --      1.5690                 1.0851                 1.5922
 Frc consts  --      1.2641                 0.8894                 1.3645
 IR Inten    --      9.9522                 1.4228                67.2555

                     79                     80                     81
                      A                      A                      A
 Frequencies --   1209.0383              1226.7890              1254.4697
 Red. masses --      1.2943                 1.9050                 1.9479
 Frc consts  --      1.1147                 1.6892                 1.8060
 IR Inten    --     71.9042               135.5877                32.2835

                     82                     83                     84
                      A                      A                      A
 Frequencies --   1279.3673              1284.7451              1320.2201
 Red. masses --      1.8464                 1.2192                 1.3762
 Frc consts  --      1.7806                 1.1856                 1.4133
 IR Inten    --    160.1402                27.1989                 7.9137

                     85                     86                     87
                      A                      A                      A
 Frequencies --   1329.7342              1338.6722              1343.2482
 Red. masses --      1.6864                 1.5535                 1.6561
 Frc consts  --      1.7569                 1.6402                 1.7606
 IR Inten    --    105.6824                24.0619                33.9822

                     88                     89                     90
                      A                      A                      A
 Frequencies --   1366.0104              1371.9264              1376.9133
 Red. masses --      1.4883                 2.8750                 1.3466
 Frc consts  --      1.6363                 3.1882                 1.5042
 IR Inten    --      8.1505                10.5031                 1.8046

                     91                     92                     93
                      A                      A                      A
 Frequencies --   1380.8308              1406.1191              1411.7307
 Red. masses --      1.3707                 1.3848                 1.3127
 Frc consts  --      1.5399                 1.6132                 1.5415
 IR Inten    --     22.5516                 5.9726                16.1480

                     94                     95                     96
                      A                      A                      A
 Frequencies --   1415.8775              1462.4282              1466.4926
 Red. masses --      1.4010                 1.0965                 1.9682
 Frc consts  --      1.6548                 1.3816                 2.4939
 IR Inten    --     12.5611                 8.7765                25.8933

                     97                     98                     99
                      A                      A                      A
 Frequencies --   1468.1255              1474.4472              1480.7177
 Red. masses --      1.1294                 1.0386                 1.0847
 Frc consts  --      1.4343                 1.3303                 1.4012
 IR Inten    --      8.7213                 4.9588                 2.0780

                    100                    101                    102
                      A                      A                      A
 Frequencies --   1482.5029              1486.0839              1488.3223
 Red. masses --      1.0480                 1.0549                 1.0912
 Frc consts  --      1.3570                 1.3726                 1.4241
 IR Inten    --     15.1159                 2.1260                 7.9231

                    103                    104                    105
                      A                      A                      A
 Frequencies --   1492.1973              1504.3936              1518.3591
 Red. masses --      1.0878                 1.0832                 2.1641
 Frc consts  --      1.4271                 1.4443                 2.9395
 IR Inten    --     10.5349                 6.2588                10.5624

                    106                    107                    108
                      A                      A                      A
 Frequencies --   1555.8472              1619.0963              1641.9568
 Red. masses --      6.8096                 5.4161                 5.6766
 Frc consts  --      9.7120                 8.3654                 9.0170
 IR Inten    --    650.4630                39.7274                43.5113

                    109                    110                    111
                      A                      A                      A
 Frequencies --   1712.6854              1769.0048              3016.3003
 Red. masses --      6.4100                11.4385                 1.0392
 Frc consts  --     11.0781                21.0901                 5.5704
 IR Inten    --     52.3264               212.8544                13.6080

                    112                    113                    114
                      A                      A                      A
 Frequencies --   3026.1040              3032.4932              3042.2056
 Red. masses --      1.0454                 1.0645                 1.0355
 Frc consts  --      5.6401                 5.7675                 5.6467
 IR Inten    --     17.5111                34.2061                15.1701

                    115                    116                    117
                      A                      A                      A
 Frequencies --   3062.2849              3065.2326              3074.9835
 Red. masses --      1.0581                 1.0635                 1.0959
 Frc consts  --      5.8464                 5.8871                 6.1051
 IR Inten    --     12.7957                25.5962                 9.0673

                    118                    119                    120
                      A                      A                      A
 Frequencies --   3081.7142              3086.4950              3089.7131
 Red. masses --      1.0975                 1.0850                 1.0908
 Frc consts  --      6.1412                 6.0900                 6.1354
 IR Inten    --      9.7599                 0.3537                10.9725

                    121                    122                    123
                      A                      A                      A
 Frequencies --   3108.8407              3115.8608              3118.7995
 Red. masses --      1.1072                 1.1009                 1.0986
 Frc consts  --      6.3048                 6.2971                 6.2959
 IR Inten    --      7.1256                 6.4419                 1.4402

                    124                    125                    126
                      A                      A                      A
 Frequencies --   3119.0512              3124.9481              3137.7168
 Red. masses --      1.1019                 1.0907                 1.1052
 Frc consts  --      6.3157                 6.2754                 6.4111
 IR Inten    --     17.0522                35.7024                16.6997

                    127                    128                    129
                      A                      A                      A
 Frequencies --   3139.0767              3175.7750              3189.9993
 Red. masses --      1.0987                 1.0865                 1.0911
 Frc consts  --      6.3789                 6.4561                 6.5420
 IR Inten    --     23.3712                 1.2324                 7.0592

                    130                    131                    132
                      A                      A                      A
 Frequencies --   3198.0427              3219.3212              3224.1660
 Red. masses --      1.0962                 1.0938                 1.0937
 Frc consts  --      6.6053                 6.6792                 6.6988
 IR Inten    --      7.5529                 4.5980                 9.3313

 - Thermochemistry -
 -------------------
 Temperature   298.150 Kelvin.  Pressure   1.00000 Atm.
 Atom     1 has atomic number  6 and mass  12.00000

 Molecular mass:   434.99839 amu.
 Principal axes and moments of inertia in atomic units:
                           1         2         3
     Eigenvalues --  9981.89489********************
           X            0.99587  -0.09029   0.00981
           Y            0.08992   0.99541   0.03289
           Z           -0.01273  -0.03187   0.99941
 This molecule is an asymmetric top.
 Rotational symmetry number  1.
 Warning -- assumption of classical behavior for rotation
           may cause significant error
 Rotational temperatures (Kelvin)      0.00868     0.00775     0.00673
 Rotational constants (GHZ):           0.18080     0.16144     0.14025
    1 imaginary frequencies ignored.
 Zero-point vibrational energy     944059.7 (Joules/Mol)
                                  225.63569 (Kcal/Mol)
 Warning -- explicit consideration of  42 degrees of freedom as
           vibrations may cause significant error
 Vibrational temperatures:     30.46    34.15    38.80    63.17    74.46
          (Kelvin)             90.11    96.10   111.73   116.73   129.76
                              140.67   148.60   158.98   166.33   172.11
                              179.45   213.80   219.68   231.02   260.81
                              294.31   296.42   309.03   371.68   379.82
                              402.39   457.42   467.47   494.01   516.74
                              548.81   563.14   575.46   585.47   593.18
                              608.39   638.68   677.89   717.75   739.45
                              791.24   816.36   896.94   950.92  1000.56
                             1002.82  1081.46  1114.54  1122.59  1158.93
                             1199.03  1206.64  1227.48  1243.78  1287.48
                             1303.24  1381.04  1386.72  1405.11  1425.95
                             1430.42  1438.68  1443.32  1460.11  1462.30
                             1490.35  1505.73  1550.54  1573.52  1576.36
                             1607.49  1630.49  1634.10  1675.09  1682.47
                             1697.01  1735.27  1739.54  1765.08  1804.90
                             1840.72  1848.46  1899.50  1913.19  1926.05
                             1932.63  1965.38  1973.90  1981.07  1986.71
                             2023.09  2031.17  2037.13  2104.11  2109.96
                             2112.31  2121.40  2130.42  2132.99  2138.14
                             2141.36  2146.94  2164.49  2184.58  2238.52
                             2329.52  2362.41  2464.17  2545.20  4339.78
                             4353.89  4363.08  4377.06  4405.94  4410.19
                             4424.22  4433.90  4440.78  4445.41  4472.93
                             4483.03  4487.26  4487.62  4496.10  4514.47
                             4516.43  4569.23  4589.70  4601.27  4631.89
                             4638.86

 Zero-point correction=                           0.359573 (Hartree/Particle)
 Thermal correction to Energy=                    0.387223
 Thermal correction to Enthalpy=                  0.388167
 Thermal correction to Gibbs Free Energy=         0.296632
 Sum of electronic and zero-point Energies=          -3531.086162
 Sum of electronic and thermal Energies=             -3531.058512
 Sum of electronic and thermal Enthalpies=           -3531.057568
 Sum of electronic and thermal Free Energies=        -3531.149103

                     E (Thermal)             CV                S
                      KCal/Mol        Cal/Mol-Kelvin    Cal/Mol-Kelvin
 Total                  242.986             97.728            192.652
 Electronic               0.000              0.000              3.561
 Translational            0.889              2.981             44.100
 Rotational               0.889              2.981             35.617
 Vibrational            241.209             91.767            109.375
 Vibration     1          0.593              1.985              6.521
 Vibration     2          0.593              1.985              6.294
 Vibration     3          0.593              1.984              6.041
 Vibration     4          0.595              1.980              5.075
 Vibration     5          0.596              1.977              4.749
 Vibration     6          0.597              1.972              4.373
 Vibration     7          0.598              1.970              4.246
 Vibration     8          0.599              1.964              3.949
 Vibration     9          0.600              1.962              3.863
 Vibration    10          0.602              1.956              3.656
 Vibration    11          0.603              1.951              3.498
 Vibration    12          0.605              1.947              3.391
 Vibration    13          0.606              1.941              3.260
 Vibration    14          0.608              1.936              3.173
 Vibration    15          0.609              1.933              3.106
 Vibration    16          0.610              1.928              3.026
 Vibration    17          0.618              1.904              2.690
 Vibration    18          0.619              1.900              2.639
 Vibration    19          0.622              1.891              2.543
 Vibration    20          0.630              1.865              2.315
 Vibration    21          0.640              1.833              2.092
 Vibration    22          0.641              1.831              2.079
 Vibration    23          0.645              1.818              2.003
 Vibration    24          0.667              1.749              1.673
 Vibration    25          0.671              1.739              1.635
 Vibration    26          0.680              1.711              1.536
 Vibration    27          0.704              1.639              1.321
 Vibration    28          0.709              1.626              1.285
 Vibration    29          0.722              1.589              1.197
 Vibration    30          0.734              1.556              1.126
 Vibration    31          0.751              1.510              1.033
 Vibration    32          0.759              1.489              0.995
 Vibration    33          0.766              1.470              0.963
 Vibration    34          0.772              1.455              0.938
 Vibration    35          0.776              1.444              0.919
 Vibration    36          0.785              1.421              0.882
 Vibration    37          0.803              1.374              0.814
 Vibration    38          0.828              1.314              0.734
 Vibration    39          0.854              1.253              0.661
 Vibration    40          0.869              1.219              0.624
 Vibration    41          0.905              1.140              0.544
 Vibration    42          0.923              1.102              0.509

 Optimization completed.
    -- Stationary point found.
 Normal termination of Gaussian 16 at Sun Jun 20 20:54:55 2021.

 ----------------------------------------------------------------------
 #p ub3lyp jul-cc-pvdz pop=cm5 scrf=(pcm,solvent=dichloroethane) guess=
 read geom=allcheck
 ----------------------------------------------------------------------

 Structure from the checkpoint file:  "checkpoint.chk"
 -----
 title
 -----
 Charge =  0 Multiplicity = 6

 SCF Done:  E(UB3LYP) =  -3531.46221512     A.U. after   18 cycles
 Normal termination of Gaussian 16 at Sun Jun 20 21:16:15 2021.
 Gaussian 16:  ES64L-G16RevA.03 25-Dec-2016

 ----------------------------------------------------------------------
 #p ub3lyp jul-cc-pvdz pop=cm5 scrf=(pcm,solvent=water) guess=read geom
 =allcheck
 ----------------------------------------------------------------------

 Structure from the checkpoint file:  "checkpoint.chk"
 -----
 title
 -----
 Charge =  0 Multiplicity = 6

                         Standard orientation:
 ---------------------------------------------------------------------
 Center     Atomic      Atomic             Coordinates (Angstroms)
 Number     Number       Type             X           Y           Z
 ---------------------------------------------------------------------
      1          6           0        2.825113    0.196272    1.349372
      2          6           0        1.630625   -0.457801    0.975760
      3          6           0        1.108245   -1.463996    1.819186
      4          6           0        1.768160   -1.814326    2.992043
      5          6           0        2.951921   -1.158189    3.352507
      6          6           0        3.472799   -0.150474    2.533659
      7          6           0        0.885807   -0.101326   -0.242313
      8          6           0        1.431280    0.852355   -1.312144
      9          6           0        2.747814    0.421247   -1.989775
     10          6           0        2.541774   -0.848539   -2.836997
     11          6           0        1.986147   -1.974740   -2.008543
     12          6           0        0.723671   -2.447897   -2.006854
     13          6           0       -0.355427   -2.027223   -2.968312
     14          8           0       -0.286121   -0.520870   -0.407826
     15         26           0       -2.114355   -0.288219    0.364519
     16         17           0       -3.354098    0.473167   -1.279760
     17          6           0        0.332628   -3.576519   -1.089765
     18         17           0       -1.853485    1.135103    2.023550
     19         17           0       -2.743131   -2.281039    1.068272
     20          1           0        0.184869   -1.971191    1.547331
     21          1           0        1.355473   -2.594344    3.632225
     22          1           0        3.465566   -1.429231    4.276422
     23          1           0        4.385944    0.371799    2.820578
     24          1           0        3.235043    0.998351    0.740780
     25          1           0        0.634491    0.879912   -2.065759
     26          6           0        1.507951    2.285161   -0.749319
     27          1           0        3.091657    1.252123   -2.621019
     28          1           0        3.533506    0.256191   -1.243505
     29          1           0        1.884814   -0.615243   -3.685717
     30          1           0        3.513607   -1.140295   -3.265062
     31          1           0        2.688591   -2.414556   -1.292834
     32          1           0        1.154867   -3.869737   -0.424337
     33          1           0       -0.544060   -3.310263   -0.480936
     34          1           0        0.038665   -4.459291   -1.680496
     35          1           0       -0.598650   -2.872471   -3.632659
     36          1           0       -1.283155   -1.772453   -2.438126
     37          1           0       -0.079575   -1.174974   -3.598385
     38          8           0        0.281403    2.802782   -0.640274
     39          8           0        2.535261    2.864646   -0.467355
     40          6           0        0.179848    4.153663   -0.092755
     41          6           0       -1.277894    4.558479   -0.146018
     42          1           0        0.570287    4.127977    0.933381
     43          1           0        0.824850    4.810578   -0.690900
     44          1           0       -1.384463    5.571025    0.269200
     45          1           0       -1.646860    4.567264   -1.180704
     46          1           0       -1.897232    3.870228    0.443241
 ---------------------------------------------------------------------

 SCF Done:  E(UB3LYP) =  -3531.46529339     A.U. after   14 cycles

 The electronic state is 6-A.
 Alpha  occ. eigenvalues -- -256.21821-101.53042-101.52994-101.52901 -30.21188
 Alpha  occ. eigenvalues --  -26.06654 -26.06327 -26.06289 -19.21182 -19.20084
 Alpha  occ. eigenvalues --  -19.16319 -10.34298 -10.33732 -10.25242 -10.23452
 Alpha  occ. eigenvalues --  -10.23084 -10.22266 -10.22234 -10.22141 -10.21395
 Alpha  occ. eigenvalues --  -10.21388 -10.20489 -10.20332 -10.19349 -10.18745
 Alpha  occ. eigenvalues --  -10.18288 -10.18217 -10.18062  -9.44750  -9.44714
 Alpha  occ. eigenvalues --   -9.44635  -7.20620  -7.20583  -7.20503  -7.20318
 Alpha  occ. eigenvalues --   -7.20283  -7.20272  -7.20250  -7.20184  -7.20179
 Alpha  occ. eigenvalues --   -3.68826  -2.46593  -2.45987  -2.45915  -1.13138
 Alpha  occ. eigenvalues --   -1.10487  -1.04672  -0.88860  -0.84850  -0.82083
 Alpha  occ. eigenvalues --   -0.81023  -0.80274  -0.80225  -0.79204  -0.78548
 Alpha  occ. eigenvalues --   -0.77513  -0.74973  -0.69714  -0.69218  -0.67497
 Alpha  occ. eigenvalues --   -0.64799  -0.63150  -0.61761  -0.60002  -0.57816
 Alpha  occ. eigenvalues --   -0.56566  -0.53801  -0.52700  -0.52020  -0.51017
 Alpha  occ. eigenvalues --   -0.50374  -0.49513  -0.49231  -0.48905  -0.48789
 Alpha  occ. eigenvalues --   -0.48480  -0.47458  -0.47195  -0.46792  -0.45846
 Alpha  occ. eigenvalues --   -0.45369  -0.45060  -0.44417  -0.43184  -0.42765
 Alpha  occ. eigenvalues --   -0.42405  -0.40864  -0.40565  -0.39960  -0.39419
 Alpha  occ. eigenvalues --   -0.38806  -0.38577  -0.38058  -0.37860  -0.37404
 Alpha  occ. eigenvalues --   -0.37219  -0.36925  -0.36636  -0.36389  -0.35112
 Alpha  occ. eigenvalues --   -0.35031  -0.34754  -0.33202  -0.32668  -0.32326
 Alpha  occ. eigenvalues --   -0.31820  -0.31768  -0.31632  -0.31417  -0.30508
 Alpha  occ. eigenvalues --   -0.30316  -0.29982  -0.28881  -0.28143  -0.24508
 Alpha virt. eigenvalues --   -0.11563  -0.03745  -0.02358  -0.01628  -0.00731
 Alpha virt. eigenvalues --   -0.00128  -0.00025   0.00090   0.00597   0.01540
 Alpha virt. eigenvalues --    0.01696   0.01919   0.02244   0.02668   0.03328

  Beta  occ. eigenvalues -- -256.21636-101.52840-101.52799-101.52707 -30.12259
  Beta  occ. eigenvalues --  -25.99071 -25.98951 -25.98923 -19.21181 -19.19755
  Beta  occ. eigenvalues --  -19.16315 -10.34294 -10.33700 -10.25242 -10.23439
  Beta  occ. eigenvalues --  -10.23074 -10.22261 -10.22226 -10.22136 -10.21397
  Beta  occ. eigenvalues --  -10.21390 -10.20488 -10.20320 -10.19350 -10.18745
  Beta  occ. eigenvalues --  -10.18274 -10.18217 -10.18062  -9.44552  -9.44523
  Beta  occ. eigenvalues --   -9.44445  -7.20299  -7.20266  -7.20191  -7.20032
  Beta  occ. eigenvalues --   -7.20014  -7.20005  -7.19990  -7.19919  -7.19912
  Beta  occ. eigenvalues --   -3.47997  -2.24309  -2.24188  -2.24144  -1.13129
  Beta  occ. eigenvalues --   -1.09853  -1.04666  -0.88827  -0.84798  -0.82039
  Beta  occ. eigenvalues --   -0.79749  -0.79180  -0.78902  -0.78852  -0.78533
  Beta  occ. eigenvalues --   -0.77504  -0.74936  -0.69697  -0.69109  -0.67408
  Beta  occ. eigenvalues --   -0.64768  -0.63122  -0.61552  -0.59683  -0.57690
  Beta  occ. eigenvalues --   -0.55921  -0.53314  -0.52623  -0.51903  -0.50762
  Beta  occ. eigenvalues --   -0.49982  -0.49253  -0.47565  -0.46867  -0.46661
  Beta  occ. eigenvalues --   -0.45404  -0.45223  -0.44410  -0.43201  -0.42746
  Beta  occ. eigenvalues --   -0.42397  -0.40877  -0.40555  -0.39952  -0.39252
  Beta  occ. eigenvalues --   -0.38885  -0.38702  -0.38435  -0.37917  -0.37409
  Beta  occ. eigenvalues --   -0.37213  -0.36910  -0.36658  -0.36626  -0.36523
  Beta  occ. eigenvalues --   -0.36379  -0.35038  -0.33926  -0.33738  -0.33415
  Beta  occ. eigenvalues --   -0.33067  -0.32771  -0.32405  -0.31697  -0.30928
  Beta  occ. eigenvalues --   -0.30179  -0.30128  -0.28973  -0.28126  -0.24426
  Beta virt. eigenvalues --   -0.15869  -0.15417  -0.14587  -0.14102  -0.13995
  Beta virt. eigenvalues --   -0.10544  -0.03708  -0.02325  -0.01493  -0.00659
  Beta virt. eigenvalues --   -0.00077   0.00021   0.00141   0.00723   0.01567

 Mulliken charges and spin densities:
               1          2
     1  C   -0.131359   0.004392
     2  C    3.198526  -0.002430
     3  C   -0.669293  -0.002373
     4  C    0.115086   0.000404
     5  C    0.267592   0.008765
     6  C   -0.176946  -0.001946
     7  C   -1.785389  -0.007079
     8  C    0.212614   0.010290
     9  C    0.647777   0.003060
    10  C    0.515503  -0.000968
    11  C    0.115315   0.009072
    12  C   -0.010130   0.011806
    13  C    0.199600  -0.001679
    14  O   -0.308180   0.095418
    15  Fe   0.721055   4.067926
    16  Cl  -0.488032   0.265131
    17  C    0.168453  -0.002581
    18  Cl  -0.456881   0.268942
    19  Cl  -0.451768   0.262729
    20  H   -0.258378   0.000040
    21  H   -0.160298   0.000017
    22  H   -0.141374  -0.000126
    23  H   -0.152262   0.000086
    24  H   -0.204747  -0.000099
    25  H   -0.150103  -0.000563
    26  C    0.789510   0.006201
    27  H   -0.139441   0.000351
    28  H   -0.048542   0.000016
    29  H   -0.088769  -0.000002
    30  H   -0.124725   0.000753
    31  H   -0.240344  -0.000415
    32  H   -0.027113   0.000063
    33  H    0.061536   0.001054
    34  H   -0.029665   0.000546
    35  H   -0.019240   0.000516
    36  H    0.015665   0.000938
    37  H   -0.011820   0.000025
    38  O   -0.665127   0.001219
    39  O   -0.544746   0.001535
    40  C    0.439192   0.000079
    41  C    0.038698  -0.000729
    42  H   -0.031256   0.000006
    43  H   -0.038966   0.000004
    44  H   -0.004476   0.000049
    45  H    0.025076   0.000054
    46  H    0.028172  -0.000498
 Sum of Mulliken charges =  -0.00000   5.00000

 Dipole moment (field-independent basis, Debye):
    X=              9.5167    Y=              0.0046    Z=             -0.7002  Tot=              9.5424
 Quadrupole moment (field-independent basis, Debye-Ang):
   XX=           -190.0653   YY=           -168.7241   ZZ=           -165.6046
   XY=            -10.5739   XZ=              8.8401   YZ=             -3.6206

 Normal termination of Gaussian 16 at Sun Jun 20 21:32:52 2021.
