 Gaussian 16, Revision A.03,

 -----------------------------------------------------------
 #p opt=modredundant freq=noraman ub3lyp jul-cc-pvdz pop=cm5
 -----------------------------------------------------------

 -----
 title
 -----
 Symbolic Z-matrix:
 Charge =  0 Multiplicity = 6

 SCF Done:  E(UB3LYP) =  -3531.40398111     A.U. after   26 cycles
 SCF Done:  E(UB3LYP) =  -3531.40413623     A.U. after   16 cycles
 SCF Done:  E(UB3LYP) =  -3531.40377880     A.U. after   23 cycles
 SCF Done:  E(UB3LYP) =  -3531.40445679     A.U. after   16 cycles
 SCF Done:  E(UB3LYP) =  -3531.40468424     A.U. after   15 cycles
 SCF Done:  E(UB3LYP) =  -3531.40471067     A.U. after   15 cycles
 SCF Done:  E(UB3LYP) =  -3531.40477243     A.U. after   15 cycles
 SCF Done:  E(UB3LYP) =  -3531.40482150     A.U. after   14 cycles
 SCF Done:  E(UB3LYP) =  -3531.40485557     A.U. after   15 cycles
 SCF Done:  E(UB3LYP) =  -3531.40487225     A.U. after   13 cycles
 SCF Done:  E(UB3LYP) =  -3531.40488617     A.U. after   13 cycles
 SCF Done:  E(UB3LYP) =  -3531.40488967     A.U. after   12 cycles
 SCF Done:  E(UB3LYP) =  -3531.40489245     A.U. after   12 cycles
 SCF Done:  E(UB3LYP) =  -3531.40489332     A.U. after   11 cycles
 SCF Done:  E(UB3LYP) =  -3531.40489350     A.U. after    9 cycles
 Optimization completed.
    -- Stationary point found.
 Normal termination of Gaussian 16 at Sun Jun 20 02:56:36 2021.

 ----------------------------------------------------------------------
 #P Geom=AllCheck Guess=TCheck SCRF=Check GenChk UB3LYP/Jul-CC-pVDZ Fre
 q
 ----------------------------------------------------------------------

 Structure from the checkpoint file:  "checkpoint.chk"
 -----
 title
 -----
 Charge =  0 Multiplicity = 6

 SCF Done:  E(UB3LYP) =  -3531.40489349     A.U. after    3 cycles

  Exact polarizability: 313.839   0.590 317.839  32.333  14.871 285.940
 Approx polarizability: 471.713  -0.050 506.172  57.273  28.315 460.775

 ******    1 imaginary frequencies (negative Signs) ******

                      1                      2                      3
                      A                      A                      A
 Frequencies --    -23.6478                24.4208                26.2132
 Red. masses --      5.8567                10.1381                 4.6748
 Frc consts  --      0.0019                 0.0036                 0.0019
 IR Inten    --      3.8078                 0.3441                 2.0881

                      4                      5                      6
                      A                      A                      A
 Frequencies --     41.4802                45.8071                60.9038
 Red. masses --      3.7089                 6.0800                 4.3580
 Frc consts  --      0.0038                 0.0075                 0.0095
 IR Inten    --      0.6175                 0.8646                 0.7059

                      7                      8                      9
                      A                      A                      A
 Frequencies --     69.6168                73.5251                74.8031
 Red. masses --      5.5246                 4.3112                 3.4944
 Frc consts  --      0.0158                 0.0137                 0.0115
 IR Inten    --      5.0532                 1.7517                 0.1654

                     10                     11                     12
                      A                      A                      A
 Frequencies --     80.8242                99.0497               107.2921
 Red. masses --      9.0337                 6.1601                 7.8856
 Frc consts  --      0.0348                 0.0356                 0.0535
 IR Inten    --      1.9865                 3.8339                 0.2351

                     13                     14                     15
                      A                      A                      A
 Frequencies --    109.4978               117.9142               119.6591
 Red. masses --      9.2612                 4.7603                 4.1999
 Frc consts  --      0.0654                 0.0390                 0.0354
 IR Inten    --      1.7744                 6.7286                 5.4860

                     16                     17                     18
                      A                      A                      A
 Frequencies --    131.2082               150.1637               169.9387
 Red. masses --      6.4900                 4.6460                 2.6673
 Frc consts  --      0.0658                 0.0617                 0.0454
 IR Inten    --      5.0256                 2.8780                 3.5232

                     19                     20                     21
                      A                      A                      A
 Frequencies --    172.7802               192.3295               200.6424
 Red. masses --      3.4699                 4.2828                 1.0831
 Frc consts  --      0.0610                 0.0933                 0.0257
 IR Inten    --      1.3662                 9.2022                 1.5182

                     22                     23                     24
                      A                      A                      A
 Frequencies --    224.6593               232.0278               247.8341
 Red. masses --      1.6590                 2.4615                 2.8111
 Frc consts  --      0.0493                 0.0781                 0.1017
 IR Inten    --     13.6748                 5.3898                 9.7994

                     25                     26                     27
                      A                      A                      A
 Frequencies --    258.8058               268.4589               294.3256
 Red. masses --      1.6992                 3.0342                 6.2653
 Frc consts  --      0.0671                 0.1288                 0.3198
 IR Inten    --      6.6523                20.8831                 1.8650

                     28                     29                     30
                      A                      A                      A
 Frequencies --    303.4115               329.5359               330.9513
 Red. masses --      5.6252                 5.9418                 3.6845
 Frc consts  --      0.3051                 0.3802                 0.2378
 IR Inten    --      3.7463                30.4500                29.6991

                     31                     32                     33
                      A                      A                      A
 Frequencies --    354.5569               355.4546               380.9027
 Red. masses --      7.6857                 7.0791                 6.4861
 Frc consts  --      0.5693                 0.5270                 0.5544
 IR Inten    --     52.2543                25.2737                20.6831

                     34                     35                     36
                      A                      A                      A
 Frequencies --    390.2609               415.0611               419.9226
 Red. masses --     26.7308                 2.9994                 3.6263
 Frc consts  --      2.3987                 0.3044                 0.3767
 IR Inten    --     80.3595                 0.4264                 1.7527

                     37                     38                     39
                      A                      A                      A
 Frequencies --    424.8265               475.9216               517.3281
 Red. masses --      3.7481                 3.1360                 2.6107
 Frc consts  --      0.3986                 0.4185                 0.4117
 IR Inten    --      8.2893                 7.2750                 4.7639

                     40                     41                     42
                      A                      A                      A
 Frequencies --    548.1626               558.6006               614.0144
 Red. masses --      3.1830                 2.5930                 4.3638
 Frc consts  --      0.5635                 0.4767                 0.9693
 IR Inten    --     16.3003                31.6090                98.0070

                     43                     44                     45
                      A                      A                      A
 Frequencies --    626.6951               649.7844               691.4790
 Red. masses --      6.2566                 3.2091                 4.6387
 Frc consts  --      1.4478                 0.7983                 1.3068
 IR Inten    --      0.5823                 2.1976               161.3308

                     46                     47                     48
                      A                      A                      A
 Frequencies --    705.3003               712.9065               751.1988
 Red. masses --      2.3251                 2.6040                 2.7754
 Frc consts  --      0.6815                 0.7798                 0.9227
 IR Inten    --     24.0740                36.3458                24.1923

                     49                     50                     51
                      A                      A                      A
 Frequencies --    767.1632               772.5033               806.9228
 Red. masses --      1.6438                 2.5749                 1.1787
 Frc consts  --      0.5700                 0.9053                 0.4522
 IR Inten    --     23.9391                 3.1446                 7.6928

                     52                     53                     54
                      A                      A                      A
 Frequencies --    811.4066               836.9999               844.5629
 Red. masses --      2.9834                 3.6198                 1.3181
 Frc consts  --      1.1573                 1.4941                 0.5539
 IR Inten    --     40.7760                18.2845                 6.3554

                     55                     56                     57
                      A                      A                      A
 Frequencies --    854.1168               873.6800               908.9553
 Red. masses --      1.8592                 2.6079                 2.7697
 Frc consts  --      0.7991                 1.1729                 1.3482
 IR Inten    --     10.3488                10.7100                 5.2598

                     58                     59                     60
                      A                      A                      A
 Frequencies --    923.5384               940.0293               977.2973
 Red. masses --      1.9163                 1.7849                 2.5466
 Frc consts  --      0.9630                 0.9293                 1.4330
 IR Inten    --     15.8744                 6.1885                68.8050

                     61                     62                     63
                      A                      A                      A
 Frequencies --    983.7062               999.9277              1002.5322
 Red. masses --      1.3610                 4.6872                 1.8110
 Frc consts  --      0.7760                 2.7612                 1.0724
 IR Inten    --      1.0476                 0.7681                 4.9807

                     64                     65                     66
                      A                      A                      A
 Frequencies --   1005.3612              1007.6246              1026.3773
 Red. masses --      1.8385                 1.4453                 2.6788
 Frc consts  --      1.0949                 0.8646                 1.6626
 IR Inten    --      3.6317                 6.5589                 2.5725

                     67                     68                     69
                      A                      A                      A
 Frequencies --   1033.3903              1042.8694              1053.5875
 Red. masses --      2.2377                 2.8316                 2.2865
 Frc consts  --      1.4079                 1.8144                 1.4954
 IR Inten    --      1.5703                39.2046                 3.6032

                     70                     71                     72
                      A                      A                      A
 Frequencies --   1072.9381              1106.3184              1112.6546
 Red. masses --      1.9466                 1.9643                 1.7760
 Frc consts  --      1.3203                 1.4165                 1.2954
 IR Inten    --      5.5766                18.1339                15.7783

                     73                     74                     75
                      A                      A                      A
 Frequencies --   1133.0401              1143.3534              1159.8631
 Red. masses --      2.1827                 3.5377                 2.4645
 Frc consts  --      1.6509                 2.7248                 1.9534
 IR Inten    --     15.1869               161.6780                24.0210

                     76                     77                     78
                      A                      A                      A
 Frequencies --   1169.0287              1175.2656              1183.1964
 Red. masses --      1.5479                 1.0844                 1.7805
 Frc consts  --      1.2463                 0.8825                 1.4686
 IR Inten    --      1.9760                 0.1107                79.8837

                     79                     80                     81
                      A                      A                      A
 Frequencies --   1192.9646              1210.2200              1227.5384
 Red. masses --      1.3135                 1.1383                 2.4276
 Frc consts  --      1.1014                 0.9823                 2.1553
 IR Inten    --      4.3355                 3.7954               241.7797

                     82                     83                     84
                      A                      A                      A
 Frequencies --   1250.0241              1263.6690              1281.4360
 Red. masses --      1.5415                 1.7199                 1.1049
 Frc consts  --      1.4191                 1.6181                 1.0690
 IR Inten    --     55.5511                52.3480                 2.1212

                     85                     86                     87
                      A                      A                      A
 Frequencies --   1292.8763              1310.2840              1318.3299
 Red. masses --      1.4912                 1.5215                 1.4654
 Frc consts  --      1.4686                 1.5391                 1.5005
 IR Inten    --     87.9356                89.6804                26.6405

                     88                     89                     90
                      A                      A                      A
 Frequencies --   1321.6993              1331.4969              1337.2381
 Red. masses --      1.3793                 1.4206                 1.2580
 Frc consts  --      1.4196                 1.4839                 1.3254
 IR Inten    --     49.4456                36.0220                 4.2807

                     91                     92                     93
                      A                      A                      A
 Frequencies --   1352.3046              1357.8488              1370.1511
 Red. masses --      1.5929                 2.2597                 1.3525
 Frc consts  --      1.7163                 2.4547                 1.4960
 IR Inten    --    118.8512                 1.7023                10.4895

                     94                     95                     96
                      A                      A                      A
 Frequencies --   1392.3040              1394.7190              1417.1289
 Red. masses --      1.5715                 1.1238                 1.4512
 Frc consts  --      1.7949                 1.2880                 1.7171
 IR Inten    --     50.4421                20.3243                11.8708

                     97                     98                     99
                      A                      A                      A
 Frequencies --   1422.5520              1441.7091              1466.9507
 Red. masses --      1.1665                 1.5752                 2.2718
 Frc consts  --      1.3909                 1.9290                 2.8804
 IR Inten    --      0.8842                79.0517                19.5418

                    100                    101                    102
                      A                      A                      A
 Frequencies --   1474.8304              1487.6305              1488.3302
 Red. masses --      1.0389                 1.0976                 1.0532
 Frc consts  --      1.3315                 1.4312                 1.3745
 IR Inten    --      4.2675                 1.4532                 1.3981

                    103                    104                    105
                      A                      A                      A
 Frequencies --   1494.0415              1503.5688              1505.9178
 Red. masses --      1.2914                 1.3010                 1.1157
 Frc consts  --      1.6984                 1.7329                 1.4907
 IR Inten    --     16.3668                19.4820                12.5303

                    106                    107                    108
                      A                      A                      A
 Frequencies --   1507.8887              1517.2848              1621.1245
 Red. masses --      1.0884                 2.0692                 5.5531
 Frc consts  --      1.4581                 2.8067                 8.5984
 IR Inten    --      5.6121                 5.3665                 0.6011

                    109                    110                    111
                      A                      A                      A
 Frequencies --   1640.0504              1767.4097              2756.8043
 Red. masses --      5.7888                11.7372                 1.0666
 Frc consts  --      9.1740                21.6018                 4.7758
 IR Inten    --      2.4830               224.3388               233.7990

                    112                    113                    114
                      A                      A                      A
 Frequencies --   2818.8471              3038.3081              3056.6728
 Red. masses --      1.0674                 1.0353                 1.0583
 Frc consts  --      4.9973                 5.6307                 5.8260
 IR Inten    --    320.8752                17.7822                18.0143

                    115                    116                    117
                      A                      A                      A
 Frequencies --   3061.4474              3068.4151              3074.9654
 Red. masses --      1.0606                 1.0838                 1.0638
 Frc consts  --      5.8568                 6.0119                 5.9267
 IR Inten    --     19.8334                 8.2671                 0.2058

                    118                    119                    120
                      A                      A                      A
 Frequencies --   3075.4698              3085.5340              3099.2205
 Red. masses --      1.0636                 1.0644                 1.1043
 Frc consts  --      5.9275                 5.9708                 6.2495
 IR Inten    --     26.6517                 1.4591                 5.0060

                    121                    122                    123
                      A                      A                      A
 Frequencies --   3100.4683              3115.2655              3128.1133
 Red. masses --      1.1072                 1.1015                 1.1020
 Frc consts  --      6.2709                 6.2985                 6.3530
 IR Inten    --      6.2342                19.3649                10.4237

                    124                    125                    126
                      A                      A                      A
 Frequencies --   3129.4237              3139.2116              3161.1827
 Red. masses --      1.1054                 1.0874                 1.1043
 Frc consts  --      6.3779                 6.3135                 6.5017
 IR Inten    --     24.6109                 8.2043                 7.7281

                    127                    128                    129
                      A                      A                      A
 Frequencies --   3168.6348              3178.6562              3179.2323
 Red. masses --      1.0847                 1.1026                 1.0889
 Frc consts  --      6.4166                 6.5640                 6.4845
 IR Inten    --      0.5066                 4.2145                 5.8512

                    130                    131                    132
                      A                      A                      A
 Frequencies --   3189.4958              3197.2197              3217.2871
 Red. masses --      1.0925                 1.0975                 1.0926
 Frc consts  --      6.5482                 6.6097                 6.6632
 IR Inten    --     19.5063                12.4351                 4.9004

 - Thermochemistry -
 -------------------
 Temperature   298.150 Kelvin.  Pressure   1.00000 Atm.
 Atom     1 has atomic number  6 and mass  12.00000

 Molecular mass:   434.99839 amu.
 Principal axes and moments of inertia in atomic units:
                           1         2         3
     Eigenvalues --  9160.23505********************
           X            0.99595   0.08803   0.01833
           Y           -0.08800   0.99612  -0.00256
           Z           -0.01848   0.00093   0.99983
 This molecule is an asymmetric top.
 Rotational symmetry number  1.
 Warning -- assumption of classical behavior for rotation
           may cause significant error
 Rotational temperatures (Kelvin)      0.00946     0.00759     0.00674
 Rotational constants (GHZ):           0.19702     0.15818     0.14041
    1 imaginary frequencies ignored.
 Zero-point vibrational energy     938351.2 (Joules/Mol)
                                  224.27131 (Kcal/Mol)
 Warning -- explicit consideration of  41 degrees of freedom as
           vibrations may cause significant error
 Vibrational temperatures:     35.14    37.71    59.68    65.91    87.63
          (Kelvin)            100.16   105.79   107.63   116.29   142.51
                              154.37   157.54   169.65   172.16   188.78
                              216.05   244.50   248.59   276.72   288.68
                              323.23   333.84   356.58   372.36   386.25
                              423.47   436.54   474.13   476.17   510.13
                              511.42   548.03   561.50   597.18   604.18
                              611.23   684.75   744.32   788.68   803.70
                              883.43   901.67   934.89   994.88  1014.77
                             1025.71  1080.81  1103.78  1111.46  1160.98
                             1167.43  1204.26  1215.14  1228.88  1257.03
                             1307.78  1328.77  1352.49  1406.11  1415.33
                             1438.67  1442.42  1446.49  1449.75  1476.73
                             1486.82  1500.46  1515.88  1543.72  1591.75
                             1600.86  1630.19  1645.03  1668.78  1681.97
                             1690.95  1702.36  1716.41  1741.24  1766.15
                             1798.51  1818.14  1843.70  1860.16  1885.21
                             1896.78  1901.63  1915.73  1923.99  1945.66
                             1953.64  1971.34  2003.21  2006.69  2038.93
                             2046.74  2074.30  2110.61  2121.95  2140.37
                             2141.38  2149.59  2163.30  2166.68  2169.52
                             2183.03  2332.44  2359.67  2542.91  3966.43
                             4055.69  4371.45  4397.87  4404.74  4414.76
                             4424.19  4424.92  4439.40  4459.09  4460.88
                             4482.17  4500.66  4502.54  4516.63  4548.24
                             4558.96  4573.38  4574.21  4588.97  4600.09
                             4628.96

 Zero-point correction=                           0.357399 (Hartree/Particle)
 Thermal correction to Energy=                    0.384425
 Thermal correction to Enthalpy=                  0.385369
 Thermal correction to Gibbs Free Energy=         0.296411
 Sum of electronic and zero-point Energies=          -3531.047494
 Sum of electronic and thermal Energies=             -3531.020469
 Sum of electronic and thermal Enthalpies=           -3531.019525
 Sum of electronic and thermal Free Energies=        -3531.108483

                     E (Thermal)             CV                S
                      KCal/Mol        Cal/Mol-Kelvin    Cal/Mol-Kelvin
 Total                  241.230             97.270            187.227
 Electronic               0.000              0.000              3.561
 Translational            0.889              2.981             44.100
 Rotational               0.889              2.981             35.550
 Vibrational            239.453             91.309            104.016
 Vibration     1          0.593              1.985              6.238
 Vibration     2          0.593              1.985              6.097
 Vibration     3          0.594              1.981              5.187
 Vibration     4          0.595              1.979              4.991
 Vibration     5          0.597              1.973              4.428
 Vibration     6          0.598              1.969              4.164
 Vibration     7          0.599              1.966              4.057
 Vibration     8          0.599              1.966              4.023
 Vibration     9          0.600              1.962              3.871
 Vibration    10          0.604              1.950              3.473
 Vibration    11          0.606              1.943              3.317
 Vibration    12          0.606              1.942              3.278
 Vibration    13          0.608              1.934              3.134
 Vibration    14          0.609              1.933              3.106
 Vibration    15          0.612              1.922              2.928
 Vibration    16          0.618              1.902              2.670
 Vibration    17          0.625              1.879              2.436
 Vibration    18          0.626              1.876              2.405
 Vibration    19          0.634              1.850              2.205
 Vibration    20          0.638              1.839              2.127
 Vibration    21          0.649              1.803              1.921
 Vibration    22          0.653              1.792              1.863
 Vibration    23          0.661              1.766              1.746
 Vibration    24          0.668              1.748              1.670
 Vibration    25          0.673              1.731              1.606
 Vibration    26          0.689              1.684              1.449
 Vibration    27          0.695              1.667              1.398
 Vibration    28          0.712              1.616              1.262
 Vibration    29          0.713              1.614              1.255
 Vibration    30          0.730              1.566              1.146
 Vibration    31          0.731              1.564              1.142
 Vibration    32          0.751              1.511              1.036
 Vibration    33          0.758              1.491              0.999
 Vibration    34          0.778              1.438              0.909
 Vibration    35          0.783              1.427              0.892
 Vibration    36          0.787              1.416              0.876
 Vibration    37          0.833              1.303              0.721
 Vibration    38          0.872              1.212              0.616
 Vibration    39          0.903              1.144              0.548
 Vibration    40          0.914              1.121              0.527
 Vibration    41          0.973              1.002              0.426

                           ! Non-Optimized Parameters !
 Normal termination of Gaussian 16 at Sun Jun 20 06:27:31 2021.

 ----------------------------------------------------------------------
 #p ub3lyp jul-cc-pvdz pop=cm5 scrf=(pcm,solvent=dichloroethane) guess=
 read geom=allcheck
 ----------------------------------------------------------------------

 Structure from the checkpoint file:  "checkpoint.chk"
 -----
 title
 -----
 Charge =  0 Multiplicity = 6

 SCF Done:  E(UB3LYP) =  -3531.43296207     A.U. after   17 cycles
 Normal termination of Gaussian 16 at Sun Jun 20 06:48:30 2021.
 Gaussian 16:  ES64L-G16RevA.03 25-Dec-2016

 ----------------------------------------------------------------------
 #p ub3lyp jul-cc-pvdz pop=cm5 scrf=(pcm,solvent=water) guess=read geom
 =allcheck
 ----------------------------------------------------------------------

 Structure from the checkpoint file:  "checkpoint.chk"
 -----
 title
 -----
 Charge =  0 Multiplicity = 6

                         Standard orientation:
 ---------------------------------------------------------------------
 Center     Atomic      Atomic             Coordinates (Angstroms)
 Number     Number       Type             X           Y           Z
 ---------------------------------------------------------------------
      1          6           0        2.046874   -1.884225    1.532472
      2          6           0        1.308364   -0.808684    1.009926
      3          6           0        1.322576    0.404776    1.717067
      4          6           0        2.039765    0.534138    2.908332
      5          6           0        2.762172   -0.545297    3.420775
      6          6           0        2.764259   -1.756159    2.724147
      7          6           0        0.556266   -0.855328   -0.335783
      8          6           0        1.542299   -0.706733   -1.563837
      9          6           0        2.203942   -2.061957   -1.761878
     10          6           0        1.082822   -3.091895   -1.530766
     11          6           0        0.028456   -2.456204   -0.556284
     12          6           0       -1.335329   -2.581645   -1.055458
     13          6           0       -1.734559   -2.050502   -2.355475
     14          8           0       -0.414207    0.092848   -0.416231
     15         26           0       -1.909813    0.901581    0.352860
     16         17           0       -3.522524    0.737070   -1.219227
     17          6           0       -2.380105   -3.084622   -0.156751
     18         17           0       -1.471677    2.999040    0.899953
     19         17           0       -2.530332   -0.346884    2.114709
     20          1           0        0.773514    1.261752    1.333744
     21          1           0        2.024137    1.487283    3.438554
     22          1           0        3.317117   -0.446134    4.354716
     23          1           0        3.324014   -2.610083    3.108405
     24          1           0        2.078967   -2.847817    1.026019
     25          1           0        0.896416   -0.446588   -2.413632
     26          6           0        2.540475    0.431859   -1.390725
     27          1           0        2.643269   -2.161147   -2.762768
     28          1           0        3.020539   -2.181589   -1.041213
     29          1           0        0.609577   -3.359160   -2.483842
     30          1           0        1.455787   -4.029424   -1.098454
     31          1           0        0.076404   -2.912974    0.433656
     32          1           0       -2.031166   -3.928626    0.453510
     33          1           0       -2.553647   -2.255798    0.576860
     34          1           0       -3.329004   -3.305237   -0.655690
     35          1           0       -2.524168   -2.644910   -2.833242
     36          1           0       -2.229412   -1.075621   -2.090442
     37          1           0       -0.913788   -1.832564   -3.042642
     38          8           0        1.964739    1.620131   -1.626448
     39          8           0        3.706946    0.281055   -1.091537
     40          6           0        2.798120    2.797584   -1.433804
     41          6           0        1.932402    4.013753   -1.692422
     42          1           0        3.190228    2.774004   -0.408255
     43          1           0        3.650591    2.732360   -2.124053
     44          1           0        2.530541    4.924093   -1.541563
     45          1           0        1.554035    4.015822   -2.724079
     46          1           0        1.075626    4.038970   -1.005821
 ---------------------------------------------------------------------

 SCF Done:  E(UB3LYP) =  -3531.43835399     A.U. after   15 cycles

 The electronic state is 6-A.
 Alpha  occ. eigenvalues -- -256.19865-101.52043-101.51940-101.51852 -30.19269
 Alpha  occ. eigenvalues --  -26.04589 -26.04514 -26.04398 -19.20171 -19.16008
 Alpha  occ. eigenvalues --  -19.15120 -10.32753 -10.31561 -10.29976 -10.24744
 Alpha  occ. eigenvalues --  -10.23222 -10.22005 -10.21982 -10.21748 -10.21508
 Alpha  occ. eigenvalues --  -10.21421 -10.20442 -10.20190 -10.20122 -10.20050
 Alpha  occ. eigenvalues --  -10.19959 -10.19805 -10.18592  -9.43743  -9.43673
 Alpha  occ. eigenvalues --   -9.43560  -7.19608  -7.19529  -7.19424  -7.19302
 Alpha  occ. eigenvalues --   -7.19270  -7.19232  -7.19199  -7.19109  -7.19086
 Alpha  occ. eigenvalues --   -3.66994  -2.44522  -2.44367  -2.44148  -1.11991
 Alpha  occ. eigenvalues --   -1.03872  -1.03497  -0.89245  -0.87120  -0.84298
 Alpha  occ. eigenvalues --   -0.79914  -0.79260  -0.79136  -0.78806  -0.77278
 Alpha  occ. eigenvalues --   -0.75997  -0.75453  -0.74592  -0.71613  -0.66600
 Alpha  occ. eigenvalues --   -0.64079  -0.62019  -0.61214  -0.59489  -0.57054
 Alpha  occ. eigenvalues --   -0.56695  -0.54693  -0.53200  -0.51294  -0.50629
 Alpha  occ. eigenvalues --   -0.50134  -0.49002  -0.48695  -0.48078  -0.47768
 Alpha  occ. eigenvalues --   -0.47370  -0.47236  -0.47032  -0.46605  -0.46177
 Alpha  occ. eigenvalues --   -0.44921  -0.44352  -0.43776  -0.43210  -0.42854
 Alpha  occ. eigenvalues --   -0.42582  -0.41977  -0.41095  -0.40975  -0.40647
 Alpha  occ. eigenvalues --   -0.39902  -0.39057  -0.37813  -0.37622  -0.37174
 Alpha  occ. eigenvalues --   -0.37024  -0.36474  -0.36070  -0.35778  -0.35556
 Alpha  occ. eigenvalues --   -0.34798  -0.34180  -0.33828  -0.31766  -0.31540
 Alpha  occ. eigenvalues --   -0.30927  -0.30722  -0.30570  -0.30112  -0.29814
 Alpha  occ. eigenvalues --   -0.29454  -0.28841  -0.28083  -0.26695  -0.26230
 Alpha virt. eigenvalues --   -0.14018  -0.03046  -0.02773  -0.01534  -0.01206
 Alpha virt. eigenvalues --   -0.00203  -0.00075   0.00096   0.01416   0.01670
 Alpha virt. eigenvalues --    0.01761   0.01842   0.02476   0.03302   0.03814

  Beta  occ. eigenvalues -- -256.19680-101.51877-101.51776-101.51701 -30.10344
  Beta  occ. eigenvalues --  -25.97117 -25.97087 -25.96978 -19.20170 -19.15206
  Beta  occ. eigenvalues --  -19.15116 -10.32755 -10.31548 -10.29965 -10.24744
  Beta  occ. eigenvalues --  -10.23196 -10.22005 -10.21981 -10.21717 -10.21510
  Beta  occ. eigenvalues --  -10.21400 -10.20440 -10.20189 -10.20122 -10.20050
  Beta  occ. eigenvalues --  -10.19962 -10.19800 -10.18591  -9.43580  -9.43513
  Beta  occ. eigenvalues --   -9.43410  -7.19316  -7.19262  -7.19147  -7.19090
  Beta  occ. eigenvalues --   -7.19057  -7.18999  -7.18992  -7.18923  -7.18893
  Beta  occ. eigenvalues --   -3.46187  -2.22511  -2.22474  -2.22277  -1.11987
  Beta  occ. eigenvalues --   -1.03495  -1.02283  -0.89117  -0.87076  -0.84206
  Beta  occ. eigenvalues --   -0.78897  -0.78792  -0.78119  -0.78056  -0.77178
  Beta  occ. eigenvalues --   -0.75983  -0.75421  -0.74573  -0.71449  -0.66465
  Beta  occ. eigenvalues --   -0.63995  -0.61978  -0.61128  -0.59290  -0.57012
  Beta  occ. eigenvalues --   -0.56096  -0.54565  -0.52006  -0.51254  -0.50574
  Beta  occ. eigenvalues --   -0.49925  -0.48597  -0.48265  -0.47711  -0.47267
  Beta  occ. eigenvalues --   -0.46269  -0.44618  -0.43905  -0.43236  -0.42939
  Beta  occ. eigenvalues --   -0.42732  -0.41954  -0.41090  -0.40946  -0.40634
  Beta  occ. eigenvalues --   -0.39892  -0.38944  -0.37777  -0.37668  -0.37530
  Beta  occ. eigenvalues --   -0.37022  -0.36492  -0.36220  -0.35832  -0.35616
  Beta  occ. eigenvalues --   -0.35472  -0.35359  -0.34705  -0.32899  -0.32766
  Beta  occ. eigenvalues --   -0.32449  -0.32003  -0.31563  -0.31503  -0.29570
  Beta  occ. eigenvalues --   -0.29551  -0.28833  -0.28352  -0.26696  -0.26225
  Beta virt. eigenvalues --   -0.14383  -0.13699  -0.13506  -0.12620  -0.11963
  Beta virt. eigenvalues --   -0.11417  -0.03003  -0.02741  -0.01438  -0.01160
  Beta virt. eigenvalues --   -0.00157  -0.00044   0.00124   0.01441   0.01683

 Mulliken charges and spin densities:
               1          2
     1  C   -0.276630   0.001383
     2  C    2.779981   0.008149
     3  C   -0.558788  -0.006252
     4  C    0.067737   0.004649
     5  C    0.191254   0.000108
     6  C   -0.092935   0.002030
     7  C   -1.942828  -0.022458
     8  C    0.475404   0.014017
     9  C    0.572620   0.004069
    10  C    0.405411  -0.001667
    11  C    1.252612   0.016501
    12  C   -0.579203   0.017541
    13  C    0.112809  -0.005479
    14  O   -0.466155   0.277317
    15  Fe   0.651669   4.047598
    16  Cl  -0.565524   0.202353
    17  C    0.282557  -0.004181
    18  Cl  -0.499713   0.227035
    19  Cl  -0.545772   0.211687
    20  H   -0.270705  -0.000594
    21  H   -0.167945  -0.000045
    22  H   -0.162112   0.000011
    23  H   -0.158834   0.000181
    24  H   -0.248244  -0.000049
    25  H   -0.175074  -0.000260
    26  C    0.913405   0.001205
    27  H   -0.148986   0.000740
    28  H   -0.050489   0.000056
    29  H   -0.098143   0.000108
    30  H   -0.087434   0.000190
    31  H   -0.225417  -0.000006
    32  H    0.045427   0.000593
    33  H    0.176459   0.002255
    34  H    0.006000  -0.000026
    35  H    0.015651   0.000177
    36  H    0.197917   0.001501
    37  H    0.066942   0.000194
    38  O   -0.697084  -0.001654
    39  O   -0.641015   0.001413
    40  C    0.436806  -0.000722
    41  C    0.058910   0.000557
    42  H   -0.038614   0.000021
    43  H   -0.050810   0.000021
    44  H   -0.005660   0.000015
    45  H    0.020082  -0.000015
    46  H    0.024461  -0.000269
 Sum of Mulliken charges =  -0.00000   5.00000

 Dipole moment (field-independent basis, Debye):
    X=              3.9071    Y=            -12.7292    Z=             -5.8091  Tot=             14.5273
 Quadrupole moment (field-independent basis, Debye-Ang):
   XX=           -201.7469   YY=           -147.0696   ZZ=           -168.3925
   XY=             22.7383   XZ=             11.5538   YZ=              7.7231

 Normal termination of Gaussian 16 at Sun Jun 20 07:07:01 2021.
