 Gaussian 16, Revision A.03,

 -----------------------------------------------------------
 #p opt=modredundant freq=noraman ub3lyp jul-cc-pvdz pop=cm5
 -----------------------------------------------------------

 -----
 title
 -----
 Symbolic Z-matrix:
 Charge =  0 Multiplicity = 6

 SCF Done:  E(UB3LYP) =  -3531.44794805     A.U. after   24 cycles
 SCF Done:  E(UB3LYP) =  -3531.44792961     A.U. after   18 cycles
 SCF Done:  E(UB3LYP) =  -3531.44596786     A.U. after   17 cycles
 SCF Done:  E(UB3LYP) =  -3531.44604199     A.U. after   16 cycles
 SCF Done:  E(UB3LYP) =  -3531.44820904     A.U. after   11 cycles
 SCF Done:  E(UB3LYP) =  -3531.44789272     A.U. after   18 cycles
 SCF Done:  E(UB3LYP) =  -3531.44841812     A.U. after   16 cycles
 SCF Done:  E(UB3LYP) =  -3531.44853353     A.U. after   15 cycles
 SCF Done:  E(UB3LYP) =  -3531.44859606     A.U. after   15 cycles
 SCF Done:  E(UB3LYP) =  -3531.44858721     A.U. after   14 cycles
 SCF Done:  E(UB3LYP) =  -3531.44862689     A.U. after   13 cycles
 SCF Done:  E(UB3LYP) =  -3531.44862745     A.U. after    9 cycles
 SCF Done:  E(UB3LYP) =  -3531.44862808     A.U. after   13 cycles
 SCF Done:  E(UB3LYP) =  -3531.44862766     A.U. after   13 cycles
 SCF Done:  E(UB3LYP) =  -3531.44862784     A.U. after    9 cycles
 SCF Done:  E(UB3LYP) =  -3531.44862809     A.U. after   12 cycles
 SCF Done:  E(UB3LYP) =  -3531.44862783     A.U. after   12 cycles
 Optimization completed.
    -- Stationary point found.
 Normal termination of Gaussian 16 at Sun Jun 20 19:45:34 2021.

 ----------------------------------------------------------------------
 #P Geom=AllCheck Guess=TCheck SCRF=Check GenChk UB3LYP/Jul-CC-pVDZ Fre
 q
 ----------------------------------------------------------------------

 Structure from the checkpoint file:  "checkpoint.chk"
 -----
 title
 -----
 Charge =  0 Multiplicity = 6

 SCF Done:  E(UB3LYP) =  -3531.44862783     A.U. after    1 cycles

  Exact polarizability: 309.363  10.479 302.143  27.523  -3.899 303.303
 Approx polarizability: 482.834  45.556 459.905  55.913 -17.365 485.295

 ******    1 imaginary frequencies (negative Signs) ******

                      1                      2                      3
                      A                      A                      A
 Frequencies --    -13.2721                19.6971                23.5999
 Red. masses --      5.1649                 8.3577                 6.5386
 Frc consts  --      0.0005                 0.0019                 0.0021
 IR Inten    --      0.1834                 0.4492                 0.5938

                      4                      5                      6
                      A                      A                      A
 Frequencies --     28.5536                43.7876                51.5877
 Red. masses --      6.2940                 6.8229                 5.0415
 Frc consts  --      0.0030                 0.0077                 0.0079
 IR Inten    --      1.8799                 1.4784                 0.6480

                      7                      8                      9
                      A                      A                      A
 Frequencies --     63.2468                66.7653                76.1287
 Red. masses --      3.9150                 3.0077                 4.3730
 Frc consts  --      0.0092                 0.0079                 0.0149
 IR Inten    --      0.3128                 0.7395                 0.7319

                     10                     11                     12
                      A                      A                      A
 Frequencies --     80.6336                87.6504                95.3313
 Red. masses --      9.1667                 7.1286                 3.0116
 Frc consts  --      0.0351                 0.0323                 0.0161
 IR Inten    --      0.1386                 1.8270                 0.5527

                     13                     14                     15
                      A                      A                      A
 Frequencies --    100.8686               107.5852               114.3126
 Red. masses --      3.4318                 2.9574                 7.3287
 Frc consts  --      0.0206                 0.0202                 0.0564
 IR Inten    --      1.9393                 0.1445                 0.2718

                     16                     17                     18
                      A                      A                      A
 Frequencies --    117.9362               121.7453               144.7361
 Red. masses --      7.6735                 8.6122                 1.9664
 Frc consts  --      0.0629                 0.0752                 0.0243
 IR Inten    --      1.1135                 1.8112                 3.9567

                     19                     20                     21
                      A                      A                      A
 Frequencies --    150.4176               154.8517               178.0863
 Red. masses --      3.3193                 3.5421                 4.1406
 Frc consts  --      0.0442                 0.0500                 0.0774
 IR Inten    --      3.4377                 6.1085                10.7843

                     22                     23                     24
                      A                      A                      A
 Frequencies --    203.8250               206.5397               213.9368
 Red. masses --      1.2705                 2.7955                 3.2852
 Frc consts  --      0.0311                 0.0703                 0.0886
 IR Inten    --      3.4971                 2.8319                 1.7525

                     25                     26                     27
                      A                      A                      A
 Frequencies --    258.6839               262.8229               279.8922
 Red. masses --      1.4516                 3.3405                 4.2185
 Frc consts  --      0.0572                 0.1360                 0.1947
 IR Inten    --      1.6866                18.6096                 2.1415

                     28                     29                     30
                      A                      A                      A
 Frequencies --    315.8524               317.3084               343.2839
 Red. masses --      5.4111                 2.8851                23.4790
 Frc consts  --      0.3181                 0.1711                 1.6302
 IR Inten    --     10.4042                 2.8812                34.9986

                     31                     32                     33
                      A                      A                      A
 Frequencies --    356.0433               380.6081               390.1013
 Red. masses --      5.2663                 3.7350                 2.9002
 Frc consts  --      0.3933                 0.3188                 0.2600
 IR Inten    --     26.4487                 2.1844                 6.4894

                     34                     35                     36
                      A                      A                      A
 Frequencies --    399.9718               407.1923               412.6348
 Red. masses --     23.3713                21.2216                 3.1721
 Frc consts  --      2.2029                 2.0731                 0.3182
 IR Inten    --     73.0385                74.5342                 7.4373

                     37                     38                     39
                      A                      A                      A
 Frequencies --    422.5681               442.9694               471.4075
 Red. masses --      3.6509                 2.8412                 3.3540
 Frc consts  --      0.3841                 0.3285                 0.4391
 IR Inten    --     23.3878                 7.1040                 0.9482

                     40                     41                     42
                      A                      A                      A
 Frequencies --    496.0947               513.0744               547.2292
 Red. masses --      2.5073                 2.7784                 3.9968
 Frc consts  --      0.3636                 0.4309                 0.7052
 IR Inten    --      9.8372                 0.6810                16.7180

                     43                     44                     45
                      A                      A                      A
 Frequencies --    571.6296               623.5679               659.5190
 Red. masses --      4.7022                 6.4020                 4.6806
 Frc consts  --      0.9053                 1.4667                 1.1995
 IR Inten    --     53.6192                 1.8432                40.9792

                     46                     47                     48
                      A                      A                      A
 Frequencies --    695.5160               696.7457               751.3765
 Red. masses --      2.9997                 2.1363                 4.3438
 Frc consts  --      0.8550                 0.6110                 1.4449
 IR Inten    --     10.3167                55.1653                 6.0318

                     49                     50                     51
                      A                      A                      A
 Frequencies --    774.5458               781.9249               805.7093
 Red. masses --      2.3607                 2.1864                 1.1350
 Frc consts  --      0.8344                 0.7876                 0.4341
 IR Inten    --     28.9835                 1.1513                 1.5616

                     52                     53                     54
                      A                      A                      A
 Frequencies --    833.8982               840.3696               853.3122
 Red. masses --      4.2232                 1.5358                 1.2545
 Frc consts  --      1.7303                 0.6390                 0.5382
 IR Inten    --      7.5047                20.7662                 1.1545

                     55                     56                     57
                      A                      A                      A
 Frequencies --    864.4765               896.8523               905.5795
 Red. masses --      2.8101                 2.1990                 2.1724
 Frc consts  --      1.2373                 1.0421                 1.0496
 IR Inten    --     23.1474                 2.3657                15.9988

                     58                     59                     60
                      A                      A                      A
 Frequencies --    959.7322               963.0417               976.4564
 Red. masses --      1.4158                 1.5507                 2.9372
 Frc consts  --      0.7684                 0.8474                 1.6500
 IR Inten    --      1.2573                 4.3896                18.5025

                     61                     62                     63
                      A                      A                      A
 Frequencies --    991.1758               994.6843               999.8405
 Red. masses --      2.2637                 1.3991                 1.8325
 Frc consts  --      1.3103                 0.8156                 1.0793
 IR Inten    --     32.6846                 5.0212                 4.2016

                     64                     65                     66
                      A                      A                      A
 Frequencies --   1003.0610              1014.8806              1017.8167
 Red. masses --      2.4943                 1.3761                 2.0242
 Frc consts  --      1.4786                 0.8351                 1.2355
 IR Inten    --      0.2330                 0.8458                 0.0791

                     67                     68                     69
                      A                      A                      A
 Frequencies --   1036.0187              1046.7120              1077.7955
 Red. masses --      2.6066                 2.4333                 2.1472
 Frc consts  --      1.6484                 1.5707                 1.4696
 IR Inten    --     41.4398                 2.8191                 1.4894

                     70                     71                     72
                      A                      A                      A
 Frequencies --   1095.1342              1096.0768              1117.2200
 Red. masses --      1.7531                 2.3008                 1.5773
 Frc consts  --      1.2388                 1.6286                 1.1600
 IR Inten    --      1.8440                16.0486                 6.5503

                     73                     74                     75
                      A                      A                      A
 Frequencies --   1133.3246              1136.6776              1164.6321
 Red. masses --      2.1714                 2.1186                 1.6750
 Frc consts  --      1.6432                 1.6128                 1.3386
 IR Inten    --     15.8568                10.5104                92.4264

                     76                     77                     78
                      A                      A                      A
 Frequencies --   1169.5344              1179.4202              1206.2671
 Red. masses --      1.5732                 1.0852                 1.5505
 Frc consts  --      1.2679                 0.8894                 1.3292
 IR Inten    --     11.0715                 1.2989                61.7644

                     79                     80                     81
                      A                      A                      A
 Frequencies --   1209.1563              1227.4030              1254.1395
 Red. masses --      1.3165                 1.9187                 1.9636
 Frc consts  --      1.1341                 1.7031                 1.8197
 IR Inten    --     71.9308               142.1880                31.9882

                     82                     83                     84
                      A                      A                      A
 Frequencies --   1278.4103              1284.5483              1321.2465
 Red. masses --      1.9161                 1.1814                 1.3833
 Frc consts  --      1.8451                 1.1485                 1.4228
 IR Inten    --    164.7325                17.3200                 7.5556

                     85                     86                     87
                      A                      A                      A
 Frequencies --   1328.9584              1338.7410              1343.3649
 Red. masses --      1.7428                 1.5315                 1.6510
 Frc consts  --      1.8136                 1.6172                 1.7554
 IR Inten    --    112.2951                20.2573                30.5229

                     88                     89                     90
                      A                      A                      A
 Frequencies --   1367.0082              1371.6944              1377.4681
 Red. masses --      1.6024                 2.5261                 1.3360
 Frc consts  --      1.7642                 2.8004                 1.4935
 IR Inten    --      6.5653                10.8141                 2.0825

                     91                     92                     93
                      A                      A                      A
 Frequencies --   1380.8594              1405.7510              1410.6414
 Red. masses --      1.3696                 1.4026                 1.3096
 Frc consts  --      1.5387                 1.6331                 1.5353
 IR Inten    --     21.8974                 6.4587                15.2791

                     94                     95                     96
                      A                      A                      A
 Frequencies --   1416.0137              1461.8077              1466.4662
 Red. masses --      1.3990                 1.0745                 1.5832
 Frc consts  --      1.6527                 1.3528                 2.0060
 IR Inten    --     12.7037                 5.9475                18.8904

                     97                     98                     99
                      A                      A                      A
 Frequencies --   1467.6369              1474.5872              1480.4803
 Red. masses --      1.3407                 1.0386                 1.0848
 Frc consts  --      1.7014                 1.3305                 1.4009
 IR Inten    --     14.0497                 5.0157                 2.7016

                    100                    101                    102
                      A                      A                      A
 Frequencies --   1481.9550              1486.3448              1487.8551
 Red. masses --      1.0462                 1.0553                 1.0935
 Frc consts  --      1.3537                 1.3736                 1.4262
 IR Inten    --     14.9740                 2.5496                 6.9434

                    103                    104                    105
                      A                      A                      A
 Frequencies --   1491.1780              1504.6298              1518.5045
 Red. masses --      1.0879                 1.0830                 2.1612
 Frc consts  --      1.4252                 1.4446                 2.9361
 IR Inten    --     10.8378                 6.3301                 8.5604

                    106                    107                    108
                      A                      A                      A
 Frequencies --   1561.2009              1619.7707              1642.1050
 Red. masses --      6.9843                 5.4629                 5.6958
 Frc consts  --     10.0298                 8.4446                 9.0491
 IR Inten    --    654.1954                47.3793                41.7497

                    109                    110                    111
                      A                      A                      A
 Frequencies --   1714.1321              1769.0923              3015.4530
 Red. masses --      6.4271                11.4795                 1.0385
 Frc consts  --     11.1264                21.1678                 5.5635
 IR Inten    --     57.4724               213.3966                14.1242

                    112                    113                    114
                      A                      A                      A
 Frequencies --   3026.2909              3030.5101              3042.1837
 Red. masses --      1.0445                 1.0640                 1.0356
 Frc consts  --      5.6360                 5.7576                 5.6467
 IR Inten    --     16.4192                33.0814                15.2021

                    115                    116                    117
                      A                      A                      A
 Frequencies --   3062.0792              3066.0900              3072.8089
 Red. masses --      1.0582                 1.0637                 1.0969
 Frc consts  --      5.8457                 5.8919                 6.1022
 IR Inten    --     13.3875                24.7733                 7.6754

                    118                    119                    120
                      A                      A                      A
 Frequencies --   3081.3192              3083.6915              3085.4477
 Red. masses --      1.0961                 1.0855                 1.0938
 Frc consts  --      6.1314                 6.0816                 6.1352
 IR Inten    --     12.1254                 1.5545                10.7451

                    121                    122                    123
                      A                      A                      A
 Frequencies --   3108.6749              3115.5588              3118.9597
 Red. masses --      1.1073                 1.1010                 1.1019
 Frc consts  --      6.3046                 6.2967                 6.3158
 IR Inten    --      7.2172                 7.1449                15.4995

                    124                    125                    126
                      A                      A                      A
 Frequencies --   3119.5341              3125.4382              3137.6218
 Red. masses --      1.0977                 1.0907                 1.1052
 Frc consts  --      6.2939                 6.2772                 6.4106
 IR Inten    --      2.8380                34.5296                15.5021

                    127                    128                    129
                      A                      A                      A
 Frequencies --   3138.3964              3175.7868              3189.8406
 Red. masses --      1.0980                 1.0864                 1.0911
 Frc consts  --      6.3720                 6.4559                 6.5412
 IR Inten    --     24.7738                 1.1813                 7.0961

                    130                    131                    132
                      A                      A                      A
 Frequencies --   3197.9928              3218.4869              3224.4486
 Red. masses --      1.0961                 1.0939                 1.0936
 Frc consts  --      6.6050                 6.6762                 6.6994
 IR Inten    --      7.6004                 4.9131                 8.2948

 - Thermochemistry -
 -------------------
 Temperature   298.150 Kelvin.  Pressure   1.00000 Atm.
 Atom     1 has atomic number  6 and mass  12.00000

 Molecular mass:   434.99839 amu.
 Principal axes and moments of inertia in atomic units:
                           1         2         3
     Eigenvalues --  ******************************
           X            0.99488  -0.10078   0.00775
           Y            0.10050   0.99447   0.03041
           Z           -0.01078  -0.02947   0.99951
 This molecule is an asymmetric top.
 Rotational symmetry number  1.
 Warning -- assumption of classical behavior for rotation
           may cause significant error
 Rotational temperatures (Kelvin)      0.00864     0.00772     0.00666
 Rotational constants (GHZ):           0.18010     0.16094     0.13869
    1 imaginary frequencies ignored.
 Zero-point vibrational energy     943757.0 (Joules/Mol)
                                  225.56334 (Kcal/Mol)
 Warning -- explicit consideration of  42 degrees of freedom as
           vibrations may cause significant error
 Vibrational temperatures:     28.34    33.95    41.08    63.00    74.22
          (Kelvin)             91.00    96.06   109.53   116.01   126.11
                              137.16   145.13   154.79   164.47   169.68
                              175.16   208.24   216.42   222.80   256.23
                              293.26   297.16   307.81   372.19   378.14
                              402.70   454.44   456.54   493.91   512.27
                              547.61   561.27   575.47   585.86   593.69
                              607.98   637.33   678.25   713.77   738.20
                              787.34   822.45   897.18   948.90  1000.69
                             1002.46  1081.06  1114.40  1125.02  1159.24
                             1199.79  1209.10  1227.73  1243.79  1290.37
                             1302.93  1380.84  1385.60  1404.90  1426.08
                             1431.13  1438.55  1443.18  1460.19  1464.41
                             1490.60  1505.99  1550.71  1575.65  1577.01
                             1607.43  1630.60  1635.43  1675.65  1682.70
                             1696.92  1735.55  1739.71  1765.96  1804.43
                             1839.35  1848.18  1900.98  1912.07  1926.15
                             1932.80  1966.82  1973.56  1981.87  1986.75
                             2022.56  2029.60  2037.33  2103.22  2109.92
                             2111.60  2121.60  2130.08  2132.20  2138.52
                             2140.69  2145.47  2164.83  2184.79  2246.22
                             2330.49  2362.62  2466.25  2545.33  4338.56
                             4354.16  4360.23  4377.02  4405.65  4411.42
                             4421.09  4433.33  4436.74  4439.27  4472.69
                             4482.59  4487.49  4488.31  4496.81  4514.34
                             4515.45  4569.25  4589.47  4601.20  4630.68
                             4639.26

 Zero-point correction=                           0.359458 (Hartree/Particle)
 Thermal correction to Energy=                    0.387188
 Thermal correction to Enthalpy=                  0.388132
 Thermal correction to Gibbs Free Energy=         0.296278
 Sum of electronic and zero-point Energies=          -3531.089170
 Sum of electronic and thermal Energies=             -3531.061440
 Sum of electronic and thermal Enthalpies=           -3531.060496
 Sum of electronic and thermal Free Energies=        -3531.152350

                     E (Thermal)             CV                S
                      KCal/Mol        Cal/Mol-Kelvin    Cal/Mol-Kelvin
 Total                  242.964             97.787            193.324
 Electronic               0.000              0.000              3.561
 Translational            0.889              2.981             44.100
 Rotational               0.889              2.981             35.635
 Vibrational            241.187             91.825            110.028
 Vibration     1          0.593              1.986              6.665
 Vibration     2          0.593              1.985              6.306
 Vibration     3          0.593              1.984              5.927
 Vibration     4          0.595              1.980              5.080
 Vibration     5          0.596              1.977              4.756
 Vibration     6          0.597              1.972              4.353
 Vibration     7          0.598              1.970              4.247
 Vibration     8          0.599              1.965              3.988
 Vibration     9          0.600              1.962              3.875
 Vibration    10          0.601              1.958              3.712
 Vibration    11          0.603              1.953              3.548
 Vibration    12          0.604              1.948              3.437
 Vibration    13          0.606              1.943              3.312
 Vibration    14          0.607              1.938              3.194
 Vibration    15          0.608              1.934              3.134
 Vibration    16          0.609              1.931              3.072
 Vibration    17          0.616              1.908              2.740
 Vibration    18          0.618              1.902              2.667
 Vibration    19          0.620              1.897              2.612
 Vibration    20          0.629              1.869              2.348
 Vibration    21          0.639              1.834              2.098
 Vibration    22          0.641              1.831              2.074
 Vibration    23          0.644              1.820              2.010
 Vibration    24          0.667              1.748              1.671
 Vibration    25          0.670              1.741              1.643
 Vibration    26          0.680              1.711              1.534
 Vibration    27          0.703              1.643              1.331
 Vibration    28          0.704              1.641              1.324
 Vibration    29          0.722              1.589              1.197
 Vibration    30          0.732              1.563              1.139
 Vibration    31          0.750              1.512              1.037
 Vibration    32          0.758              1.491              1.000
 Vibration    33          0.766              1.470              0.963
 Vibration    34          0.772              1.455              0.937
 Vibration    35          0.776              1.443              0.917
 Vibration    36          0.785              1.421              0.883
 Vibration    37          0.803              1.376              0.817
 Vibration    38          0.828              1.313              0.734
 Vibration    39          0.852              1.259              0.668
 Vibration    40          0.868              1.221              0.626
 Vibration    41          0.902              1.146              0.550
 Vibration    42          0.928              1.093              0.501

 Optimization completed.
    -- Stationary point found.
 Normal termination of Gaussian 16 at Sun Jun 20 23:20:29 2021.

 ----------------------------------------------------------------------
 #p ub3lyp jul-cc-pvdz pop=cm5 scrf=(pcm,solvent=dichloroethane) guess=
 read geom=allcheck
 ----------------------------------------------------------------------

 Structure from the checkpoint file:  "checkpoint.chk"
 -----
 title
 -----
 Charge =  0 Multiplicity = 6

 SCF Done:  E(UB3LYP) =  -3531.46528302     A.U. after   17 cycles
 Normal termination of Gaussian 16 at Sun Jun 20 23:42:12 2021.
 Gaussian 16:  ES64L-G16RevA.03 25-Dec-2016

 ----------------------------------------------------------------------
 #p ub3lyp jul-cc-pvdz pop=cm5 scrf=(pcm,solvent=water) guess=read geom
 =allcheck
 ----------------------------------------------------------------------

 Structure from the checkpoint file:  "checkpoint.chk"
 -----
 title
 -----
 Charge =  0 Multiplicity = 6

                         Standard orientation:
 ---------------------------------------------------------------------
 Center     Atomic      Atomic             Coordinates (Angstroms)
 Number     Number       Type             X           Y           Z
 ---------------------------------------------------------------------
      1          6           0        2.808304    0.297010    1.360292
      2          6           0        1.626948   -0.382777    0.991937
      3          6           0        1.111792   -1.376615    1.853686
      4          6           0        1.767231   -1.691132    3.039320
      5          6           0        2.938678   -1.010427    3.394284
      6          6           0        3.451338   -0.013607    2.557247
      7          6           0        0.885643   -0.061005   -0.239122
      8          6           0        1.424767    0.878745   -1.324410
      9          6           0        2.755820    0.464990   -1.980904
     10          6           0        2.592730   -0.839244   -2.781937
     11          6           0        2.086185   -1.957504   -1.913035
     12          6           0        0.862984   -2.524188   -1.926813
     13          6           0       -0.228242   -2.197436   -2.909913
     14          8           0       -0.286161   -0.481458   -0.394913
     15         26           0       -2.134518   -0.325438    0.338547
     16         17           0       -3.372127    0.371668   -1.335316
     17          6           0        0.524509   -3.637916   -0.971220
     18         17           0       -1.966922    1.115849    1.993518
     19         17           0       -2.685870   -2.343454    1.036992
     20          1           0        0.198089   -1.903369    1.586207
     21          1           0        1.360352   -2.462525    3.693541
     22          1           0        3.448735   -1.253478    4.327906
     23          1           0        4.354220    0.528640    2.839594
     24          1           0        3.211143    1.091943    0.737773
     25          1           0        0.634605    0.874699   -2.085894
     26          6           0        1.466046    2.323003   -0.786958
     27          1           0        3.076105    1.282831   -2.640861
     28          1           0        3.543861    0.351832   -1.227547
     29          1           0        1.923192   -0.660814   -3.634080
     30          1           0        3.572913   -1.109396   -3.205658
     31          1           0        2.800264   -2.323754   -1.168019
     32          1           0        1.348945   -3.851024   -0.278628
     33          1           0       -0.379749   -3.400832   -0.390544
     34          1           0        0.297910   -4.560995   -1.529059
     35          1           0       -0.446716   -3.085442   -3.524878
     36          1           0       -1.162572   -1.944189   -2.389062
     37          1           0        0.017725   -1.371958   -3.586270
     38          8           0        0.227038    2.809409   -0.674988
     39          8           0        2.479925    2.933964   -0.523773
     40          6           0        0.094693    4.167345   -0.151746
     41          6           0       -1.374357    4.530503   -0.192926
     42          1           0        0.499287    4.172597    0.869229
     43          1           0        0.713227    4.830168   -0.770973
     44          1           0       -1.503695    5.547585    0.204364
     45          1           0       -1.756843    4.509045   -1.222489
     46          1           0       -1.966761    3.836979    0.417516
 ---------------------------------------------------------------------

 SCF Done:  E(UB3LYP) =  -3531.46845613     A.U. after   14 cycles

 The electronic state is 6-A.
 Alpha  occ. eigenvalues -- -256.21836-101.53037-101.52985-101.52901 -30.21210
 Alpha  occ. eigenvalues --  -26.06679 -26.06347 -26.06308 -19.21185 -19.20156
 Alpha  occ. eigenvalues --  -19.16321 -10.34300 -10.33717 -10.25250 -10.23450
 Alpha  occ. eigenvalues --  -10.23059 -10.22229 -10.22172 -10.22083 -10.21364
 Alpha  occ. eigenvalues --  -10.21353 -10.20461 -10.20379 -10.19372 -10.18746
 Alpha  occ. eigenvalues --  -10.18398 -10.18262 -10.18107  -9.44747  -9.44704
 Alpha  occ. eigenvalues --   -9.44636  -7.20617  -7.20574  -7.20504  -7.20315
 Alpha  occ. eigenvalues --   -7.20280  -7.20263  -7.20241  -7.20185  -7.20180
 Alpha  occ. eigenvalues --   -3.68849  -2.46626  -2.46006  -2.45931  -1.13142
 Alpha  occ. eigenvalues --   -1.10513  -1.04675  -0.88825  -0.84863  -0.82093
 Alpha  occ. eigenvalues --   -0.81016  -0.80267  -0.80222  -0.79176  -0.78571
 Alpha  occ. eigenvalues --   -0.77473  -0.75004  -0.69729  -0.69233  -0.67496
 Alpha  occ. eigenvalues --   -0.64783  -0.63124  -0.61830  -0.60009  -0.57832
 Alpha  occ. eigenvalues --   -0.56581  -0.53825  -0.52738  -0.52040  -0.51000
 Alpha  occ. eigenvalues --   -0.50325  -0.49514  -0.49213  -0.48913  -0.48784
 Alpha  occ. eigenvalues --   -0.48492  -0.47451  -0.47131  -0.46819  -0.45819
 Alpha  occ. eigenvalues --   -0.45365  -0.45041  -0.44395  -0.43218  -0.42822
 Alpha  occ. eigenvalues --   -0.42451  -0.40919  -0.40519  -0.39957  -0.39403
 Alpha  occ. eigenvalues --   -0.38786  -0.38568  -0.38042  -0.37856  -0.37418
 Alpha  occ. eigenvalues --   -0.37239  -0.36926  -0.36634  -0.36402  -0.35139
 Alpha  occ. eigenvalues --   -0.35033  -0.34763  -0.33248  -0.32679  -0.32342
 Alpha  occ. eigenvalues --   -0.31822  -0.31769  -0.31632  -0.31419  -0.30511
 Alpha  occ. eigenvalues --   -0.30319  -0.29980  -0.28865  -0.28106  -0.24607
 Alpha virt. eigenvalues --   -0.11452  -0.03722  -0.02346  -0.01643  -0.00699
 Alpha virt. eigenvalues --   -0.00129  -0.00027   0.00106   0.00580   0.01535
 Alpha virt. eigenvalues --    0.01704   0.01910   0.02255   0.02626   0.03291

  Beta  occ. eigenvalues -- -256.21651-101.52835-101.52790-101.52707 -30.12275
  Beta  occ. eigenvalues --  -25.99088 -25.98968 -25.98938 -19.21185 -19.19825
  Beta  occ. eigenvalues --  -19.16317 -10.34296 -10.33686 -10.25250 -10.23436
  Beta  occ. eigenvalues --  -10.23048 -10.22224 -10.22165 -10.22079 -10.21366
  Beta  occ. eigenvalues --  -10.21356 -10.20460 -10.20368 -10.19372 -10.18746
  Beta  occ. eigenvalues --  -10.18386 -10.18262 -10.18107  -9.44549  -9.44513
  Beta  occ. eigenvalues --   -9.44446  -7.20295  -7.20256  -7.20192  -7.20028
  Beta  occ. eigenvalues --   -7.20011  -7.19995  -7.19980  -7.19920  -7.19914
  Beta  occ. eigenvalues --   -3.48008  -2.24321  -2.24200  -2.24149  -1.13133
  Beta  occ. eigenvalues --   -1.09879  -1.04668  -0.88792  -0.84812  -0.82051
  Beta  occ. eigenvalues --   -0.79742  -0.79151  -0.78893  -0.78851  -0.78555
  Beta  occ. eigenvalues --   -0.77465  -0.74967  -0.69714  -0.69124  -0.67401
  Beta  occ. eigenvalues --   -0.64753  -0.63097  -0.61601  -0.59681  -0.57697
  Beta  occ. eigenvalues --   -0.55928  -0.53357  -0.52652  -0.51923  -0.50750
  Beta  occ. eigenvalues --   -0.49976  -0.49254  -0.47492  -0.46887  -0.46538
  Beta  occ. eigenvalues --   -0.45404  -0.45229  -0.44387  -0.43235  -0.42808
  Beta  occ. eigenvalues --   -0.42445  -0.40934  -0.40509  -0.39947  -0.39268
  Beta  occ. eigenvalues --   -0.38865  -0.38655  -0.38436  -0.37905  -0.37416
  Beta  occ. eigenvalues --   -0.37243  -0.36917  -0.36650  -0.36629  -0.36523
  Beta  occ. eigenvalues --   -0.36393  -0.35070  -0.33932  -0.33747  -0.33458
  Beta  occ. eigenvalues --   -0.33060  -0.32792  -0.32413  -0.31717  -0.30920
  Beta  occ. eigenvalues --   -0.30177  -0.30122  -0.28944  -0.28090  -0.24527
  Beta virt. eigenvalues --   -0.15901  -0.15421  -0.14515  -0.14095  -0.13988
  Beta virt. eigenvalues --   -0.10467  -0.03687  -0.02312  -0.01509  -0.00628
  Beta virt. eigenvalues --   -0.00081   0.00017   0.00158   0.00702   0.01562

 Mulliken charges and spin densities:
               1          2
     1  C   -0.141848   0.004347
     2  C    3.215704  -0.002025
     3  C   -0.673402  -0.003531
     4  C    0.116876   0.000599
     5  C    0.267747   0.008423
     6  C   -0.169120  -0.001706
     7  C   -1.798047  -0.007236
     8  C    0.210801   0.010615
     9  C    0.623719   0.002663
    10  C    0.533418  -0.000652
    11  C    0.137315   0.007043
    12  C   -0.012916   0.011196
    13  C    0.168876  -0.001539
    14  O   -0.300737   0.095641
    15  Fe   0.731635   4.070551
    16  Cl  -0.485585   0.265477
    17  C    0.159901  -0.002225
    18  Cl  -0.453419   0.269184
    19  Cl  -0.453362   0.263157
    20  H   -0.267506   0.000060
    21  H   -0.160333   0.000016
    22  H   -0.141932  -0.000119
    23  H   -0.152874   0.000089
    24  H   -0.201427  -0.000097
    25  H   -0.147397  -0.000511
    26  C    0.792518   0.005577
    27  H   -0.138640   0.000407
    28  H   -0.047592   0.000020
    29  H   -0.090050   0.000000
    30  H   -0.122821   0.000665
    31  H   -0.239529  -0.000348
    32  H   -0.024305   0.000061
    33  H    0.059612   0.000759
    34  H   -0.027245   0.000477
    35  H   -0.019089   0.000462
    36  H    0.015688   0.000801
    37  H   -0.011118   0.000022
    38  O   -0.663000   0.001112
    39  O   -0.545920   0.001584
    40  C    0.437564  -0.000029
    41  C    0.037916  -0.000633
    42  H   -0.031413   0.000020
    43  H   -0.038189   0.000004
    44  H   -0.004290   0.000045
    45  H    0.025461   0.000051
    46  H    0.028353  -0.000479
 Sum of Mulliken charges =  -0.00000   5.00000

 Dipole moment (field-independent basis, Debye):
    X=              9.5749    Y=              0.1870    Z=             -0.6032  Tot=              9.5957
 Quadrupole moment (field-independent basis, Debye-Ang):
   XX=           -190.1584   YY=           -169.2584   ZZ=           -165.2935
   XY=            -10.8533   XZ=              8.5029   YZ=             -3.0825

 Normal termination of Gaussian 16 at Mon Jun 21 00:00:10 2021.
