 Gaussian 16, Revision A.03,

 -----------------------------------------------------------
 #p opt=modredundant freq=noraman ub3lyp jul-cc-pvdz pop=cm5
 -----------------------------------------------------------

 -----
 title
 -----
 Symbolic Z-matrix:
 Charge =  0 Multiplicity = 6

 SCF Done:  E(UB3LYP) =  -3531.44099233     A.U. after   23 cycles
 SCF Done:  E(UB3LYP) =  -3531.44124357     A.U. after   16 cycles
 SCF Done:  E(UB3LYP) =  -3531.43935913     A.U. after   22 cycles
 SCF Done:  E(UB3LYP) =  -3531.43834038     A.U. after   18 cycles
 SCF Done:  E(UB3LYP) =  -3531.43383840     A.U. after   18 cycles
 SCF Done:  E(UB3LYP) =  -3531.43873866     A.U. after   22 cycles
 SCF Done:  E(UB3LYP) =  -3531.44124793     A.U. after    8 cycles
 SCF Done:  E(UB3LYP) =  -3531.44158899     A.U. after   15 cycles
 SCF Done:  E(UB3LYP) =  -3531.44126390     A.U. after   15 cycles
 SCF Done:  E(UB3LYP) =  -3531.44163082     A.U. after   15 cycles
 SCF Done:  E(UB3LYP) =  -3531.44164422     A.U. after   11 cycles
 SCF Done:  E(UB3LYP) =  -3531.44164387     A.U. after   11 cycles
 SCF Done:  E(UB3LYP) =  -3531.44164482     A.U. after   12 cycles
 SCF Done:  E(UB3LYP) =  -3531.44164373     A.U. after   12 cycles
 SCF Done:  E(UB3LYP) =  -3531.44164362     A.U. after    9 cycles
 SCF Done:  E(UB3LYP) =  -3531.44164477     A.U. after   12 cycles
 SCF Done:  E(UB3LYP) =  -3531.44164347     A.U. after   12 cycles
 Optimization completed.
    -- Stationary point found.
 Normal termination of Gaussian 16 at Sun Jun 20 17:41:35 2021.

 ----------------------------------------------------------------------
 #P Geom=AllCheck Guess=TCheck SCRF=Check GenChk UB3LYP/Jul-CC-pVDZ Fre
 q
 ----------------------------------------------------------------------

 Structure from the checkpoint file:  "checkpoint.chk"
 -----
 title
 -----
 Charge =  0 Multiplicity = 6

 SCF Done:  E(UB3LYP) =  -3531.44164347     A.U. after    2 cycles

  Exact polarizability: 319.526  14.436 300.048  19.421  -1.747 299.983
 Approx polarizability: 500.419  49.942 447.997  28.889 -19.049 489.491

 ******    1 imaginary frequencies (negative Signs) ******

                      1                      2                      3
                      A                      A                      A
 Frequencies --    -20.7158                13.1251                17.2538
 Red. masses --      5.8039                 5.6769                 6.0499
 Frc consts  --      0.0015                 0.0006                 0.0011
 IR Inten    --      0.2354                 0.2324                 1.3456

                      4                      5                      6
                      A                      A                      A
 Frequencies --     27.2751                47.0301                48.9520
 Red. masses --      7.2381                 5.4289                 8.5615
 Frc consts  --      0.0032                 0.0071                 0.0121
 IR Inten    --      1.4802                 1.1776                 1.2087

                      7                      8                      9
                      A                      A                      A
 Frequencies --     56.7221                63.8834                78.3729
 Red. masses --      3.8021                 2.8148                10.7255
 Frc consts  --      0.0072                 0.0068                 0.0388
 IR Inten    --      1.0648                 1.0066                 0.1702

                     10                     11                     12
                      A                      A                      A
 Frequencies --     84.6963                87.8580                96.8417
 Red. masses --     10.2263                 6.7785                 3.7515
 Frc consts  --      0.0432                 0.0308                 0.0207
 IR Inten    --      0.2483                 4.0133                 0.7698

                     13                     14                     15
                      A                      A                      A
 Frequencies --    102.9302               113.2616               116.4030
 Red. masses --      5.2948                 7.9854                 2.2449
 Frc consts  --      0.0331                 0.0604                 0.0179
 IR Inten    --      0.2178                 0.4997                 0.6019

                     16                     17                     18
                      A                      A                      A
 Frequencies --    122.9850               129.5332               145.1163
 Red. masses --     12.5206                 3.4198                 3.2692
 Frc consts  --      0.1116                 0.0338                 0.0406
 IR Inten    --      1.7908                 2.0151                 2.9662

                     19                     20                     21
                      A                      A                      A
 Frequencies --    159.5174               170.4913               186.1363
 Red. masses --      4.7240                 1.7297                 3.1446
 Frc consts  --      0.0708                 0.0296                 0.0642
 IR Inten    --      9.7723                 0.4038                 9.9376

                     22                     23                     24
                      A                      A                      A
 Frequencies --    202.7573               208.6010               219.7667
 Red. masses --      2.5243                 1.2293                 3.0428
 Frc consts  --      0.0611                 0.0315                 0.0866
 IR Inten    --      0.2626                 3.2478                 4.4245

                     25                     26                     27
                      A                      A                      A
 Frequencies --    258.1865               269.4668               281.4434
 Red. masses --      1.5556                 3.8983                 4.1399
 Frc consts  --      0.0611                 0.1668                 0.1932
 IR Inten    --      2.7821                30.7884                 2.8948

                     28                     29                     30
                      A                      A                      A
 Frequencies --    318.1780               339.9016               349.6526
 Red. masses --      2.2458                22.3781                 6.8873
 Frc consts  --      0.1340                 1.5233                 0.4961
 IR Inten    --      0.3556                14.7901                31.9094

                     31                     32                     33
                      A                      A                      A
 Frequencies --    356.3708               381.8080               392.9988
 Red. masses --      6.6509                 5.1000                 2.5859
 Frc consts  --      0.4977                 0.4380                 0.2353
 IR Inten    --     23.2361                 9.5937                 7.1225

                     34                     35                     36
                      A                      A                      A
 Frequencies --    400.2088               404.4037               410.6126
 Red. masses --     23.5739                21.9608                 2.9979
 Frc consts  --      2.2246                 2.1161                 0.2978
 IR Inten    --     73.0876                74.4627                 3.9702

                     37                     38                     39
                      A                      A                      A
 Frequencies --    423.5499               446.6188               472.0129
 Red. masses --      3.6706                 3.1297                 3.2578
 Frc consts  --      0.3880                 0.3678                 0.4276
 IR Inten    --     30.5107                 2.9900                 2.0722

                     40                     41                     42
                      A                      A                      A
 Frequencies --    497.9295               514.2295               544.6399
 Red. masses --      2.9893                 2.7651                 3.0165
 Frc consts  --      0.4367                 0.4308                 0.5272
 IR Inten    --     12.8738                 0.8522                16.7699

                     43                     44                     45
                      A                      A                      A
 Frequencies --    565.1704               623.7053               660.1735
 Red. masses --      4.9616                 6.3802                 4.4230
 Frc consts  --      0.9338                 1.4623                 1.1358
 IR Inten    --     63.1132                 2.1176                54.8923

                     46                     47                     48
                      A                      A                      A
 Frequencies --    691.1552               692.8695               749.6556
 Red. masses --      1.7137                 4.4961                 4.2585
 Frc consts  --      0.4823                 1.2717                 1.4100
 IR Inten    --     47.4115                27.0219                 7.3013

                     49                     50                     51
                      A                      A                      A
 Frequencies --    773.6453               779.8132               805.3733
 Red. masses --      2.3427                 2.1266                 1.1602
 Frc consts  --      0.8261                 0.7619                 0.4434
 IR Inten    --     22.7301                 3.5627                 1.2893

                     52                     53                     54
                      A                      A                      A
 Frequencies --    830.0274               839.5997               847.4081
 Red. masses --      4.0770                 1.5261                 1.2758
 Frc consts  --      1.6549                 0.6338                 0.5398
 IR Inten    --      9.0113                20.7481                 0.2541

                     55                     56                     57
                      A                      A                      A
 Frequencies --    862.8028               895.3987               906.0216
 Red. masses --      2.7844                 2.1599                 2.1638
 Frc consts  --      1.2213                 1.0203                 1.0465
 IR Inten    --     24.5776                 2.1986                19.3164

                     58                     59                     60
                      A                      A                      A
 Frequencies --    957.3433               960.2289               974.1627
 Red. masses --      1.4624                 1.3726                 3.4937
 Frc consts  --      0.7897                 0.7457                 1.9534
 IR Inten    --      2.2066                 2.0295                20.9193

                     61                     62                     63
                      A                      A                      A
 Frequencies --    990.8515               991.8647               995.4086
 Red. masses --      2.1009                 1.3879                 1.5427
 Frc consts  --      1.2152                 0.8044                 0.9006
 IR Inten    --     22.9565                 2.8526                 8.3278

                     64                     65                     66
                      A                      A                      A
 Frequencies --   1002.4333              1012.6505              1016.2357
 Red. masses --      3.9540                 1.3684                 2.0546
 Frc consts  --      2.3410                 0.8268                 1.2501
 IR Inten    --      1.8458                 0.4863                 1.4287

                     67                     68                     69
                      A                      A                      A
 Frequencies --   1036.3078              1045.9335              1075.8199
 Red. masses --      2.6387                 2.4427                 2.2106
 Frc consts  --      1.6696                 1.5745                 1.5075
 IR Inten    --     45.7789                 3.3011                 2.6002

                     70                     71                     72
                      A                      A                      A
 Frequencies --   1091.0208              1094.1563              1114.4467
 Red. masses --      2.3564                 1.7606                 1.5549
 Frc consts  --      1.6526                 1.2418                 1.1378
 IR Inten    --     10.3952                14.3110                 7.6207

                     73                     74                     75
                      A                      A                      A
 Frequencies --   1133.5777              1135.6459              1161.8591
 Red. masses --      2.1419                 2.0812                 1.6730
 Frc consts  --      1.6216                 1.5814                 1.3306
 IR Inten    --     15.7495                11.4566                81.0798

                     76                     77                     78
                      A                      A                      A
 Frequencies --   1169.9199              1178.6309              1204.7096
 Red. masses --      1.5566                 1.0849                 1.1906
 Frc consts  --      1.2553                 0.8880                 1.0181
 IR Inten    --      1.5090                 1.7036                39.2534

                     79                     80                     81
                      A                      A                      A
 Frequencies --   1210.8516              1227.2429              1253.0483
 Red. masses --      1.7238                 1.9716                 1.9633
 Frc consts  --      1.4891                 1.7495                 1.8163
 IR Inten    --     99.2806               126.1453                35.4013

                     82                     83                     84
                      A                      A                      A
 Frequencies --   1279.4248              1286.0811              1321.5460
 Red. masses --      1.8890                 1.2330                 1.4256
 Frc consts  --      1.8219                 1.2015                 1.4669
 IR Inten    --    144.6594                25.8101                17.9875

                     85                     86                     87
                      A                      A                      A
 Frequencies --   1330.7724              1338.2435              1339.4207
 Red. masses --      1.5462                 1.5918                 1.5858
 Frc consts  --      1.6134                 1.6797                 1.6762
 IR Inten    --     85.1962                36.0605                46.0365

                     88                     89                     90
                      A                      A                      A
 Frequencies --   1363.9681              1370.3222              1376.4280
 Red. masses --      1.4965                 3.3579                 1.3471
 Frc consts  --      1.6403                 3.7150                 1.5037
 IR Inten    --      8.1198                11.1491                 1.7936

                     91                     92                     93
                      A                      A                      A
 Frequencies --   1381.4381              1402.3626              1410.1936
 Red. masses --      1.3636                 1.3615                 1.3480
 Frc consts  --      1.5332                 1.5775                 1.5795
 IR Inten    --     20.5324                 6.6034                14.7758

                     94                     95                     96
                      A                      A                      A
 Frequencies --   1416.4114              1460.3647              1466.1432
 Red. masses --      1.3955                 1.0940                 2.1642
 Frc consts  --      1.6496                 1.3747                 2.7409
 IR Inten    --     11.0240                11.4742                40.7109

                     97                     98                     99
                      A                      A                      A
 Frequencies --   1471.7432              1473.8200              1478.5486
 Red. masses --      1.0867                 1.0382                 1.0483
 Frc consts  --      1.3869                 1.3287                 1.3502
 IR Inten    --      7.7282                 6.2511                 8.2382

                    100                    101                    102
                      A                      A                      A
 Frequencies --   1480.0095              1486.6732              1487.1071
 Red. masses --      1.0817                 1.0870                 1.0661
 Frc consts  --      1.3961                 1.4155                 1.3891
 IR Inten    --      5.4583                10.9365                 4.6901

                    103                    104                    105
                      A                      A                      A
 Frequencies --   1498.0193              1505.7128              1516.4537
 Red. masses --      1.0813                 1.0835                 2.2042
 Frc consts  --      1.4296                 1.4474                 2.9865
 IR Inten    --      8.6884                 6.3030                27.2137

                    106                    107                    108
                      A                      A                      A
 Frequencies --   1546.6389              1618.9659              1641.5928
 Red. masses --      6.1161                 5.4709                 5.7051
 Frc consts  --      8.6199                 8.4486                 9.0583
 IR Inten    --    686.1260                31.8519                39.6591

                    109                    110                    111
                      A                      A                      A
 Frequencies --   1710.2130              1768.8314              3016.3904
 Red. masses --      6.4485                11.6611                 1.0399
 Frc consts  --     11.1124                21.4963                 5.5745
 IR Inten    --     70.3923               222.5509                11.5966

                    112                    113                    114
                      A                      A                      A
 Frequencies --   3023.4171              3031.2468              3042.9129
 Red. masses --      1.0480                 1.0664                 1.0359
 Frc consts  --      5.6445                 5.7731                 5.6510
 IR Inten    --     14.8699                33.7100                15.9138

                    115                    116                    117
                      A                      A                      A
 Frequencies --   3060.9141              3066.1724              3073.6307
 Red. masses --      1.0587                 1.0638                 1.0962
 Frc consts  --      5.8441                 5.8925                 6.1014
 IR Inten    --     15.2703                25.1396                12.5952

                    118                    119                    120
                      A                      A                      A
 Frequencies --   3074.8297              3086.4070              3097.7311
 Red. masses --      1.0848                 1.0959                 1.0861
 Frc consts  --      6.0426                 6.1506                 6.1404
 IR Inten    --      0.2816                 5.6645                 4.6378

                    121                    122                    123
                      A                      A                      A
 Frequencies --   3108.9974              3118.1477              3119.3925
 Red. masses --      1.1073                 1.1004                 1.1013
 Frc consts  --      6.3058                 6.3038                 6.3139
 IR Inten    --      7.5817                 9.5444                16.5583

                    124                    125                    126
                      A                      A                      A
 Frequencies --   3119.7184              3127.6606              3139.3645
 Red. masses --      1.0994                 1.0899                 1.1049
 Frc consts  --      6.3041                 6.2816                 6.4160
 IR Inten    --      3.7487                35.5564                14.7256

                    127                    128                    129
                      A                      A                      A
 Frequencies --   3148.1211              3175.9067              3189.8867
 Red. masses --      1.1000                 1.0864                 1.0913
 Frc consts  --      6.4230                 6.4565                 6.5424
 IR Inten    --     12.7981                 0.7361                 5.9687

                    130                    131                    132
                      A                      A                      A
 Frequencies --   3198.1799              3227.7520              3232.2451
 Red. masses --      1.0967                 1.0929                 1.0928
 Frc consts  --      6.6088                 6.7087                 6.7269
 IR Inten    --      9.8578                 1.6741                 4.5978

 - Thermochemistry -
 -------------------
 Temperature   298.150 Kelvin.  Pressure   1.00000 Atm.
 Atom     1 has atomic number  6 and mass  12.00000

 Molecular mass:   434.99839 amu.
 Principal axes and moments of inertia in atomic units:
                           1         2         3
     Eigenvalues --  9614.32787********************
           X            0.99849  -0.05252   0.01595
           Y            0.05205   0.99824   0.02847
           Z           -0.01742  -0.02760   0.99947
 This molecule is an asymmetric top.
 Rotational symmetry number  1.
 Warning -- assumption of classical behavior for rotation
           may cause significant error
 Rotational temperatures (Kelvin)      0.00901     0.00777     0.00662
 Rotational constants (GHZ):           0.18771     0.16194     0.13785
    1 imaginary frequencies ignored.
 Zero-point vibrational energy     944005.3 (Joules/Mol)
                                  225.62269 (Kcal/Mol)
 Warning -- explicit consideration of  42 degrees of freedom as
           vibrations may cause significant error
 Vibrational temperatures:     18.88    24.82    39.24    67.67    70.43
          (Kelvin)             81.61    91.91   112.76   121.86   126.41
                              139.33   148.09   162.96   167.48   176.95
                              186.37   208.79   229.51   245.30   267.81
                              291.72   300.13   316.20   371.47   387.70
                              404.93   457.79   489.04   503.07   512.74
                              549.34   565.44   575.81   581.85   590.78
                              609.39   642.58   679.12   716.41   739.86
                              783.62   813.15   897.37   949.84   994.42
                              996.88  1078.59  1113.10  1121.98  1158.75
                             1194.22  1208.00  1219.23  1241.38  1288.28
                             1303.56  1377.40  1381.56  1401.60  1425.61
                             1427.07  1432.17  1442.28  1456.98  1462.14
                             1491.02  1504.87  1547.86  1569.74  1574.25
                             1603.44  1630.97  1633.94  1671.66  1683.25
                             1695.79  1733.31  1742.15  1765.73  1802.86
                             1840.81  1850.38  1901.41  1914.68  1925.43
                             1927.13  1962.45  1971.59  1980.37  1987.58
                             2017.69  2028.95  2037.90  2101.14  2109.45
                             2117.51  2120.50  2127.30  2129.40  2138.99
                             2139.62  2155.32  2166.38  2181.84  2225.27
                             2329.33  2361.89  2460.62  2544.95  4339.91
                             4350.02  4361.29  4378.07  4403.97  4411.54
                             4422.27  4423.99  4440.65  4456.94  4473.15
                             4486.32  4488.11  4488.58  4500.01  4516.85
                             4529.44  4569.42  4589.54  4601.47  4644.02
                             4650.48

 Zero-point correction=                           0.359553 (Hartree/Particle)
 Thermal correction to Energy=                    0.387173
 Thermal correction to Enthalpy=                  0.388117
 Thermal correction to Gibbs Free Energy=         0.295993
 Sum of electronic and zero-point Energies=          -3531.082091
 Sum of electronic and thermal Energies=             -3531.054471
 Sum of electronic and thermal Enthalpies=           -3531.053527
 Sum of electronic and thermal Free Energies=        -3531.145650

                     E (Thermal)             CV                S
                      KCal/Mol        Cal/Mol-Kelvin    Cal/Mol-Kelvin
 Total                  242.955             97.729            193.891
 Electronic               0.000              0.000              3.561
 Translational            0.889              2.981             44.100
 Rotational               0.889              2.981             35.593
 Vibrational            241.177             91.767            110.637
 Vibration     1          0.593              1.987              7.471
 Vibration     2          0.593              1.986              6.928
 Vibration     3          0.593              1.984              6.018
 Vibration     4          0.595              1.979              4.939
 Vibration     5          0.595              1.978              4.859
 Vibration     6          0.596              1.975              4.568
 Vibration     7          0.597              1.972              4.333
 Vibration     8          0.600              1.964              3.931
 Vibration     9          0.601              1.960              3.779
 Vibration    10          0.601              1.958              3.707
 Vibration    11          0.603              1.951              3.517
 Vibration    12          0.605              1.947              3.398
 Vibration    13          0.607              1.938              3.212
 Vibration    14          0.608              1.936              3.159
 Vibration    15          0.610              1.930              3.053
 Vibration    16          0.612              1.924              2.953
 Vibration    17          0.617              1.908              2.735
 Vibration    18          0.621              1.892              2.556
 Vibration    19          0.626              1.879              2.430
 Vibration    20          0.632              1.859              2.266
 Vibration    21          0.639              1.836              2.108
 Vibration    22          0.642              1.828              2.056
 Vibration    23          0.647              1.811              1.961
 Vibration    24          0.667              1.749              1.674
 Vibration    25          0.674              1.729              1.600
 Vibration    26          0.681              1.708              1.525
 Vibration    27          0.705              1.639              1.319
 Vibration    28          0.720              1.596              1.213
 Vibration    29          0.727              1.576              1.168
 Vibration    30          0.732              1.562              1.138
 Vibration    31          0.751              1.509              1.032
 Vibration    32          0.760              1.485              0.989
 Vibration    33          0.766              1.470              0.962
 Vibration    34          0.770              1.461              0.947
 Vibration    35          0.775              1.447              0.924
 Vibration    36          0.786              1.419              0.880
 Vibration    37          0.806              1.368              0.806
 Vibration    38          0.829              1.312              0.732
 Vibration    39          0.853              1.255              0.663
 Vibration    40          0.869              1.218              0.623
 Vibration    41          0.900              1.151              0.555
 Vibration    42          0.921              1.107              0.514

 Optimization completed.
    -- Stationary point found.
 Normal termination of Gaussian 16 at Sun Jun 20 22:09:35 2021.

 ----------------------------------------------------------------------
 #p ub3lyp jul-cc-pvdz pop=cm5 scrf=(pcm,solvent=dichloroethane) guess=
 read geom=allcheck
 ----------------------------------------------------------------------

 Structure from the checkpoint file:  "checkpoint.chk"
 -----
 title
 -----
 Charge =  0 Multiplicity = 6

 SCF Done:  E(UB3LYP) =  -3531.45837809     A.U. after   18 cycles
 Normal termination of Gaussian 16 at Sun Jun 20 22:36:58 2021.
 Gaussian 16:  ES64L-G16RevA.03 25-Dec-2016

 ----------------------------------------------------------------------
 #p ub3lyp jul-cc-pvdz pop=cm5 scrf=(pcm,solvent=water) guess=read geom
 =allcheck
 ----------------------------------------------------------------------

 Structure from the checkpoint file:  "checkpoint.chk"
 -----
 title
 -----
 Charge =  0 Multiplicity = 6

                         Standard orientation:
 ---------------------------------------------------------------------
 Center     Atomic      Atomic             Coordinates (Angstroms)
 Number     Number       Type             X           Y           Z
 ---------------------------------------------------------------------
      1          6           0        3.125886    0.242007    0.774651
      2          6           0        1.845398   -0.350280    0.829930
      3          6           0        1.473565   -1.064721    1.990742
      4          6           0        2.360541   -1.198237    3.053701
      5          6           0        3.631770   -0.614982    2.982037
      6          6           0        4.007899    0.108964    1.845219
      7          6           0        0.858207   -0.213932   -0.255637
      8          6           0        1.114186    0.615185   -1.521324
      9          6           0        2.201909    0.070758   -2.471561
     10          6           0        1.865345   -1.348265   -2.960523
     11          6           0        1.663776   -2.279005   -1.797234
     12          6           0        0.500292   -2.814896   -1.376669
     13          6           0       -0.806593   -2.705158   -2.115771
     14          8           0       -0.290831   -0.697002   -0.092670
     15         26           0       -2.131912   -0.162886    0.435825
     16         17           0       -3.049673    0.781853   -1.327116
     17          6           0        0.461581   -3.718911   -0.174554
     18         17           0       -1.848954    1.191962    2.149962
     19         17           0       -3.110858   -2.040563    1.040945
     20          1           0        0.479613   -1.501511    2.051602
     21          1           0        2.059070   -1.749391    3.944770
     22          1           0        4.326422   -0.716995    3.817472
     23          1           0        4.991287    0.577144    1.794114
     24          1           0        3.432356    0.828985   -0.086705
     25          1           0        0.148407    0.603826   -2.043797
     26          6           0        1.373126    2.089093   -1.155726
     27          1           0        2.279853    0.765033   -3.319458
     28          1           0        3.181732    0.078195   -1.980480
     29          1           0        0.976670   -1.315358   -3.604258
     30          1           0        2.695597   -1.702580   -3.591607
     31          1           0        2.563417   -2.499637   -1.213843
     32          1           0        1.443674   -3.812237    0.306186
     33          1           0       -0.271071   -3.358063    0.562818
     34          1           0        0.124972   -4.725866   -0.470310
     35          1           0       -0.978391   -3.639606   -2.675742
     36          1           0       -1.648282   -2.603796   -1.419147
     37          1           0       -0.847128   -1.876885   -2.830196
     38          8           0        0.261630    2.650357   -0.672368
     39          8           0        2.431065    2.661762   -1.308652
     40          6           0        0.344390    4.059266   -0.293731
     41          6           0       -1.052786    4.523436    0.058868
     42          1           0        1.039351    4.136613    0.553632
     43          1           0        0.772941    4.611444   -1.140050
     44          1           0       -1.014002    5.581913    0.354413
     45          1           0       -1.727664    4.426511   -0.802154
     46          1           0       -1.463706    3.939132    0.891845
 ---------------------------------------------------------------------

 SCF Done:  E(UB3LYP) =  -3531.46149504     A.U. after   14 cycles

 The electronic state is 6-A.
 Alpha  occ. eigenvalues -- -256.21645-101.52865-101.52836-101.52797 -30.21014
 Alpha  occ. eigenvalues --  -26.06470 -26.06176 -26.06102 -19.21089 -19.19737
 Alpha  occ. eigenvalues --  -19.16192 -10.34162 -10.33717 -10.25193 -10.23449
 Alpha  occ. eigenvalues --  -10.23003 -10.22237 -10.22184 -10.22055 -10.21360
 Alpha  occ. eigenvalues --  -10.21334 -10.20556 -10.20520 -10.19348 -10.18665
 Alpha  occ. eigenvalues --  -10.18286 -10.18240 -10.18226  -9.44592  -9.44551
 Alpha  occ. eigenvalues --   -9.44515  -7.20459  -7.20423  -7.20384  -7.20149
 Alpha  occ. eigenvalues --   -7.20130  -7.20111  -7.20087  -7.20070  -7.20057
 Alpha  occ. eigenvalues --   -3.68663  -2.46415  -2.45876  -2.45719  -1.13046
 Alpha  occ. eigenvalues --   -1.10296  -1.04562  -0.88797  -0.84869  -0.82233
 Alpha  occ. eigenvalues --   -0.80875  -0.80123  -0.80078  -0.79112  -0.78567
 Alpha  occ. eigenvalues --   -0.77453  -0.74960  -0.69842  -0.69353  -0.67384
 Alpha  occ. eigenvalues --   -0.64803  -0.63098  -0.61658  -0.60000  -0.57864
 Alpha  occ. eigenvalues --   -0.56378  -0.53910  -0.52747  -0.51934  -0.50792
 Alpha  occ. eigenvalues --   -0.50401  -0.49421  -0.49150  -0.48761  -0.48686
 Alpha  occ. eigenvalues --   -0.48324  -0.47430  -0.47144  -0.46881  -0.45893
 Alpha  occ. eigenvalues --   -0.45367  -0.44996  -0.44366  -0.43172  -0.42632
 Alpha  occ. eigenvalues --   -0.42385  -0.40870  -0.40520  -0.40005  -0.39416
 Alpha  occ. eigenvalues --   -0.38943  -0.38409  -0.37972  -0.37792  -0.37517
 Alpha  occ. eigenvalues --   -0.37232  -0.36879  -0.36627  -0.36289  -0.35073
 Alpha  occ. eigenvalues --   -0.34996  -0.34493  -0.33300  -0.32630  -0.32352
 Alpha  occ. eigenvalues --   -0.31666  -0.31623  -0.31458  -0.31233  -0.30448
 Alpha  occ. eigenvalues --   -0.30175  -0.29882  -0.28830  -0.28097  -0.24423
 Alpha virt. eigenvalues --   -0.11525  -0.03734  -0.02246  -0.01657  -0.00922
 Alpha virt. eigenvalues --   -0.00151  -0.00011   0.00110   0.00831   0.01552
 Alpha virt. eigenvalues --    0.01694   0.01906   0.02375   0.02808   0.03202

  Beta  occ. eigenvalues -- -256.21460-101.52672-101.52639-101.52604 -30.12084
  Beta  occ. eigenvalues --  -25.98890 -25.98789 -25.98741 -19.21088 -19.19398
  Beta  occ. eigenvalues --  -19.16190 -10.34159 -10.33685 -10.25192 -10.23439
  Beta  occ. eigenvalues --  -10.22989 -10.22232 -10.22176 -10.22051 -10.21360
  Beta  occ. eigenvalues --  -10.21336 -10.20539 -10.20518 -10.19348 -10.18664
  Beta  occ. eigenvalues --  -10.18264 -10.18241 -10.18226  -9.44402  -9.44357
  Beta  occ. eigenvalues --   -9.44326  -7.20146  -7.20104  -7.20073  -7.19881
  Beta  occ. eigenvalues --   -7.19870  -7.19837  -7.19821  -7.19805  -7.19793
  Beta  occ. eigenvalues --   -3.47832  -2.24141  -2.24040  -2.23968  -1.13039
  Beta  occ. eigenvalues --   -1.09640  -1.04557  -0.88761  -0.84819  -0.82181
  Beta  occ. eigenvalues --   -0.79617  -0.79070  -0.78780  -0.78714  -0.78544
  Beta  occ. eigenvalues --   -0.77444  -0.74929  -0.69820  -0.69242  -0.67276
  Beta  occ. eigenvalues --   -0.64766  -0.63067  -0.61503  -0.59637  -0.57704
  Beta  occ. eigenvalues --   -0.55775  -0.53394  -0.52646  -0.51854  -0.50569
  Beta  occ. eigenvalues --   -0.49974  -0.49087  -0.47629  -0.47127  -0.46787
  Beta  occ. eigenvalues --   -0.45401  -0.45154  -0.44362  -0.43186  -0.42607
  Beta  occ. eigenvalues --   -0.42370  -0.40897  -0.40491  -0.40006  -0.39273
  Beta  occ. eigenvalues --   -0.38962  -0.38525  -0.38346  -0.37853  -0.37500
  Beta  occ. eigenvalues --   -0.37239  -0.36870  -0.36613  -0.36526  -0.36442
  Beta  occ. eigenvalues --   -0.36322  -0.35008  -0.33836  -0.33609  -0.33380
  Beta  occ. eigenvalues --   -0.32893  -0.32838  -0.32329  -0.31575  -0.30929
  Beta  occ. eigenvalues --   -0.30022  -0.29855  -0.28978  -0.28090  -0.24321
  Beta virt. eigenvalues --   -0.15765  -0.15191  -0.14463  -0.13915  -0.13860
  Beta virt. eigenvalues --   -0.10452  -0.03708  -0.02218  -0.01530  -0.00848
  Beta virt. eigenvalues --   -0.00107   0.00029   0.00151   0.00970   0.01573

 Mulliken charges and spin densities:
               1          2
     1  C   -0.098861   0.003625
     2  C    3.089796  -0.009676
     3  C   -0.664114  -0.001100
     4  C    0.116808  -0.000764
     5  C    0.293743   0.007949
     6  C   -0.155115  -0.001305
     7  C   -2.024176   0.006477
     8  C    0.304506   0.012607
     9  C    0.650691   0.003673
    10  C    0.578910  -0.001079
    11  C    0.128766   0.014275
    12  C    0.016724   0.011375
    13  C    0.135526  -0.001583
    14  O   -0.302261   0.096175
    15  Fe   0.717543   4.067254
    16  Cl  -0.502699   0.257343
    17  C    0.228943  -0.000888
    18  Cl  -0.466283   0.264304
    19  Cl  -0.465973   0.264898
    20  H   -0.242297  -0.000907
    21  H   -0.157742   0.000029
    22  H   -0.144099  -0.000115
    23  H   -0.152150   0.000125
    24  H   -0.179861  -0.000101
    25  H   -0.157193  -0.001110
    26  C    0.818761   0.002286
    27  H   -0.133456   0.000216
    28  H   -0.035955   0.000020
    29  H   -0.090054   0.000006
    30  H   -0.125718   0.000955
    31  H   -0.248732  -0.000626
    32  H   -0.028763   0.000026
    33  H    0.046073   0.000363
    34  H   -0.034399   0.000879
    35  H   -0.023649   0.000947
    36  H    0.044710   0.001571
    37  H    0.020102  -0.000190
    38  O   -0.663887   0.001813
    39  O   -0.556002   0.001301
    40  C    0.443248   0.000621
    41  C    0.033648  -0.001354
    42  H   -0.030631   0.000057
    43  H   -0.033815   0.000029
    44  H   -0.007480   0.000062
    45  H    0.027458   0.000015
    46  H    0.029412  -0.000476
 Sum of Mulliken charges =  -0.00000   5.00000

 Dipole moment (field-independent basis, Debye):
    X=              9.9926    Y=             -0.7075    Z=             -0.6624  Tot=             10.0395
 Quadrupole moment (field-independent basis, Debye-Ang):
   XX=           -187.4227   YY=           -169.3966   ZZ=           -168.2729
   XY=             -8.7346   XZ=             13.1398   YZ=              0.4726

 Normal termination of Gaussian 16 at Sun Jun 20 22:57:55 2021.
