 Gaussian 16, Revision A.03,

 -----------------------------------------------------------
 #p opt=modredundant freq=noraman ub3lyp jul-cc-pvdz pop=cm5
 -----------------------------------------------------------

 -----
 title
 -----
 Symbolic Z-matrix:
 Charge =  0 Multiplicity = 6

 SCF Done:  E(UB3LYP) =  -3531.41512683     A.U. after   26 cycles
 SCF Done:  E(UB3LYP) =  -3531.41642274     A.U. after   24 cycles
 SCF Done:  E(UB3LYP) =  -3531.41591935     A.U. after   25 cycles
 SCF Done:  E(UB3LYP) =  -3531.41673167     A.U. after   20 cycles
 SCF Done:  E(UB3LYP) =  -3531.41483161     A.U. after   24 cycles
 SCF Done:  E(UB3LYP) =  -3531.41886980     A.U. after   17 cycles
 SCF Done:  E(UB3LYP) =  -3531.41866516     A.U. after   25 cycles
 SCF Done:  E(UB3LYP) =  -3531.41910068     A.U. after   18 cycles
 SCF Done:  E(UB3LYP) =  -3531.41993991     A.U. after   24 cycles
 SCF Done:  E(UB3LYP) =  -3531.42017172     A.U. after   18 cycles
 SCF Done:  E(UB3LYP) =  -3531.42119748     A.U. after   13 cycles
 SCF Done:  E(UB3LYP) =  -3531.42119830     A.U. after   13 cycles
 SCF Done:  E(UB3LYP) =  -3531.42119870     A.U. after   11 cycles
 SCF Done:  E(UB3LYP) =  -3531.42119889     A.U. after   10 cycles
 SCF Done:  E(UB3LYP) =  -3531.42119904     A.U. after   10 cycles
 SCF Done:  E(UB3LYP) =  -3531.42119910     A.U. after   10 cycles
 SCF Done:  E(UB3LYP) =  -3531.42119914     A.U. after   10 cycles
 Optimization completed.
    -- Stationary point found.
 Normal termination of Gaussian 16 at Sun Jun 20 10:03:25 2021.

 ----------------------------------------------------------------------
 #P Geom=AllCheck Guess=TCheck SCRF=Check GenChk UB3LYP/Jul-CC-pVDZ Fre
 q
 ----------------------------------------------------------------------

 Structure from the checkpoint file:  "checkpoint.chk"
 -----
 title
 -----
 Charge =  0 Multiplicity = 6

 SCF Done:  E(UB3LYP) =  -3531.42119914     A.U. after    2 cycles

  Exact polarizability: 320.602   7.820 303.684  13.788   5.005 288.496
 Approx polarizability: 478.915  14.618 471.427   3.694  15.777 484.660

 ******    1 imaginary frequencies (negative Signs) ******

                      1                      2                      3
                      A                      A                      A
 Frequencies --   -194.4868                 8.0265                10.3530
 Red. masses --      8.1463                 4.3454                14.6443
 Frc consts  --      0.1815                 0.0002                 0.0009
 IR Inten    --    323.0210                 2.5072                 0.1228

                      4                      5                      6
                      A                      A                      A
 Frequencies --     26.4805                33.7542                43.8370
 Red. masses --      3.7575                 7.7772                 5.9098
 Frc consts  --      0.0016                 0.0052                 0.0067
 IR Inten    --      1.1397                 0.2111                 1.0880

                      7                      8                      9
                      A                      A                      A
 Frequencies --     53.8809                71.1242                75.6925
 Red. masses --      4.3916                 2.7125                 4.6755
 Frc consts  --      0.0075                 0.0081                 0.0158
 IR Inten    --      1.6722                 1.0578                 0.5290

                     10                     11                     12
                      A                      A                      A
 Frequencies --     80.8854                88.5674                91.8896
 Red. masses --      3.0259                 4.3981                 5.2377
 Frc consts  --      0.0117                 0.0203                 0.0261
 IR Inten    --      1.8270                 0.1727                 1.6751

                     13                     14                     15
                      A                      A                      A
 Frequencies --    100.8511               107.8892               113.9488
 Red. masses --      6.6226                 4.6258                 2.1680
 Frc consts  --      0.0397                 0.0317                 0.0166
 IR Inten    --      8.8061                 6.6986                 3.2953

                     16                     17                     18
                      A                      A                      A
 Frequencies --    116.8508               123.3149               142.3296
 Red. masses --      6.6963                 7.8492                 3.7082
 Frc consts  --      0.0539                 0.0703                 0.0443
 IR Inten    --      2.7749                 1.8288                 0.4753

                     19                     20                     21
                      A                      A                      A
 Frequencies --    150.5371               160.7008               181.9820
 Red. masses --      2.9509                 3.4005                 2.8446
 Frc consts  --      0.0394                 0.0517                 0.0555
 IR Inten    --      5.3684                 7.0973                 4.1306

                     22                     23                     24
                      A                      A                      A
 Frequencies --    208.7803               212.9542               221.2638
 Red. masses --      1.1973                 2.6542                 4.9646
 Frc consts  --      0.0308                 0.0709                 0.1432
 IR Inten    --      3.6550                 2.5785                 6.1174

                     25                     26                     27
                      A                      A                      A
 Frequencies --    251.7098               261.4637               283.7410
 Red. masses --      2.4663                 2.1918                 2.3831
 Frc consts  --      0.0921                 0.0883                 0.1130
 IR Inten    --      3.3705                 4.2317                 7.2097

                     28                     29                     30
                      A                      A                      A
 Frequencies --    296.6480               311.0459               341.4394
 Red. masses --      6.2008                 4.3341                27.8418
 Frc consts  --      0.3215                 0.2471                 1.9124
 IR Inten    --      4.3513                10.4890                50.9810

                     31                     32                     33
                      A                      A                      A
 Frequencies --    354.9047               368.5374               385.8912
 Red. masses --      3.9688                 5.1592                39.8911
 Frc consts  --      0.2945                 0.4128                 3.4999
 IR Inten    --      7.1770                 9.1517                80.4324

                     34                     35                     36
                      A                      A                      A
 Frequencies --    398.5349               403.2853               420.1585
 Red. masses --     27.6572                 3.0627                 3.0058
 Frc consts  --      2.5882                 0.2935                 0.3126
 IR Inten    --     85.1521                 0.0317                 0.6225

                     37                     38                     39
                      A                      A                      A
 Frequencies --    427.4953               454.8098               494.1737
 Red. masses --      4.0998                 5.0456                 2.2257
 Frc consts  --      0.4414                 0.6149                 0.3202
 IR Inten    --     18.8684                29.3159                 2.8783

                     40                     41                     42
                      A                      A                      A
 Frequencies --    514.5347               531.6935               546.1815
 Red. masses --      2.7897                 3.3311                 3.4463
 Frc consts  --      0.4351                 0.5548                 0.6057
 IR Inten    --      5.0324                24.3073                19.4117

                     43                     44                     45
                      A                      A                      A
 Frequencies --    601.4386               627.2297               658.4828
 Red. masses --      4.9549                 6.3747                 4.2091
 Frc consts  --      1.0560                 1.4776                 1.0753
 IR Inten    --     25.5572                 0.7506                93.3872

                     46                     47                     48
                      A                      A                      A
 Frequencies --    699.1023               711.2116               767.2458
 Red. masses --      5.5467                 1.6865                 2.4190
 Frc consts  --      1.5972                 0.5026                 0.8390
 IR Inten    --     12.6716                88.0477                 0.4290

                     49                     50                     51
                      A                      A                      A
 Frequencies --    778.6811               803.5288               808.2087
 Red. masses --      3.4815                 2.2590                 1.5899
 Frc consts  --      1.2438                 0.8594                 0.6119
 IR Inten    --     18.1180                29.8153                14.2144

                     52                     53                     54
                      A                      A                      A
 Frequencies --    826.4695               855.6914               864.0656
 Red. masses --      2.0806                 1.2540                 1.5410
 Frc consts  --      0.8373                 0.5410                 0.6779
 IR Inten    --      9.1224                 2.2858                 0.6413

                     55                     56                     57
                      A                      A                      A
 Frequencies --    870.1340               901.9166               922.1678
 Red. masses --      2.4781                 1.7985                 2.7061
 Frc consts  --      1.1054                 0.8620                 1.3559
 IR Inten    --     14.0334                 0.4284                10.6865

                     58                     59                     60
                      A                      A                      A
 Frequencies --    937.5867               961.4233               987.9157
 Red. masses --      1.5355                 2.3552                 2.6827
 Frc consts  --      0.7953                 1.2827                 1.5426
 IR Inten    --      5.8115                 6.8939                59.2803

                     61                     62                     63
                      A                      A                      A
 Frequencies --    989.7541               992.3488              1002.0206
 Red. masses --      1.4572                 1.3925                 1.6339
 Frc consts  --      0.8411                 0.8079                 0.9665
 IR Inten    --      1.1626                 5.4689                 3.0463

                     64                     65                     66
                      A                      A                      A
 Frequencies --   1005.6363              1007.2592              1010.2089
 Red. masses --      1.9194                 2.0233                 2.1789
 Frc consts  --      1.1437                 1.2095                 1.3101
 IR Inten    --     38.1166                 4.7086                24.3608

                     67                     68                     69
                      A                      A                      A
 Frequencies --   1040.0861              1049.2744              1057.2975
 Red. masses --      2.9168                 2.2453                 2.0590
 Frc consts  --      1.8591                 1.4565                 1.3561
 IR Inten    --     38.8365                 7.8207                 7.6584

                     70                     71                     72
                      A                      A                      A
 Frequencies --   1072.7049              1100.6259              1107.5497
 Red. masses --      1.8365                 1.6586                 1.5907
 Frc consts  --      1.2451                 1.1838                 1.1497
 IR Inten    --      7.1580                 8.2421                19.4067

                     73                     74                     75
                      A                      A                      A
 Frequencies --   1121.0889              1132.8274              1165.6755
 Red. masses --      2.6289                 2.2002                 1.6650
 Frc consts  --      1.9467                 1.6635                 1.3330
 IR Inten    --      4.6594                11.3828                11.9371

                     76                     77                     78
                      A                      A                      A
 Frequencies --   1169.2554              1173.9542              1195.6350
 Red. masses --      1.5763                 1.0864                 2.0214
 Frc consts  --      1.2697                 0.8821                 1.7026
 IR Inten    --      1.4672                 0.0791                17.3078

                     79                     80                     81
                      A                      A                      A
 Frequencies --   1204.3702              1209.4930              1223.7094
 Red. masses --      1.3526                 2.0337                 1.8386
 Frc consts  --      1.1560                 1.7528                 1.6222
 IR Inten    --     41.5890               166.5967               168.0487

                     82                     83                     84
                      A                      A                      A
 Frequencies --   1261.2694              1280.4812              1283.5852
 Red. masses --      1.7670                 1.4924                 1.2729
 Frc consts  --      1.6561                 1.4417                 1.2356
 IR Inten    --     22.9975               151.5599                65.0820

                     85                     86                     87
                      A                      A                      A
 Frequencies --   1319.6351              1323.1366              1330.4871
 Red. masses --      1.5782                 1.5877                 1.6987
 Frc consts  --      1.6192                 1.6377                 1.7717
 IR Inten    --     95.3924               119.4801                43.6676

                     88                     89                     90
                      A                      A                      A
 Frequencies --   1337.5466              1350.1861              1358.0042
 Red. masses --      1.3914                 1.3681                 2.8267
 Frc consts  --      1.4666                 1.4694                 3.0714
 IR Inten    --     88.3077                18.8683                 3.3111

                     91                     92                     93
                      A                      A                      A
 Frequencies --   1366.3086              1371.3287              1386.6415
 Red. masses --      1.5095                 1.2780                 1.5362
 Frc consts  --      1.6602                 1.4160                 1.7403
 IR Inten    --     41.2191                51.5703                53.0897

                     94                     95                     96
                      A                      A                      A
 Frequencies --   1397.6002              1416.5145              1425.8540
 Red. masses --      1.7294                 1.4612                 1.0923
 Frc consts  --      1.9903                 1.7274                 1.3084
 IR Inten    --     91.0445                10.4345                 4.6784

                     97                     98                     99
                      A                      A                      A
 Frequencies --   1456.5338              1460.1558              1470.7498
 Red. masses --      1.0813                 1.1824                 2.1105
 Frc consts  --      1.3515                 1.4853                 2.6898
 IR Inten    --     27.4766                16.0760                32.4065

                    100                    101                    102
                      A                      A                      A
 Frequencies --   1474.5130              1481.1138              1485.1193
 Red. masses --      1.0397                 1.0874                 1.0517
 Frc consts  --      1.3319                 1.4054                 1.3667
 IR Inten    --      5.5123                 5.5218                 2.5194

                    103                    104                    105
                      A                      A                      A
 Frequencies --   1493.3482              1501.6474              1505.8051
 Red. masses --      1.1304                 1.1556                 1.0855
 Frc consts  --      1.4853                 1.5353                 1.4502
 IR Inten    --     15.0273                 6.2465                 7.6511

                    106                    107                    108
                      A                      A                      A
 Frequencies --   1515.5998              1558.6668              1622.0437
 Red. masses --      2.1621                 3.6096                 5.7475
 Frc consts  --      2.9261                 5.1667                 8.9094
 IR Inten    --      4.3225               103.5542                 0.2332

                    109                    110                    111
                      A                      A                      A
 Frequencies --   1640.1618              1761.3195              2930.2170
 Red. masses --      5.6700                11.5108                 1.0598
 Frc consts  --      8.9868                21.0393                 5.3613
 IR Inten    --      1.4505               191.0156                73.3545

                    112                    113                    114
                      A                      A                      A
 Frequencies --   3012.3101              3041.3857              3049.1100
 Red. masses --      1.0417                 1.0353                 1.0643
 Frc consts  --      5.5692                 5.6425                 5.8299
 IR Inten    --      0.7317                13.7096                17.1678

                    115                    116                    117
                      A                      A                      A
 Frequencies --   3057.3741              3061.5165              3065.1233
 Red. masses --      1.0581                 1.0624                 1.0949
 Frc consts  --      5.8273                 5.8671                 6.0605
 IR Inten    --     15.0177                15.2507                 0.6247

                    118                    119                    120
                      A                      A                      A
 Frequencies --   3087.4948              3102.2149              3103.5928
 Red. masses --      1.0693                 1.1077                 1.0901
 Frc consts  --      6.0054                 6.2808                 6.1864
 IR Inten    --      4.9737                 4.3359                 7.5981

                    121                    122                    123
                      A                      A                      A
 Frequencies --   3110.0478              3117.9710              3121.1272
 Red. masses --      1.0955                 1.1011                 1.0991
 Frc consts  --      6.2429                 6.3068                 6.3081
 IR Inten    --      4.3363                22.3538                 2.0312

                    124                    125                    126
                      A                      A                      A
 Frequencies --   3131.6502              3132.1540              3148.9259
 Red. masses --      1.1051                 1.0894                 1.1051
 Frc consts  --      6.3857                 6.2968                 6.4564
 IR Inten    --     24.6860                 8.8520                 7.5941

                    127                    128                    129
                      A                      A                      A
 Frequencies --   3157.0200              3170.0187              3180.4682
 Red. masses --      1.0994                 1.0855                 1.0901
 Frc consts  --      6.4557                 6.4269                 6.4965
 IR Inten    --      7.7929                 0.1618                 7.9790

                    130                    131                    132
                      A                      A                      A
 Frequencies --   3192.0069              3201.3208              3218.0454
 Red. masses --      1.0950                 1.0950                 1.0927
 Frc consts  --      6.5731                 6.6119                 6.6673
 IR Inten    --     14.3952                 2.6289                 2.5278

 - Thermochemistry -
 -------------------
 Temperature   298.150 Kelvin.  Pressure   1.00000 Atm.
 Atom     1 has atomic number  6 and mass  12.00000

 Molecular mass:   434.99839 amu.
 Principal axes and moments of inertia in atomic units:
                           1         2         3
     Eigenvalues --  8777.18318********************
           X            0.99772   0.06304   0.02416
           Y           -0.06323   0.99797   0.00739
           Z           -0.02365  -0.00890   0.99968
 This molecule is an asymmetric top.
 Rotational symmetry number  1.
 Warning -- assumption of classical behavior for rotation
           may cause significant error
 Rotational temperatures (Kelvin)      0.00987     0.00714     0.00621
 Rotational constants (GHZ):           0.20562     0.14883     0.12930
    1 imaginary frequencies ignored.
 Zero-point vibrational energy     939737.7 (Joules/Mol)
                                  224.60269 (Kcal/Mol)
 Warning -- explicit consideration of  42 degrees of freedom as
           vibrations may cause significant error
 Vibrational temperatures:     11.55    14.90    38.10    48.56    63.07
          (Kelvin)             77.52   102.33   108.90   116.38   127.43
                              132.21   145.10   155.23   163.95   168.12
                              177.42   204.78   216.59   231.21   261.83
                              300.39   306.39   318.35   362.15   376.19
                              408.24   426.81   447.53   491.26   510.63
                              530.24   555.21   573.40   580.24   604.51
                              615.07   654.37   711.01   740.30   764.99
                              785.83   865.34   902.44   947.41  1005.85
                             1023.27  1103.90  1120.35  1156.10  1162.83
                             1189.11  1231.15  1243.20  1251.93  1297.66
                             1326.79  1348.98  1383.27  1421.39  1424.04
                             1427.77  1441.68  1446.89  1449.22  1453.47
                             1496.45  1509.67  1521.22  1543.38  1583.56
                             1593.52  1613.00  1629.89  1677.15  1682.30
                             1689.06  1720.25  1732.82  1740.19  1760.64
                             1814.69  1842.33  1846.79  1898.66  1903.70
                             1914.27  1924.43  1942.62  1953.87  1965.81
                             1973.04  1995.07  2010.84  2038.05  2051.49
                             2095.63  2100.84  2116.08  2121.50  2130.99
                             2136.76  2148.60  2160.54  2166.52  2180.61
                             2242.57  2333.76  2359.83  2534.15  4215.93
                             4334.04  4375.88  4386.99  4398.88  4404.84
                             4410.03  4442.22  4463.40  4465.38  4474.67
                             4486.06  4490.61  4505.75  4506.47  4530.60
                             4542.25  4560.95  4575.98  4592.59  4605.99
                             4630.05

 Zero-point correction=                           0.357927 (Hartree/Particle)
 Thermal correction to Energy=                    0.385708
 Thermal correction to Enthalpy=                  0.386652
 Thermal correction to Gibbs Free Energy=         0.292707
 Sum of electronic and zero-point Energies=          -3531.063272
 Sum of electronic and thermal Energies=             -3531.035491
 Sum of electronic and thermal Enthalpies=           -3531.034547
 Sum of electronic and thermal Free Energies=        -3531.128492

                     E (Thermal)             CV                S
                      KCal/Mol        Cal/Mol-Kelvin    Cal/Mol-Kelvin
 Total                  242.035             97.758            197.724
 Electronic               0.000              0.000              3.561
 Translational            0.889              2.981             44.100
 Rotational               0.889              2.981             35.650
 Vibrational            240.258             91.796            114.413
 Vibration     1          0.593              1.987              8.448
 Vibration     2          0.593              1.987              7.942
 Vibration     3          0.593              1.985              6.077
 Vibration     4          0.594              1.983              5.596
 Vibration     5          0.595              1.980              5.078
 Vibration     6          0.596              1.976              4.670
 Vibration     7          0.598              1.968              4.122
 Vibration     8          0.599              1.965              4.000
 Vibration     9          0.600              1.962              3.869
 Vibration    10          0.601              1.957              3.691
 Vibration    11          0.602              1.955              3.619
 Vibration    12          0.604              1.948              3.438
 Vibration    13          0.606              1.943              3.307
 Vibration    14          0.607              1.938              3.201
 Vibration    15          0.608              1.935              3.152
 Vibration    16          0.610              1.930              3.048
 Vibration    17          0.616              1.911              2.772
 Vibration    18          0.618              1.902              2.665
 Vibration    19          0.622              1.891              2.542
 Vibration    20          0.630              1.864              2.308
 Vibration    21          0.642              1.827              2.054
 Vibration    22          0.644              1.821              2.018
 Vibration    23          0.648              1.809              1.949
 Vibration    24          0.664              1.760              1.719
 Vibration    25          0.669              1.743              1.652
 Vibration    26          0.682              1.704              1.511
 Vibration    27          0.690              1.680              1.436
 Vibration    28          0.700              1.653              1.357
 Vibration    29          0.721              1.593              1.205
 Vibration    30          0.731              1.565              1.144
 Vibration    31          0.741              1.537              1.086
 Vibration    32          0.755              1.500              1.016
 Vibration    33          0.765              1.473              0.968
 Vibration    34          0.769              1.463              0.951
 Vibration    35          0.783              1.426              0.891
 Vibration    36          0.789              1.410              0.867
 Vibration    37          0.813              1.350              0.781
 Vibration    38          0.850              1.263              0.673
 Vibration    39          0.870              1.218              0.623
 Vibration    40          0.887              1.180              0.583
 Vibration    41          0.901              1.148              0.552
 Vibration    42          0.960              1.029              0.447

                           ! Non-Optimized Parameters !
 Normal termination of Gaussian 16 at Sun Jun 20 14:08:56 2021.

 ----------------------------------------------------------------------
 #p ub3lyp jul-cc-pvdz pop=cm5 scrf=(pcm,solvent=dichloroethane) guess=
 read geom=allcheck
 ----------------------------------------------------------------------

 Structure from the checkpoint file:  "checkpoint.chk"
 -----
 title
 -----
 Charge =  0 Multiplicity = 6

 SCF Done:  E(UB3LYP) =  -3531.44355698     A.U. after   17 cycles
 Normal termination of Gaussian 16 at Sun Jun 20 14:29:18 2021.
 Gaussian 16:  ES64L-G16RevA.03 25-Dec-2016

 ----------------------------------------------------------------------
 #p ub3lyp jul-cc-pvdz pop=cm5 scrf=(pcm,solvent=water) guess=read geom
 =allcheck
 ----------------------------------------------------------------------

 Structure from the checkpoint file:  "checkpoint.chk"
 -----
 title
 -----
 Charge =  0 Multiplicity = 6

                         Standard orientation:
 ---------------------------------------------------------------------
 Center     Atomic      Atomic             Coordinates (Angstroms)
 Number     Number       Type             X           Y           Z
 ---------------------------------------------------------------------
      1          6           0        2.798935   -1.300297    0.175917
      2          6           0        1.515946   -0.918138    0.607632
      3          6           0        1.278034   -0.793645    1.985461
      4          6           0        2.295934   -1.046344    2.909654
      5          6           0        3.566666   -1.427763    2.472105
      6          6           0        3.814408   -1.550798    1.099962
      7          6           0        0.382423   -0.610832   -0.357444
      8          6           0        0.655999    0.383211   -1.572174
      9          6           0        0.338756   -0.287743   -2.918225
     10          6           0       -0.528061   -1.504194   -2.597444
     11          6           0        0.184066   -2.166483   -1.430461
     12          6           0       -0.398764   -3.132466   -0.601338
     13          6           0       -1.859511   -3.174092   -0.388233
     14          8           0       -0.763792   -0.377590    0.234493
     15         26           0       -2.262861    0.817373    0.444802
     16         17           0       -2.954185    1.390421   -1.588320
     17          6           0        0.441070   -4.030584    0.236664
     18         17           0       -1.547581    2.542270    1.613273
     19         17           0       -3.762346   -0.416469    1.518281
     20          1           0        0.295038   -0.476824    2.327877
     21          1           0        2.092508   -0.935333    3.975663
     22          1           0        4.362009   -1.623273    3.192963
     23          1           0        4.804296   -1.841336    0.745207
     24          1           0        3.025325   -1.391087   -0.885309
     25          1           0       -0.065458    1.184451   -1.383473
     26          6           0        2.034235    1.038583   -1.553727
     27          1           0       -0.161125    0.413056   -3.597574
     28          1           0        1.278120   -0.601937   -3.393279
     29          1           0       -1.543943   -1.196132   -2.323546
     30          1           0       -0.599581   -2.194243   -3.450874
     31          1           0        1.241209   -2.354400   -1.637241
     32          1           0        1.514445   -3.899535    0.071483
     33          1           0        0.210654   -3.855567    1.301804
     34          1           0        0.163805   -5.078471    0.036846
     35          1           0       -2.183481   -4.058385    0.172012
     36          1           0       -2.112912   -2.272233    0.211680
     37          1           0       -2.432601   -3.079797   -1.318695
     38          8           0        2.082846    2.012684   -0.634558
     39          8           0        2.957946    0.743460   -2.285836
     40          6           0        3.343323    2.726785   -0.502061
     41          6           0        3.159981    3.778408    0.572845
     42          1           0        4.124252    1.997663   -0.246211
     43          1           0        3.593092    3.164554   -1.477928
     44          1           0        4.097285    4.340155    0.695118
     45          1           0        2.363558    4.484073    0.300816
     46          1           0        2.901148    3.317052    1.535258
 ---------------------------------------------------------------------

 SCF Done:  E(UB3LYP) =  -3531.44756487     A.U. after   15 cycles

 The electronic state is 6-A.
 Alpha  occ. eigenvalues -- -256.20710-101.52377-101.52352-101.52233 -30.20127
 Alpha  occ. eigenvalues --  -26.05467 -26.05334 -26.05269 -19.20547 -19.17224
 Alpha  occ. eigenvalues --  -19.15528 -10.33180 -10.31860 -10.27799 -10.24924
 Alpha  occ. eigenvalues --  -10.22430 -10.22404 -10.21713 -10.20945 -10.20631
 Alpha  occ. eigenvalues --  -10.20576 -10.20508 -10.20441 -10.20414 -10.20331
 Alpha  occ. eigenvalues --  -10.20241 -10.19781 -10.18731  -9.44111  -9.44064
 Alpha  occ. eigenvalues --   -9.43965  -7.19974  -7.19933  -7.19832  -7.19661
 Alpha  occ. eigenvalues --   -7.19650  -7.19614  -7.19602  -7.19512  -7.19499
 Alpha  occ. eigenvalues --   -3.67806  -2.45359  -2.45113  -2.44979  -1.12401
 Alpha  occ. eigenvalues --   -1.06389  -1.03849  -0.88039  -0.87005  -0.83673
 Alpha  occ. eigenvalues --   -0.80355  -0.79631  -0.79538  -0.78994  -0.77911
 Alpha  occ. eigenvalues --   -0.76178  -0.75112  -0.72904  -0.70976  -0.66532
 Alpha  occ. eigenvalues --   -0.64389  -0.62277  -0.61348  -0.59494  -0.57308
 Alpha  occ. eigenvalues --   -0.56388  -0.54512  -0.52945  -0.51396  -0.50792
 Alpha  occ. eigenvalues --   -0.50023  -0.49317  -0.48896  -0.48167  -0.47991
 Alpha  occ. eigenvalues --   -0.47678  -0.47595  -0.46978  -0.46768  -0.45898
 Alpha  occ. eigenvalues --   -0.45113  -0.44686  -0.44421  -0.43425  -0.42840
 Alpha  occ. eigenvalues --   -0.42234  -0.41655  -0.41085  -0.40121  -0.39992
 Alpha  occ. eigenvalues --   -0.39616  -0.38538  -0.37808  -0.37415  -0.37263
 Alpha  occ. eigenvalues --   -0.37120  -0.36913  -0.36377  -0.35832  -0.35628
 Alpha  occ. eigenvalues --   -0.34935  -0.34440  -0.34296  -0.32138  -0.31972
 Alpha  occ. eigenvalues --   -0.31275  -0.31133  -0.30951  -0.30270  -0.30097
 Alpha  occ. eigenvalues --   -0.29945  -0.29088  -0.28741  -0.26994  -0.26263
 Alpha virt. eigenvalues --   -0.11997  -0.03776  -0.02876  -0.01643  -0.01423
 Alpha virt. eigenvalues --   -0.00243  -0.00097   0.00094   0.01423   0.01600
 Alpha virt. eigenvalues --    0.01754   0.02002   0.02322   0.03409   0.03734

  Beta  occ. eigenvalues -- -256.20525-101.52194-101.52171-101.52060 -30.11186
  Beta  occ. eigenvalues --  -25.97925 -25.97914 -25.97873 -19.20546 -19.16664
  Beta  occ. eigenvalues --  -19.15525 -10.33180 -10.31857 -10.27764 -10.24924
  Beta  occ. eigenvalues --  -10.22417 -10.22383 -10.21689 -10.20946 -10.20631
  Beta  occ. eigenvalues --  -10.20578 -10.20509 -10.20439 -10.20416 -10.20330
  Beta  occ. eigenvalues --  -10.20242 -10.19780 -10.18731  -9.43931  -9.43886
  Beta  occ. eigenvalues --   -9.43794  -7.19676  -7.19629  -7.19538  -7.19409
  Beta  occ. eigenvalues --   -7.19407  -7.19372  -7.19365  -7.19278  -7.19272
  Beta  occ. eigenvalues --   -3.46960  -2.23236  -2.23183  -2.23126  -1.12398
  Beta  occ. eigenvalues --   -1.05303  -1.03846  -0.87932  -0.86974  -0.83615
  Beta  occ. eigenvalues --   -0.79198  -0.78988  -0.78370  -0.78310  -0.77822
  Beta  occ. eigenvalues --   -0.76171  -0.75090  -0.72894  -0.70888  -0.66356
  Beta  occ. eigenvalues --   -0.64293  -0.62233  -0.61287  -0.59210  -0.57028
  Beta  occ. eigenvalues --   -0.56046  -0.54373  -0.52008  -0.51364  -0.50425
  Beta  occ. eigenvalues --   -0.49946  -0.48837  -0.48474  -0.47043  -0.46787
  Beta  occ. eigenvalues --   -0.45692  -0.44718  -0.44437  -0.43438  -0.42841
  Beta  occ. eigenvalues --   -0.42200  -0.41716  -0.41035  -0.40107  -0.39995
  Beta  occ. eigenvalues --   -0.39570  -0.38557  -0.38211  -0.37390  -0.37274
  Beta  occ. eigenvalues --   -0.37138  -0.36944  -0.36379  -0.36023  -0.35922
  Beta  occ. eigenvalues --   -0.35819  -0.35669  -0.34774  -0.33284  -0.33229
  Beta  occ. eigenvalues --   -0.32630  -0.32193  -0.32086  -0.31829  -0.30332
  Beta  occ. eigenvalues --   -0.29765  -0.29116  -0.28704  -0.27001  -0.26209
  Beta virt. eigenvalues --   -0.14681  -0.14352  -0.13461  -0.13292  -0.12614
  Beta virt. eigenvalues --   -0.11026  -0.03725  -0.02855  -0.01542  -0.01355
  Beta virt. eigenvalues --   -0.00199  -0.00072   0.00126   0.01435   0.01629

 Mulliken charges and spin densities:
               1          2
     1  C   -0.269324  -0.000562
     2  C    2.695226  -0.001105
     3  C   -0.719801  -0.004199
     4  C   -0.027305   0.003400
     5  C    0.258969  -0.002219
     6  C   -0.045569   0.002932
     7  C   -1.742459   0.022611
     8  C    1.176038  -0.005662
     9  C    0.592458   0.000845
    10  C    0.687114  -0.001335
    11  C    0.487270   0.009366
    12  C   -0.346482   0.025382
    13  C    0.073610  -0.003884
    14  O   -0.604946   0.167701
    15  Fe   0.616643   4.056520
    16  Cl  -0.511201   0.239220
    17  C    0.303906  -0.001311
    18  Cl  -0.467235   0.249013
    19  Cl  -0.501267   0.237520
    20  H   -0.206001   0.000740
    21  H   -0.155536  -0.000013
    22  H   -0.164870   0.000036
    23  H   -0.160815   0.000182
    24  H   -0.201752  -0.000086
    25  H   -0.241919   0.001114
    26  C    0.642099  -0.002878
    27  H   -0.135985   0.000210
    28  H   -0.093646   0.000023
    29  H   -0.038759  -0.000268
    30  H   -0.142121   0.000279
    31  H   -0.224232  -0.000647
    32  H    0.014461   0.000047
    33  H    0.090584   0.001852
    34  H    0.018639   0.001317
    35  H   -0.013596   0.000027
    36  H    0.153692   0.003296
    37  H    0.057177   0.000615
    38  O   -0.708945  -0.001006
    39  O   -0.621025   0.000870
    40  C    0.450719  -0.000084
    41  C    0.074881   0.000108
    42  H   -0.036987  -0.000001
    43  H   -0.046166   0.000003
    44  H   -0.006700  -0.000009
    45  H    0.020952   0.000013
    46  H    0.020208   0.000026
 Sum of Mulliken charges =  -0.00000   5.00000

 Dipole moment (field-independent basis, Debye):
    X=              8.9955    Y=            -10.8087    Z=             -1.8610  Tot=             14.1849
 Quadrupole moment (field-independent basis, Debye-Ang):
   XX=           -193.9895   YY=           -151.0745   ZZ=           -178.3094
   XY=             13.2587   XZ=             16.1154   YZ=              1.5160

 Normal termination of Gaussian 16 at Sun Jun 20 14:47:05 2021.
