 Gaussian 16, Revision A.03,

 -----------------------------------------------------------
 #p opt=modredundant freq=noraman ub3lyp jul-cc-pvdz pop=cm5
 -----------------------------------------------------------

 -----
 title
 -----
 Symbolic Z-matrix:
 Charge =  0 Multiplicity = 6

 SCF Done:  E(UB3LYP) =  -3531.39397450     A.U. after   26 cycles
 SCF Done:  E(UB3LYP) =  -3531.39321641     A.U. after   19 cycles
 SCF Done:  E(UB3LYP) =  -3531.39023670     A.U. after   19 cycles
 SCF Done:  E(UB3LYP) =  -3531.38906597     A.U. after   16 cycles
 SCF Done:  E(UB3LYP) =  -3531.39410908     A.U. after   15 cycles
 SCF Done:  E(UB3LYP) =  -3531.39378512     A.U. after   18 cycles
 SCF Done:  E(UB3LYP) =  -3531.39434571     A.U. after   18 cycles
 SCF Done:  E(UB3LYP) =  -3531.39416240     A.U. after   16 cycles
 SCF Done:  E(UB3LYP) =  -3531.39398754     A.U. after   16 cycles
 SCF Done:  E(UB3LYP) =  -3531.39372945     A.U. after   14 cycles
 SCF Done:  E(UB3LYP) =  -3531.39455946     A.U. after   14 cycles
 SCF Done:  E(UB3LYP) =  -3531.39458531     A.U. after   13 cycles
 SCF Done:  E(UB3LYP) =  -3531.39458953     A.U. after   13 cycles
 SCF Done:  E(UB3LYP) =  -3531.39459079     A.U. after   13 cycles
 SCF Done:  E(UB3LYP) =  -3531.39459101     A.U. after   11 cycles
 SCF Done:  E(UB3LYP) =  -3531.39459158     A.U. after   10 cycles
 SCF Done:  E(UB3LYP) =  -3531.39459177     A.U. after   11 cycles
 Optimization completed.
    -- Stationary point found.
 Normal termination of Gaussian 16 at Sun Jun 20 05:32:09 2021.

 ----------------------------------------------------------------------
 #P Geom=AllCheck Guess=TCheck SCRF=Check GenChk UB3LYP/Jul-CC-pVDZ Fre
 q
 ----------------------------------------------------------------------

 Structure from the checkpoint file:  "checkpoint.chk"
 -----
 title
 -----
 Charge =  0 Multiplicity = 6

 SCF Done:  E(UB3LYP) =  -3531.39459177     A.U. after    1 cycles

  Exact polarizability: 330.094  10.823 290.024  18.014  15.158 301.149
 Approx polarizability: 512.742  30.111 439.748  23.995  34.380 503.804

 ******    1 imaginary frequencies (negative Signs) ******

                      1                      2                      3
                      A                      A                      A
 Frequencies --   -672.2861                18.6902                25.4152
 Red. masses --     10.4040                 4.4001                 8.7005
 Frc consts  --      2.7705                 0.0009                 0.0033
 IR Inten    --    256.6184                 1.2134                 0.3349

                      4                      5                      6
                      A                      A                      A
 Frequencies --     39.7839                49.8676                53.7417
 Red. masses --      5.1653                 6.2504                 3.0470
 Frc consts  --      0.0048                 0.0092                 0.0052
 IR Inten    --      0.7325                 0.5721                 0.2359

                      7                      8                      9
                      A                      A                      A
 Frequencies --     56.7410                66.2611                69.7253
 Red. masses --      4.5715                 6.0620                 5.4254
 Frc consts  --      0.0087                 0.0157                 0.0155
 IR Inten    --      2.2227                 1.1750                 2.8174

                     10                     11                     12
                      A                      A                      A
 Frequencies --     83.5873                95.2388               104.3120
 Red. masses --     11.8864                 6.4340                 8.9208
 Frc consts  --      0.0489                 0.0344                 0.0572
 IR Inten    --      0.9797                 1.0335                 0.9474

                     13                     14                     15
                      A                      A                      A
 Frequencies --    112.4368               115.0001               119.7181
 Red. masses --     10.4992                 3.1963                16.3293
 Frc consts  --      0.0782                 0.0249                 0.1379
 IR Inten    --      6.7800                 0.0978                 1.6014

                     16                     17                     18
                      A                      A                      A
 Frequencies --    130.8716               148.9718               174.4095
 Red. masses --      6.8130                 4.6160                 2.7477
 Frc consts  --      0.0688                 0.0604                 0.0492
 IR Inten    --      4.2022                 2.7944                 2.5174

                     19                     20                     21
                      A                      A                      A
 Frequencies --    192.5138               200.0002               205.8867
 Red. masses --      2.5806                 2.9123                 1.9744
 Frc consts  --      0.0564                 0.0686                 0.0493
 IR Inten    --      7.1729                 1.4028                 3.2149

                     22                     23                     24
                      A                      A                      A
 Frequencies --    211.5766               224.0977               242.3332
 Red. masses --      1.6969                 3.5107                 2.7206
 Frc consts  --      0.0448                 0.1039                 0.0941
 IR Inten    --      0.9610                 4.3599                23.4537

                     25                     26                     27
                      A                      A                      A
 Frequencies --    243.8804               261.3351               290.4760
 Red. masses --      1.3047                 1.7822                 4.3722
 Frc consts  --      0.0457                 0.0717                 0.2174
 IR Inten    --     16.0031                 6.6137                18.0102

                     28                     29                     30
                      A                      A                      A
 Frequencies --    302.1053               317.9299               335.9352
 Red. masses --      4.8308                 2.2633                23.2796
 Frc consts  --      0.2598                 0.1348                 1.5479
 IR Inten    --     51.2115                 7.5421                32.4505

                     31                     32                     33
                      A                      A                      A
 Frequencies --    358.8198               379.5209               381.7732
 Red. masses --      5.5512                 5.1323                14.1812
 Frc consts  --      0.4211                 0.4355                 1.2178
 IR Inten    --      1.2955                17.5340                73.6848

                     34                     35                     36
                      A                      A                      A
 Frequencies --    394.5237               402.6550               410.0809
 Red. masses --     19.5117                 3.2571                 3.1424
 Frc consts  --      1.7893                 0.3111                 0.3113
 IR Inten    --     74.5942                14.4840                23.7366

                     37                     38                     39
                      A                      A                      A
 Frequencies --    417.6992               440.7218               463.9728
 Red. masses --      3.0444                 4.2623                 3.7364
 Frc consts  --      0.3129                 0.4878                 0.4739
 IR Inten    --     13.4072                14.7275                 2.9248

                     40                     41                     42
                      A                      A                      A
 Frequencies --    503.0585               514.7903               570.8639
 Red. masses --      2.6603                 3.1761                 3.2464
 Frc consts  --      0.3967                 0.4959                 0.6233
 IR Inten    --      2.4717                 3.2106                40.4283

                     43                     44                     45
                      A                      A                      A
 Frequencies --    600.9972               626.7847               645.3916
 Red. masses --      3.5381                 6.2346                 4.5357
 Frc consts  --      0.7529                 1.4431                 1.1131
 IR Inten    --     28.5278                 2.2935                51.0979

                     46                     47                     48
                      A                      A                      A
 Frequencies --    696.4053               702.5032               760.6245
 Red. masses --      2.3276                 2.5970                 3.6468
 Frc consts  --      0.6651                 0.7551                 1.2431
 IR Inten    --     13.7048                61.0262                12.2614

                     49                     50                     51
                      A                      A                      A
 Frequencies --    767.6855               788.5949               803.7264
 Red. masses --      2.8057                 2.5134                 1.2542
 Frc consts  --      0.9742                 0.9209                 0.4774
 IR Inten    --      1.9208                 0.9516                 4.0595

                     52                     53                     54
                      A                      A                      A
 Frequencies --    825.1739               842.5853               859.7863
 Red. masses --      3.6952                 1.2550                 2.0321
 Frc consts  --      1.4825                 0.5250                 0.8851
 IR Inten    --     14.6206                 0.4084                 5.9083

                     55                     56                     57
                      A                      A                      A
 Frequencies --    868.4858               877.7513               896.5546
 Red. masses --      1.9154                 1.4769                 1.5297
 Frc consts  --      0.8512                 0.6704                 0.7244
 IR Inten    --     28.7552                 4.0421                18.0800

                     58                     59                     60
                      A                      A                      A
 Frequencies --    925.4103               935.8776               959.5107
 Red. masses --      1.8688                 1.4494                 2.8290
 Frc consts  --      0.9429                 0.7480                 1.5346
 IR Inten    --      4.5967                 2.5507                43.1313

                     61                     62                     63
                      A                      A                      A
 Frequencies --    984.0062               985.1067               994.4428
 Red. masses --      1.8277                 1.5509                 2.8796
 Frc consts  --      1.0427                 0.8868                 1.6778
 IR Inten    --     20.6245                 4.8672                15.2922

                     64                     65                     66
                      A                      A                      A
 Frequencies --   1000.3410              1005.7597              1014.0301
 Red. masses --      1.7940                 2.4314                 1.4371
 Frc consts  --      1.0577                 1.4491                 0.8707
 IR Inten    --      1.9074                 1.8807                 7.5111

                     67                     68                     69
                      A                      A                      A
 Frequencies --   1021.1969              1042.4356              1043.8439
 Red. masses --      2.1608                 2.5472                 2.7699
 Frc consts  --      1.3276                 1.6309                 1.7782
 IR Inten    --    103.5121                21.6445                 7.2970

                     70                     71                     72
                      A                      A                      A
 Frequencies --   1063.8981              1078.9114              1096.8542
 Red. masses --      2.1500                 2.1441                 1.9885
 Frc consts  --      1.4338                 1.4705                 1.4095
 IR Inten    --      2.9532                15.1741                56.0174

                     73                     74                     75
                      A                      A                      A
 Frequencies --   1121.5069              1133.1898              1134.4114
 Red. masses --      2.1869                 2.1449                 2.2782
 Frc consts  --      1.6206                 1.6228                 1.7274
 IR Inten    --     19.0984                 4.1271                24.1614

                     76                     77                     78
                      A                      A                      A
 Frequencies --   1161.0755              1170.9340              1175.4385
 Red. masses --      1.6420                 1.5733                 1.0867
 Frc consts  --      1.3042                 1.2710                 0.8846
 IR Inten    --     41.4727                 2.6897                 0.5176

                     79                     80                     81
                      A                      A                      A
 Frequencies --   1202.9871              1209.6011              1229.2753
 Red. masses --      1.1974                 1.4307                 2.4698
 Frc consts  --      1.0210                 1.2333                 2.1990
 IR Inten    --     14.0066                41.4156               222.2848

                     82                     83                     84
                      A                      A                      A
 Frequencies --   1249.5315              1264.5030              1286.3679
 Red. masses --      1.8803                 2.5388                 1.1243
 Frc consts  --      1.7297                 2.3918                 1.0961
 IR Inten    --     39.1043               110.8745                 2.7451

                     85                     86                     87
                      A                      A                      A
 Frequencies --   1316.1789              1319.7122              1327.1520
 Red. masses --      1.3869                 1.4826                 1.7147
 Frc consts  --      1.4156                 1.5213                 1.7794
 IR Inten    --     13.6611                41.2235                25.3885

                     88                     89                     90
                      A                      A                      A
 Frequencies --   1332.7078              1350.2991              1359.8708
 Red. masses --      1.7453                 1.6545                 2.3381
 Frc consts  --      1.8264                 1.7774                 2.5474
 IR Inten    --     36.1833               107.4690                14.7608

                     91                     92                     93
                      A                      A                      A
 Frequencies --   1362.5899              1385.5382              1388.2335
 Red. masses --      1.7071                 1.4396                 1.3447
 Frc consts  --      1.8674                 1.6283                 1.5268
 IR Inten    --     15.7549                37.2242                46.2712

                     94                     95                     96
                      A                      A                      A
 Frequencies --   1398.9145              1416.3974              1425.2913
 Red. masses --      1.2712                 1.4309                 1.4654
 Frc consts  --      1.4657                 1.6914                 1.7540
 IR Inten    --     48.1627                 5.4471                59.6903

                     97                     98                     99
                      A                      A                      A
 Frequencies --   1447.0218              1468.2128              1473.5621
 Red. masses --      1.1157                 2.0480                 1.0384
 Frc consts  --      1.3764                 2.6010                 1.3285
 IR Inten    --      0.4853                11.2269                 5.5624

                    100                    101                    102
                      A                      A                      A
 Frequencies --   1474.9295              1480.0560              1487.0607
 Red. masses --      1.1680                 1.3702                 1.1027
 Frc consts  --      1.4971                 1.7684                 1.4367
 IR Inten    --     12.0521                50.1502                 2.1224

                    103                    104                    105
                      A                      A                      A
 Frequencies --   1488.6103              1497.7785              1507.4645
 Red. masses --      1.0538                 1.1239                 1.0845
 Frc consts  --      1.3758                 1.4855                 1.4520
 IR Inten    --      4.3431                 7.3713                 6.5795

                    106                    107                    108
                      A                      A                      A
 Frequencies --   1511.2100              1516.9654              1615.4442
 Red. masses --      1.1200                 2.0609                 5.4801
 Frc consts  --      1.5070                 2.7942                 8.4261
 IR Inten    --      3.8066                 0.6538                 0.3229

                    109                    110                    111
                      A                      A                      A
 Frequencies --   1639.3855              1762.8857              3004.7671
 Red. masses --      5.6244                11.6786                 1.0507
 Frc consts  --      8.9061                21.3840                 5.5893
 IR Inten    --     13.8891               241.7835                 1.0162

                    112                    113                    114
                      A                      A                      A
 Frequencies --   3013.1045              3041.3086              3052.3418
 Red. masses --      1.0507                 1.0361                 1.0617
 Frc consts  --      5.6202                 5.6466                 5.8281
 IR Inten    --      7.2967                19.6945                26.5809

                    115                    116                    117
                      A                      A                      A
 Frequencies --   3059.2915              3066.8226              3069.8535
 Red. masses --      1.0596                 1.0737                 1.0723
 Frc consts  --      5.8429                 5.9501                 5.9540
 IR Inten    --     16.2717                15.8870                12.9663

                    118                    119                    120
                      A                      A                      A
 Frequencies --   3093.9081              3102.6411              3108.3172
 Red. masses --      1.1029                 1.0817                 1.1054
 Frc consts  --      6.2199                 6.1353                 6.2926
 IR Inten    --      8.0793                 2.1404                 9.8235

                    121                    122                    123
                      A                      A                      A
 Frequencies --   3116.8456              3116.9886              3120.0174
 Red. masses --      1.0994                 1.1008                 1.0846
 Frc consts  --      6.2926                 6.3010                 6.2208
 IR Inten    --      6.2496                23.0195                 7.4077

                    124                    125                    126
                      A                      A                      A
 Frequencies --   3139.8070              3158.6124              3160.9184
 Red. masses --      1.1043                 1.1047                 1.0905
 Frc consts  --      6.4140                 6.4939                 6.4197
 IR Inten    --     13.6391                 1.1615                 4.3029

                    127                    128                    129
                      A                      A                      A
 Frequencies --   3172.1321              3172.7349              3184.1370
 Red. masses --      1.0857                 1.1049                 1.0910
 Frc consts  --      6.4370                 6.5528                 6.5170
 IR Inten    --      0.1936                 2.5626                 7.8886

                    130                    131                    132
                      A                      A                      A
 Frequencies --   3194.9223              3222.9686              3233.8496
 Red. masses --      1.0969                 1.0922                 1.0918
 Frc consts  --      6.5968                 6.6845                 6.7269
 IR Inten    --     16.1554                 1.9689                 1.3468

 - Thermochemistry -
 -------------------
 Temperature   298.150 Kelvin.  Pressure   1.00000 Atm.
 Atom     1 has atomic number  6 and mass  12.00000

 Molecular mass:   434.99839 amu.
 Principal axes and moments of inertia in atomic units:
                           1         2         3
     Eigenvalues --  8976.67183********************
           X            0.99801   0.05905   0.02206
           Y           -0.05954   0.99798   0.02219
           Z           -0.02071  -0.02346   0.99951
 This molecule is an asymmetric top.
 Rotational symmetry number  1.
 Warning -- assumption of classical behavior for rotation
           may cause significant error
 Rotational temperatures (Kelvin)      0.00965     0.00789     0.00696
 Rotational constants (GHZ):           0.20105     0.16446     0.14505
    1 imaginary frequencies ignored.
 Zero-point vibrational energy     939933.3 (Joules/Mol)
                                  224.64946 (Kcal/Mol)
 Warning -- explicit consideration of  42 degrees of freedom as
           vibrations may cause significant error
 Vibrational temperatures:     26.89    36.57    57.24    71.75    77.32
          (Kelvin)             81.64    95.33   100.32   120.26   137.03
                              150.08   161.77   165.46   172.25   188.30
                              214.34   250.94   276.98   287.76   296.23
                              304.41   322.43   348.66   350.89   376.00
                              417.93   434.66   457.43   483.34   516.26
                              546.05   549.29   567.63   579.33   590.02
                              600.98   634.10   667.55   723.79   740.67
                              821.35   864.70   901.80   928.57  1001.97
                             1010.75  1094.37  1104.53  1134.61  1156.38
                             1187.24  1212.29  1237.04  1249.56  1262.89
                             1289.94  1331.46  1346.52  1380.52  1415.77
                             1417.35  1430.78  1439.27  1447.06  1458.96
                             1469.27  1499.83  1501.86  1530.71  1552.31
                             1578.13  1613.60  1630.41  1632.16  1670.53
                             1684.71  1691.19  1730.83  1740.35  1768.65
                             1797.80  1819.34  1850.80  1893.69  1898.77
                             1909.48  1917.47  1942.78  1956.55  1960.46
                             1993.48  1997.36  2012.73  2037.88  2050.68
                             2081.94  2112.43  2120.13  2122.09  2129.47
                             2139.55  2141.78  2154.97  2168.91  2174.29
                             2182.57  2324.26  2358.71  2536.40  4323.19
                             4335.19  4375.76  4391.64  4401.64  4412.47
                             4416.83  4451.44  4464.01  4472.18  4484.45
                             4484.65  4489.01  4517.48  4544.54  4547.86
                             4563.99  4564.86  4581.26  4596.78  4637.13
                             4652.79

 Zero-point correction=                           0.358002 (Hartree/Particle)
 Thermal correction to Energy=                    0.385333
 Thermal correction to Enthalpy=                  0.386277
 Thermal correction to Gibbs Free Energy=         0.296286
 Sum of electronic and zero-point Energies=          -3531.036590
 Sum of electronic and thermal Energies=             -3531.009259
 Sum of electronic and thermal Enthalpies=           -3531.008315
 Sum of electronic and thermal Free Energies=        -3531.098305

                     E (Thermal)             CV                S
                      KCal/Mol        Cal/Mol-Kelvin    Cal/Mol-Kelvin
 Total                  241.800             98.035            189.401
 Electronic               0.000              0.000              3.561
 Translational            0.889              2.981             44.100
 Rotational               0.889              2.981             35.459
 Vibrational            240.022             92.073            106.281
 Vibration     1          0.593              1.986              6.769
 Vibration     2          0.593              1.985              6.159
 Vibration     3          0.594              1.981              5.270
 Vibration     4          0.595              1.978              4.823
 Vibration     5          0.596              1.976              4.675
 Vibration     6          0.596              1.975              4.567
 Vibration     7          0.598              1.970              4.261
 Vibration     8          0.598              1.969              4.161
 Vibration     9          0.600              1.960              3.805
 Vibration    10          0.603              1.953              3.549
 Vibration    11          0.605              1.946              3.372
 Vibration    12          0.607              1.939              3.226
 Vibration    13          0.608              1.937              3.183
 Vibration    14          0.609              1.933              3.105
 Vibration    15          0.612              1.922              2.933
 Vibration    16          0.618              1.904              2.685
 Vibration    17          0.627              1.874              2.387
 Vibration    18          0.634              1.850              2.203
 Vibration    19          0.638              1.840              2.133
 Vibration    20          0.640              1.831              2.080
 Vibration    21          0.643              1.823              2.030
 Vibration    22          0.649              1.804              1.926
 Vibration    23          0.659              1.775              1.786
 Vibration    24          0.659              1.773              1.774
 Vibration    25          0.669              1.744              1.653
 Vibration    26          0.686              1.691              1.471
 Vibration    27          0.694              1.670              1.405
 Vibration    28          0.704              1.639              1.321
 Vibration    29          0.717              1.604              1.231
 Vibration    30          0.734              1.557              1.127
 Vibration    31          0.750              1.514              1.041
 Vibration    32          0.751              1.509              1.032
 Vibration    33          0.761              1.482              0.983
 Vibration    34          0.768              1.464              0.953
 Vibration    35          0.774              1.448              0.926
 Vibration    36          0.781              1.432              0.900
 Vibration    37          0.801              1.381              0.824
 Vibration    38          0.822              1.330              0.755
 Vibration    39          0.858              1.243              0.651
 Vibration    40          0.870              1.217              0.622
 Vibration    41          0.927              1.094              0.503
 Vibration    42          0.959              1.030              0.448

                           ! Non-Optimized Parameters !
 Normal termination of Gaussian 16 at Sun Jun 20 09:34:22 2021.

 ----------------------------------------------------------------------
 #p ub3lyp jul-cc-pvdz pop=cm5 scrf=(pcm,solvent=dichloroethane) guess=
 read geom=allcheck
 ----------------------------------------------------------------------

 Structure from the checkpoint file:  "checkpoint.chk"
 -----
 title
 -----
 Charge =  0 Multiplicity = 6

 SCF Done:  E(UB3LYP) =  -3531.41575394     A.U. after   20 cycles
 Normal termination of Gaussian 16 at Sun Jun 20 10:02:57 2021.
 Gaussian 16:  ES64L-G16RevA.03 25-Dec-2016

 ----------------------------------------------------------------------
 #p ub3lyp jul-cc-pvdz pop=cm5 scrf=(pcm,solvent=water) guess=read geom
 =allcheck
 ----------------------------------------------------------------------

 Structure from the checkpoint file:  "checkpoint.chk"
 -----
 title
 -----
 Charge =  0 Multiplicity = 6

                         Standard orientation:
 ---------------------------------------------------------------------
 Center     Atomic      Atomic             Coordinates (Angstroms)
 Number     Number       Type             X           Y           Z
 ---------------------------------------------------------------------
      1          6           0        3.069265   -0.967387    0.554378
      2          6           0        1.676099   -0.885229    0.767537
      3          6           0        1.198868   -0.870247    2.092362
      4          6           0        2.086186   -0.925770    3.169516
      5          6           0        3.461869   -1.011926    2.945255
      6          6           0        3.949037   -1.032119    1.631659
      7          6           0        0.719047   -0.838695   -0.369779
      8          6           0        1.073609   -0.066108   -1.667852
      9          6           0        1.713227   -1.014632   -2.696295
     10          6           0        0.904327   -2.327253   -2.670672
     11          6           0        0.579703   -2.640551   -1.226454
     12          6           0       -0.774055   -2.650452   -0.691389
     13          6           0       -1.971061   -2.470568   -1.562211
     14          8           0       -0.628336   -0.784495    0.013573
     15         26           0       -1.963947    0.570504    0.402702
     16         17           0       -2.485967    1.493019   -1.549080
     17          6           0       -0.992678   -3.346659    0.608504
     18         17           0       -1.258064    1.991961    1.935193
     19         17           0       -3.638543   -0.663180    1.208018
     20          1           0        0.131797   -0.783854    2.277566
     21          1           0        1.696048   -0.894751    4.187532
     22          1           0        4.154520   -1.057760    3.787080
     23          1           0        5.022252   -1.092166    1.446381
     24          1           0        3.473839   -0.972015   -0.454693
     25          1           0        0.108507    0.291901   -2.050625
     26          6           0        1.933286    1.177244   -1.429708
     27          1           0        1.720549   -0.553613   -3.693045
     28          1           0        2.761917   -1.198703   -2.431955
     29          1           0       -0.007758   -2.210607   -3.269741
     30          1           0        1.480245   -3.143670   -3.128581
     31          1           0        1.281181   -3.281773   -0.690522
     32          1           0       -1.153134   -4.411985    0.361495
     33          1           0       -0.114277   -3.287769    1.260549
     34          1           0       -1.885222   -2.975609    1.123187
     35          1           0       -2.125136   -3.437305   -2.075699
     36          1           0       -2.865350   -2.245786   -0.972416
     37          1           0       -1.836375   -1.703757   -2.329689
     38          8           0        1.210686    2.154712   -0.870672
     39          8           0        3.106328    1.270516   -1.729017
     40          6           0        1.903029    3.408584   -0.593411
     41          6           0        0.857222    4.454409   -0.267636
     42          1           0        2.590842    3.230277    0.244914
     43          1           0        2.500304    3.669991   -1.476059
     44          1           0        1.360539    5.405714   -0.041102
     45          1           0        0.182391    4.612135   -1.119976
     46          1           0        0.257401    4.155678    0.600995
 ---------------------------------------------------------------------

 SCF Done:  E(UB3LYP) =  -3531.41991104     A.U. after   17 cycles

 The electronic state is 6-A.
 Alpha  occ. eigenvalues -- -256.20140-101.52079-101.52007-101.51992 -30.19497
 Alpha  occ. eigenvalues --  -26.04800 -26.04738 -26.04666 -19.20398 -19.17451
 Alpha  occ. eigenvalues --  -19.15360 -10.33150 -10.31167 -10.30626 -10.24795
 Alpha  occ. eigenvalues --  -10.22323 -10.22310 -10.21907 -10.20742 -10.20701
 Alpha  occ. eigenvalues --  -10.20627 -10.20581 -10.20568 -10.20472 -10.20375
 Alpha  occ. eigenvalues --  -10.20152 -10.20115 -10.18452  -9.43810  -9.43726
 Alpha  occ. eigenvalues --   -9.43707  -7.19671  -7.19590  -7.19571  -7.19358
 Alpha  occ. eigenvalues --   -7.19352  -7.19271  -7.19265  -7.19255  -7.19249
 Alpha  occ. eigenvalues --   -3.67194  -2.44708  -2.44510  -2.44418  -1.12259
 Alpha  occ. eigenvalues --   -1.04413  -1.03747  -0.87653  -0.86504  -0.83882
 Alpha  occ. eigenvalues --   -0.80061  -0.79353  -0.79252  -0.78681  -0.78068
 Alpha  occ. eigenvalues --   -0.76309  -0.74963  -0.72970  -0.70857  -0.66549
 Alpha  occ. eigenvalues --   -0.64446  -0.62122  -0.61410  -0.59246  -0.57007
 Alpha  occ. eigenvalues --   -0.55768  -0.54290  -0.52577  -0.51315  -0.50706
 Alpha  occ. eigenvalues --   -0.49951  -0.49497  -0.48652  -0.47845  -0.47692
 Alpha  occ. eigenvalues --   -0.47555  -0.47254  -0.46738  -0.46443  -0.45953
 Alpha  occ. eigenvalues --   -0.44618  -0.44497  -0.43679  -0.43338  -0.42809
 Alpha  occ. eigenvalues --   -0.42434  -0.41408  -0.40809  -0.40022  -0.39870
 Alpha  occ. eigenvalues --   -0.39538  -0.38784  -0.38335  -0.37662  -0.37139
 Alpha  occ. eigenvalues --   -0.36852  -0.36632  -0.36088  -0.35924  -0.35657
 Alpha  occ. eigenvalues --   -0.34427  -0.34230  -0.33688  -0.32165  -0.31900
 Alpha  occ. eigenvalues --   -0.30966  -0.30902  -0.30572  -0.30555  -0.29846
 Alpha  occ. eigenvalues --   -0.29510  -0.29271  -0.28538  -0.27073  -0.24412
 Alpha virt. eigenvalues --   -0.11143  -0.03032  -0.02928  -0.01531  -0.01312
 Alpha virt. eigenvalues --   -0.00131  -0.00014   0.00054   0.01468   0.01654
 Alpha virt. eigenvalues --    0.01817   0.01949   0.02524   0.03313   0.03404

  Beta  occ. eigenvalues -- -256.19954-101.51899-101.51836-101.51819 -30.10597
  Beta  occ. eigenvalues --  -25.97360 -25.97295 -25.97292 -19.20397 -19.16860
  Beta  occ. eigenvalues --  -19.15357 -10.33151 -10.31165 -10.30642 -10.24795
  Beta  occ. eigenvalues --  -10.22313 -10.22225 -10.21896 -10.20740 -10.20700
  Beta  occ. eigenvalues --  -10.20628 -10.20578 -10.20565 -10.20471 -10.20375
  Beta  occ. eigenvalues --  -10.20155 -10.20110 -10.18451  -9.43633  -9.43558
  Beta  occ. eigenvalues --   -9.43537  -7.19381  -7.19300  -7.19282  -7.19114
  Beta  occ. eigenvalues --   -7.19105  -7.19045  -7.19039  -7.19024  -7.19017
  Beta  occ. eigenvalues --   -3.46427  -2.22741  -2.22652  -2.22575  -1.12256
  Beta  occ. eigenvalues --   -1.03743  -1.03284  -0.87594  -0.86371  -0.83848
  Beta  occ. eigenvalues --   -0.78930  -0.78692  -0.78134  -0.78055  -0.77958
  Beta  occ. eigenvalues --   -0.76303  -0.74912  -0.72955  -0.70695  -0.66456
  Beta  occ. eigenvalues --   -0.64409  -0.62087  -0.61376  -0.59013  -0.56840
  Beta  occ. eigenvalues --   -0.55385  -0.54212  -0.51783  -0.51271  -0.50156
  Beta  occ. eigenvalues --   -0.49906  -0.48776  -0.48048  -0.47692  -0.46867
  Beta  occ. eigenvalues --   -0.45642  -0.44662  -0.43643  -0.43355  -0.42852
  Beta  occ. eigenvalues --   -0.42363  -0.41413  -0.40763  -0.40022  -0.39866
  Beta  occ. eigenvalues --   -0.39509  -0.38776  -0.38056  -0.37773  -0.37482
  Beta  occ. eigenvalues --   -0.36915  -0.36637  -0.36027  -0.35958  -0.35715
  Beta  occ. eigenvalues --   -0.35612  -0.35577  -0.34359  -0.33150  -0.32846
  Beta  occ. eigenvalues --   -0.32377  -0.32247  -0.31818  -0.31010  -0.30325
  Beta  occ. eigenvalues --   -0.29487  -0.29326  -0.28745  -0.27064  -0.24621
  Beta virt. eigenvalues --   -0.14272  -0.13758  -0.12975  -0.12760  -0.12211
  Beta virt. eigenvalues --   -0.10792  -0.02952  -0.02865  -0.01471  -0.01237
  Beta virt. eigenvalues --   -0.00087   0.00023   0.00080   0.01499   0.01671

 Mulliken charges and spin densities:
               1          2
     1  C    0.095633   0.002965
     2  C    2.740738  -0.008870
     3  C   -0.397346  -0.010020
     4  C    0.057808   0.003716
     5  C    0.260512   0.001857
     6  C   -0.088355  -0.000395
     7  C   -2.030335   0.002728
     8  C    0.379237   0.010451
     9  C    0.490889   0.004182
    10  C    0.592717  -0.003906
    11  C    0.744210   0.062515
    12  C   -0.669485  -0.015229
    13  C    0.351684   0.001010
    14  O   -0.520667   0.184883
    15  Fe   0.677372   4.052885
    16  Cl  -0.541916   0.229136
    17  C    0.369060  -0.001004
    18  Cl  -0.494013   0.244846
    19  Cl  -0.528455   0.232413
    20  H   -0.260005   0.001969
    21  H   -0.160669   0.000002
    22  H   -0.159678  -0.000024
    23  H   -0.157674   0.000143
    24  H   -0.241296  -0.000084
    25  H   -0.193411  -0.000360
    26  C    0.836767   0.001004
    27  H   -0.129579   0.000281
    28  H   -0.020151   0.000024
    29  H   -0.078519   0.000208
    30  H   -0.111322   0.001592
    31  H   -0.256989  -0.000909
    32  H    0.046818   0.000980
    33  H    0.052987  -0.000120
    34  H    0.037406  -0.000534
    35  H    0.037456  -0.000413
    36  H    0.031764  -0.000021
    37  H    0.078501  -0.000675
    38  O   -0.669371   0.002228
    39  O   -0.620458   0.001107
    40  C    0.438195   0.000887
    41  C    0.037624  -0.001283
    42  H   -0.035706   0.000049
    43  H   -0.036644   0.000043
    44  H   -0.007955   0.000041
    45  H    0.024376   0.000039
    46  H    0.028247  -0.000339
 Sum of Mulliken charges =  -0.00000   5.00000

 Dipole moment (field-independent basis, Debye):
    X=              6.9789    Y=             -9.8382    Z=             -3.0002  Tot=             12.4297
 Quadrupole moment (field-independent basis, Debye-Ang):
   XX=           -198.2522   YY=           -152.1489   ZZ=           -171.7089
   XY=              8.2149   XZ=             13.3226   YZ=              6.0629

 Normal termination of Gaussian 16 at Sun Jun 20 10:27:08 2021.
