 Gaussian 16, Revision A.03,

 -----------------------------------------------------------
 #p opt=modredundant freq=noraman ub3lyp jul-cc-pvdz pop=cm5
 -----------------------------------------------------------

 -----
 title
 -----
 Symbolic Z-matrix:
 Charge =  0 Multiplicity = 6

 SCF Done:  E(UB3LYP) =  -3531.45220160     A.U. after   24 cycles
 SCF Done:  E(UB3LYP) =  -3531.45249055     A.U. after   17 cycles
 SCF Done:  E(UB3LYP) =  -3531.45131374     A.U. after   17 cycles
 SCF Done:  E(UB3LYP) =  -3531.45279414     A.U. after   14 cycles
 SCF Done:  E(UB3LYP) =  -3531.45267935     A.U. after   14 cycles
 SCF Done:  E(UB3LYP) =  -3531.45280572     A.U. after   15 cycles
 SCF Done:  E(UB3LYP) =  -3531.45283212     A.U. after   15 cycles
 SCF Done:  E(UB3LYP) =  -3531.45284943     A.U. after   13 cycles
 SCF Done:  E(UB3LYP) =  -3531.45284956     A.U. after   12 cycles
 SCF Done:  E(UB3LYP) =  -3531.45284974     A.U. after   11 cycles
 SCF Done:  E(UB3LYP) =  -3531.45284970     A.U. after    9 cycles
 SCF Done:  E(UB3LYP) =  -3531.45284993     A.U. after    9 cycles
 SCF Done:  E(UB3LYP) =  -3531.45285012     A.U. after   10 cycles
 SCF Done:  E(UB3LYP) =  -3531.45285019     A.U. after   10 cycles
 SCF Done:  E(UB3LYP) =  -3531.45285017     A.U. after   10 cycles
 SCF Done:  E(UB3LYP) =  -3531.45285011     A.U. after   10 cycles
 SCF Done:  E(UB3LYP) =  -3531.45285005     A.U. after    9 cycles
 Optimization completed.
    -- Stationary point found.
 Normal termination of Gaussian 16 at Sun Jun 20 15:00:27 2021.

 ----------------------------------------------------------------------
 #P Geom=AllCheck Guess=TCheck SCRF=Check GenChk UB3LYP/Jul-CC-pVDZ Fre
 q
 ----------------------------------------------------------------------

 Structure from the checkpoint file:  "checkpoint.chk"
 -----
 title
 -----
 Charge =  0 Multiplicity = 6

 SCF Done:  E(UB3LYP) =  -3531.45285005     A.U. after    1 cycles

  Exact polarizability: 313.324  12.107 291.974  23.739 -11.496 303.531
 Approx polarizability: 501.483  38.349 424.906  42.974 -30.403 487.986

 ******    1 imaginary frequencies (negative Signs) ******

                      1                      2                      3
                      A                      A                      A
 Frequencies --     -1.9806                15.9735                20.5471
 Red. masses --      5.2043                 8.7392                 4.7893
 Frc consts  --      0.0000                 0.0013                 0.0012
 IR Inten    --      0.3179                 0.8108                 1.0145

                      4                      5                      6
                      A                      A                      A
 Frequencies --     30.3215                42.1854                49.7315
 Red. masses --      8.4379                 6.3997                 5.1398
 Frc consts  --      0.0046                 0.0067                 0.0075
 IR Inten    --      0.7271                 1.4486                 0.2889

                      7                      8                      9
                      A                      A                      A
 Frequencies --     63.1397                63.4426                73.5887
 Red. masses --      4.0572                 3.4952                 4.1686
 Frc consts  --      0.0095                 0.0083                 0.0133
 IR Inten    --      0.6483                 0.2621                 0.3361

                     10                     11                     12
                      A                      A                      A
 Frequencies --     80.1552                82.5350                88.4425
 Red. masses --      9.7947                 6.1392                 3.8081
 Frc consts  --      0.0371                 0.0246                 0.0175
 IR Inten    --      0.1492                 1.8976                 0.4262

                     13                     14                     15
                      A                      A                      A
 Frequencies --     95.2297               105.9235               110.8625
 Red. masses --      3.8060                 3.7373                 6.3228
 Frc consts  --      0.0203                 0.0247                 0.0458
 IR Inten    --      1.0817                 0.1687                 0.4095

                     16                     17                     18
                      A                      A                      A
 Frequencies --    115.7619               121.3041               140.5665
 Red. masses --      7.1909                13.2416                 1.6506
 Frc consts  --      0.0568                 0.1148                 0.0192
 IR Inten    --      1.4327                 1.5167                 4.0225

                     19                     20                     21
                      A                      A                      A
 Frequencies --    147.9140               151.0705               172.8776
 Red. masses --      3.2881                 2.4871                 4.9515
 Frc consts  --      0.0424                 0.0334                 0.0872
 IR Inten    --      3.4275                 4.0037                11.1597

                     22                     23                     24
                      A                      A                      A
 Frequencies --    199.2966               205.6858               217.0164
 Red. masses --      1.2531                 2.9311                 3.3873
 Frc consts  --      0.0293                 0.0731                 0.0940
 IR Inten    --      2.6454                 2.4307                 2.4493

                     25                     26                     27
                      A                      A                      A
 Frequencies --    256.8225               257.4013               275.5288
 Red. masses --      1.9575                 1.9645                 4.4166
 Frc consts  --      0.0761                 0.0767                 0.1975
 IR Inten    --      8.4050                 5.4112                 1.9885

                     28                     29                     30
                      A                      A                      A
 Frequencies --    295.1536               317.6271               344.2028
 Red. masses --      8.8157                 2.3572                29.2959
 Frc consts  --      0.4525                 0.1401                 2.0450
 IR Inten    --     20.9765                 1.1373                34.6289

                     31                     32                     33
                      A                      A                      A
 Frequencies --    356.7927               382.7709               388.2581
 Red. masses --      4.4427                 3.2571                 3.5334
 Frc consts  --      0.3332                 0.2812                 0.3138
 IR Inten    --     16.7798                 2.8188                 4.0476

                     34                     35                     36
                      A                      A                      A
 Frequencies --    401.5177               408.4823               412.0135
 Red. masses --     29.5939                 9.1794                 3.9239
 Frc consts  --      2.8110                 0.9024                 0.3925
 IR Inten    --     79.2254                59.5093                24.0038

                     37                     38                     39
                      A                      A                      A
 Frequencies --    424.3922               439.2679               467.2887
 Red. masses --      3.5742                 2.6913                 3.4846
 Frc consts  --      0.3793                 0.3060                 0.4483
 IR Inten    --     15.1154                 7.9453                 0.8640

                     40                     41                     42
                      A                      A                      A
 Frequencies --    490.7332               512.4526               546.1052
 Red. masses --      2.3913                 2.8160                 3.8078
 Frc consts  --      0.3393                 0.4357                 0.6691
 IR Inten    --      4.7957                 0.6291                16.8002

                     43                     44                     45
                      A                      A                      A
 Frequencies --    569.8576               623.1788               667.8556
 Red. masses --      5.4932                 6.4127                 4.8908
 Frc consts  --      1.0510                 1.4673                 1.2853
 IR Inten    --     39.9824                 1.5477                21.5677

                     46                     47                     48
                      A                      A                      A
 Frequencies --    686.8005               697.2851               747.9075
 Red. masses --      5.4822                 1.5667                 4.1343
 Frc consts  --      1.5236                 0.4488                 1.3625
 IR Inten    --      3.7744                60.1077                 5.1631

                     49                     50                     51
                      A                      A                      A
 Frequencies --    775.7922               780.8107               805.9660
 Red. masses --      2.4497                 2.1694                 1.1265
 Frc consts  --      0.8687                 0.7793                 0.4311
 IR Inten    --     26.5726                 0.7915                 1.1480

                     52                     53                     54
                      A                      A                      A
 Frequencies --    836.0084               839.7316               853.6103
 Red. masses --      3.3576                 1.7074                 1.2569
 Frc consts  --      1.3826                 0.7093                 0.5396
 IR Inten    --      7.2131                17.5063                 1.7897

                     55                     56                     57
                      A                      A                      A
 Frequencies --    862.4944               897.0614               900.6728
 Red. masses --      2.7610                 2.2257                 2.2663
 Frc consts  --      1.2101                 1.0552                 1.0832
 IR Inten    --     18.9672                 0.2693                19.3029

                     58                     59                     60
                      A                      A                      A
 Frequencies --    960.9886               963.0897               979.1011
 Red. masses --      1.4126                 1.5394                 3.0278
 Frc consts  --      0.7686                 0.8412                 1.7101
 IR Inten    --      1.2865                 3.3873                15.9563

                     61                     62                     63
                      A                      A                      A
 Frequencies --    992.6270               998.9676              1000.3009
 Red. masses --      2.6323                 1.3988                 1.6683
 Frc consts  --      1.5281                 0.8224                 0.9835
 IR Inten    --     28.2464                 4.7091                 3.2714

                     64                     65                     66
                      A                      A                      A
 Frequencies --   1002.2100              1015.6867              1020.5012
 Red. masses --      2.4771                 1.3430                 2.1447
 Frc consts  --      1.4659                 0.8163                 1.3160
 IR Inten    --      0.8932                 0.6527                 0.0884

                     67                     68                     69
                      A                      A                      A
 Frequencies --   1036.1345              1046.4547              1077.9951
 Red. masses --      2.6052                 2.4263                 2.0718
 Frc consts  --      1.6479                 1.5655                 1.4185
 IR Inten    --     45.8710                 2.3477                 0.3559

                     70                     71                     72
                      A                      A                      A
 Frequencies --   1095.8838              1096.5153              1117.7015
 Red. masses --      2.4772                 1.7577                 1.5823
 Frc consts  --      1.7528                 1.2452                 1.1646
 IR Inten    --     17.7558                 1.2063                 5.0816

                     73                     74                     75
                      A                      A                      A
 Frequencies --   1133.3035              1135.5487              1164.4859
 Red. masses --      2.1697                 2.0659                 1.6730
 Frc consts  --      1.6419                 1.5695                 1.3367
 IR Inten    --     16.4100                 9.1103                89.2103

                     76                     77                     78
                      A                      A                      A
 Frequencies --   1169.2800              1179.8097              1208.5381
 Red. masses --      1.5622                 1.0852                 1.1746
 Frc consts  --      1.2584                 0.8900                 1.0108
 IR Inten    --      7.0887                 1.1677                30.4891

                     79                     80                     81
                      A                      A                      A
 Frequencies --   1211.0393              1227.0355              1253.8044
 Red. masses --      1.8098                 1.9288                 1.9688
 Frc consts  --      1.5639                 1.7110                 1.8235
 IR Inten    --    117.8439               142.2202                47.1061

                     82                     83                     84
                      A                      A                      A
 Frequencies --   1279.8362              1284.4606              1319.0637
 Red. masses --      1.5956                 1.2409                 1.3792
 Frc consts  --      1.5398                 1.2062                 1.4139
 IR Inten    --    112.5391                29.2571                 8.4256

                     85                     86                     87
                      A                      A                      A
 Frequencies --   1326.6703              1339.6037              1344.3920
 Red. masses --      2.0375                 1.4678                 1.6029
 Frc consts  --      2.1129                 1.5519                 1.7069
 IR Inten    --    125.8190                 7.9326                33.9612

                     88                     89                     90
                      A                      A                      A
 Frequencies --   1367.5663              1371.5991              1377.9396
 Red. masses --      1.5103                 2.9171                 1.3515
 Frc consts  --      1.6642                 3.2334                 1.5120
 IR Inten    --      6.6361                 9.3036                 1.6999

                     91                     92                     93
                      A                      A                      A
 Frequencies --   1379.9164              1406.0366              1411.6742
 Red. masses --      1.3465                 1.4240                 1.2828
 Frc consts  --      1.5107                 1.6586                 1.5062
 IR Inten    --     14.5882                 7.7728                10.2802

                     94                     95                     96
                      A                      A                      A
 Frequencies --   1416.0154              1462.1150              1467.3009
 Red. masses --      1.3894                 1.0626                 1.8906
 Frc consts  --      1.6414                 1.3384                 2.3982
 IR Inten    --     11.5036                 3.8086                19.0673

                     97                     98                     99
                      A                      A                      A
 Frequencies --   1468.7539              1474.5245              1481.3047
 Red. masses --      1.1841                 1.0384                 1.0876
 Frc consts  --      1.5050                 1.3302                 1.4061
 IR Inten    --      7.8983                 5.5638                 2.3021

                    100                    101                    102
                      A                      A                      A
 Frequencies --   1482.2869              1486.7047              1487.2013
 Red. masses --      1.0449                 1.0827                 1.0608
 Frc consts  --      1.3527                 1.4100                 1.3824
 IR Inten    --     13.0914                 8.4065                 2.3483

                    103                    104                    105
                      A                      A                      A
 Frequencies --   1491.4626              1505.5900              1518.8740
 Red. masses --      1.0833                 1.0826                 2.1692
 Frc consts  --      1.4198                 1.4459                 2.9484
 IR Inten    --      9.7015                 6.6953                 6.1488

                    106                    107                    108
                      A                      A                      A
 Frequencies --   1578.5680              1621.7861              1643.4689
 Red. masses --      7.1911                 5.6313                 5.8374
 Frc consts  --     10.5577                 8.7267                 9.2895
 IR Inten    --    620.2022                90.7334                45.0308

                    109                    110                    111
                      A                      A                      A
 Frequencies --   1721.0116              1771.4871              3013.9253
 Red. masses --      6.5098                11.7365                 1.0381
 Frc consts  --     11.3602                21.7003                 5.5558
 IR Inten    --     33.0029               215.9538                17.8760

                    112                    113                    114
                      A                      A                      A
 Frequencies --   3024.3592              3026.7344              3042.1634
 Red. masses --      1.0563                 1.0517                 1.0355
 Frc consts  --      5.6924                 5.6765                 5.6463
 IR Inten    --     26.4411                25.8755                14.1775

                    115                    116                    117
                      A                      A                      A
 Frequencies --   3061.2792              3064.9892              3071.0502
 Red. masses --      1.0583                 1.0628                 1.0976
 Frc consts  --      5.8433                 5.8826                 6.0991
 IR Inten    --     14.8184                14.2424                 7.9281

                    118                    119                    120
                      A                      A                      A
 Frequencies --   3075.2591              3078.3761              3082.1753
 Red. masses --      1.0832                 1.0958                 1.0945
 Frc consts  --      6.0357                 6.1183                 6.1262
 IR Inten    --      1.6382                15.0323                17.3348

                    121                    122                    123
                      A                      A                      A
 Frequencies --   3107.9229              3110.5658              3113.1400
 Red. masses --      1.1076                 1.0989                 1.1015
 Frc consts  --      6.3032                 6.2646                 6.2895
 IR Inten    --      6.5268                 5.2557                 3.0056

                    124                    125                    126
                      A                      A                      A
 Frequencies --   3118.7888              3119.0787              3135.7585
 Red. masses --      1.0919                 1.1013                 1.0977
 Frc consts  --      6.2574                 6.3125                 6.3593
 IR Inten    --     39.0525                20.0458                21.0316

                    127                    128                    129
                      A                      A                      A
 Frequencies --   3136.5431              3176.3237              3190.2889
 Red. masses --      1.1054                 1.0864                 1.0909
 Frc consts  --      6.4070                 6.4579                 6.5415
 IR Inten    --     18.8342                 1.1837                 7.0079

                    130                    131                    132
                      A                      A                      A
 Frequencies --   3198.1362              3213.7750              3219.6627
 Red. masses --      1.0955                 1.0947                 1.0939
 Frc consts  --      6.6018                 6.6614                 6.6814
 IR Inten    --      6.0072                 5.9704                 5.5197

 - Thermochemistry -
 -------------------
 Temperature   298.150 Kelvin.  Pressure   1.00000 Atm.
 Atom     1 has atomic number  6 and mass  12.00000

 Molecular mass:   434.99839 amu.
 Principal axes and moments of inertia in atomic units:
                           1         2         3
     Eigenvalues --  ******************************
           X            0.99952   0.02821   0.01256
           Y           -0.02850   0.99930   0.02404
           Z           -0.01187  -0.02439   0.99963
 This molecule is an asymmetric top.
 Rotational symmetry number  1.
 Warning -- assumption of classical behavior for rotation
           may cause significant error
 Rotational temperatures (Kelvin)      0.00848     0.00757     0.00656
 Rotational constants (GHZ):           0.17666     0.15767     0.13662
    1 imaginary frequencies ignored.
 Zero-point vibrational energy     943075.6 (Joules/Mol)
                                  225.40048 (Kcal/Mol)
 Warning -- explicit consideration of  42 degrees of freedom as
           vibrations may cause significant error
 Vibrational temperatures:     22.98    29.56    43.63    60.70    71.55
          (Kelvin)             90.84    91.28   105.88   115.33   118.75
                              127.25   137.01   152.40   159.51   166.56
                              174.53   202.24   212.82   217.36   248.73
                              286.74   295.94   312.24   369.51   370.34
                              396.42   424.66   456.99   495.23   513.35
                              550.72   558.62   577.69   587.71   592.80
                              610.61   632.01   672.32   706.06   737.31
                              785.72   819.90   896.62   960.90   988.15
                             1003.24  1076.07  1116.19  1123.41  1159.61
                             1202.83  1208.19  1228.15  1240.94  1290.67
                             1295.87  1382.65  1385.67  1408.71  1428.17
                             1437.29  1439.21  1441.96  1461.35  1468.27
                             1490.77  1505.61  1550.99  1576.73  1577.64
                             1608.12  1630.57  1633.80  1675.44  1682.33
                             1697.48  1738.82  1742.42  1765.43  1803.94
                             1841.40  1848.05  1897.84  1908.78  1927.39
                             1934.28  1967.62  1973.43  1982.55  1985.39
                             2022.97  2031.08  2037.33  2103.66  2111.12
                             2113.21  2121.51  2131.27  2132.68  2139.04
                             2139.75  2145.88  2166.21  2185.32  2271.21
                             2333.39  2364.59  2476.15  2548.77  4336.37
                             4351.38  4354.80  4376.99  4404.50  4409.84
                             4418.56  4424.61  4429.10  4434.56  4471.61
                             4475.41  4479.11  4487.24  4487.66  4511.66
                             4512.79  4570.02  4590.11  4601.40  4623.91
                             4632.38

 Zero-point correction=                           0.359199 (Hartree/Particle)
 Thermal correction to Energy=                    0.387086
 Thermal correction to Enthalpy=                  0.388030
 Thermal correction to Gibbs Free Energy=         0.295281
 Sum of electronic and zero-point Energies=          -3531.093652
 Sum of electronic and thermal Energies=             -3531.065764
 Sum of electronic and thermal Enthalpies=           -3531.064820
 Sum of electronic and thermal Free Energies=        -3531.157569

                     E (Thermal)             CV                S
                      KCal/Mol        Cal/Mol-Kelvin    Cal/Mol-Kelvin
 Total                  242.900             97.904            195.208
 Electronic               0.000              0.000              3.561
 Translational            0.889              2.981             44.100
 Rotational               0.889              2.981             35.689
 Vibrational            241.123             91.942            111.858
 Vibration     1          0.593              1.986              7.081
 Vibration     2          0.593              1.986              6.581
 Vibration     3          0.594              1.984              5.808
 Vibration     4          0.595              1.980              5.154
 Vibration     5          0.595              1.978              4.828
 Vibration     6          0.597              1.972              4.357
 Vibration     7          0.597              1.972              4.347
 Vibration     8          0.599              1.966              4.055
 Vibration     9          0.600              1.963              3.887
 Vibration    10          0.600              1.961              3.830
 Vibration    11          0.601              1.957              3.694
 Vibration    12          0.603              1.953              3.550
 Vibration    13          0.605              1.944              3.342
 Vibration    14          0.607              1.940              3.254
 Vibration    15          0.608              1.936              3.170
 Vibration    16          0.609              1.931              3.079
 Vibration    17          0.615              1.913              2.796
 Vibration    18          0.617              1.905              2.699
 Vibration    19          0.618              1.901              2.659
 Vibration    20          0.626              1.876              2.404
 Vibration    21          0.637              1.841              2.140
 Vibration    22          0.640              1.832              2.082
 Vibration    23          0.646              1.815              1.984
 Vibration    24          0.666              1.751              1.683
 Vibration    25          0.667              1.750              1.679
 Vibration    26          0.677              1.719              1.561
 Vibration    27          0.689              1.683              1.444
 Vibration    28          0.704              1.640              1.322
 Vibration    29          0.723              1.587              1.193
 Vibration    30          0.732              1.561              1.136
 Vibration    31          0.752              1.507              1.028
 Vibration    32          0.756              1.495              1.007
 Vibration    33          0.767              1.467              0.957
 Vibration    34          0.773              1.452              0.932
 Vibration    35          0.776              1.444              0.920
 Vibration    36          0.786              1.417              0.877
 Vibration    37          0.799              1.385              0.829
 Vibration    38          0.825              1.323              0.745
 Vibration    39          0.847              1.271              0.682
 Vibration    40          0.868              1.222              0.628
 Vibration    41          0.901              1.148              0.552
 Vibration    42          0.926              1.096              0.505

                           ! Non-Optimized Parameters !
 Normal termination of Gaussian 16 at Sun Jun 20 19:23:28 2021.

 ----------------------------------------------------------------------
 #p ub3lyp jul-cc-pvdz pop=cm5 scrf=(pcm,solvent=dichloroethane) guess=
 read geom=allcheck
 ----------------------------------------------------------------------

 Structure from the checkpoint file:  "checkpoint.chk"
 -----
 title
 -----
 Charge =  0 Multiplicity = 6

 SCF Done:  E(UB3LYP) =  -3531.46905047     A.U. after   17 cycles
 Normal termination of Gaussian 16 at Sun Jun 20 19:43:43 2021.
 Gaussian 16:  ES64L-G16RevA.03 25-Dec-2016

 ----------------------------------------------------------------------
 #p ub3lyp jul-cc-pvdz pop=cm5 scrf=(pcm,solvent=water) guess=read geom
 =allcheck
 ----------------------------------------------------------------------

 Structure from the checkpoint file:  "checkpoint.chk"
 -----
 title
 -----
 Charge =  0 Multiplicity = 6

                         Standard orientation:
 ---------------------------------------------------------------------
 Center     Atomic      Atomic             Coordinates (Angstroms)
 Number     Number       Type             X           Y           Z
 ---------------------------------------------------------------------
      1          6           0        2.717855   -0.232481    1.495865
      2          6           0        1.406812   -0.603911    1.126314
      3          6           0        0.611260   -1.320726    2.046634
      4          6           0        1.115625   -1.661810    3.297380
      5          6           0        2.414364   -1.280815    3.656742
      6          6           0        3.209987   -0.562614    2.757188
      7          6           0        0.831738   -0.241799   -0.178887
      8          6           0        1.677098    0.288304   -1.339834
      9          6           0        2.814142   -0.629448   -1.834865
     10          6           0        2.282319   -1.874043   -2.571196
     11          6           0        1.461708   -2.763565   -1.676827
     12          6           0        0.129236   -2.960462   -1.700987
     13          6           0       -0.810562   -2.390632   -2.730224
     14          8           0       -0.401270   -0.321380   -0.376673
     15         26           0       -2.185305    0.318660    0.270100
     16         17           0       -3.164452    1.156194   -1.504998
     17          6           0       -0.529691   -3.867991   -0.692898
     18         17           0       -1.715034    1.803844    1.822435
     19         17           0       -3.220939   -1.450472    1.080178
     20          1           0       -0.398775   -1.619449    1.772243
     21          1           0        0.493285   -2.220232    3.996962
     22          1           0        2.806331   -1.542811    4.640895
     23          1           0        4.217946   -0.257235    3.039417
     24          1           0        3.350084    0.335600    0.817303
     25          1           0        0.949977    0.425663   -2.151378
     26          6           0        2.176397    1.709001   -1.006914
     27          1           0        3.445513   -0.034838   -2.508637
     28          1           0        3.458442   -0.932854   -1.000541
     29          1           0        1.710215   -1.554715   -3.453161
     30          1           0        3.151622   -2.434467   -2.951387
     31          1           0        2.028809   -3.268783   -0.886980
     32          1           0        0.191835   -4.266349    0.032626
     33          1           0       -1.326711   -3.339334   -0.147762
     34          1           0       -1.013789   -4.718819   -1.199288
     35          1           0       -1.292620   -3.210511   -3.286759
     36          1           0       -1.621530   -1.824513   -2.249484
     37          1           0       -0.322382   -1.732338   -3.457108
     38          8           0        1.138767    2.538759   -0.857115
     39          8           0        3.341553    2.029891   -0.915697
     40          6           0        1.445632    3.930825   -0.536740
     41          6           0        0.135259    4.687614   -0.490597
     42          1           0        1.972724    3.944682    0.426825
     43          1           0        2.128669    4.312364   -1.306981
     44          1           0        0.336660    5.739015   -0.239674
     45          1           0       -0.373065    4.654477   -1.463790
     46          1           0       -0.535558    4.266802    0.269552
 ---------------------------------------------------------------------

 SCF Done:  E(UB3LYP) =  -3531.47196916     A.U. after   14 cycles

 The electronic state is 6-A.
 Alpha  occ. eigenvalues -- -256.22001-101.53201-101.53155-101.53018 -30.21372
 Alpha  occ. eigenvalues --  -26.06852 -26.06503 -26.06467 -19.21233 -19.20653
 Alpha  occ. eigenvalues --  -19.16410 -10.34387 -10.33796 -10.25302 -10.23549
 Alpha  occ. eigenvalues --  -10.23209 -10.22463 -10.22292 -10.22265 -10.21500
 Alpha  occ. eigenvalues --  -10.21473 -10.20439 -10.19989 -10.19311 -10.18775
 Alpha  occ. eigenvalues --  -10.18184 -10.18125 -10.17962  -9.44912  -9.44872
 Alpha  occ. eigenvalues --   -9.44755  -7.20781  -7.20741  -7.20623  -7.20483
 Alpha  occ. eigenvalues --   -7.20445  -7.20436  -7.20407  -7.20304  -7.20299
 Alpha  occ. eigenvalues --   -3.69004  -2.46802  -2.46146  -2.46082  -1.13210
 Alpha  occ. eigenvalues --   -1.10876  -1.04757  -0.88986  -0.84728  -0.81919
 Alpha  occ. eigenvalues --   -0.81170  -0.80431  -0.80356  -0.79261  -0.78543
 Alpha  occ. eigenvalues --   -0.77624  -0.75012  -0.69506  -0.69045  -0.67588
 Alpha  occ. eigenvalues --   -0.64798  -0.63283  -0.61892  -0.60053  -0.57905
 Alpha  occ. eigenvalues --   -0.56709  -0.53969  -0.52664  -0.51923  -0.51097
 Alpha  occ. eigenvalues --   -0.50404  -0.49566  -0.49304  -0.49053  -0.48913
 Alpha  occ. eigenvalues --   -0.48621  -0.47561  -0.47137  -0.46783  -0.45723
 Alpha  occ. eigenvalues --   -0.45492  -0.44815  -0.44533  -0.43277  -0.43126
 Alpha  occ. eigenvalues --   -0.42436  -0.40784  -0.40468  -0.39896  -0.39485
 Alpha  occ. eigenvalues --   -0.38818  -0.38571  -0.38156  -0.37910  -0.37411
 Alpha  occ. eigenvalues --   -0.37160  -0.36950  -0.36525  -0.36483  -0.35164
 Alpha  occ. eigenvalues --   -0.35118  -0.34890  -0.33154  -0.32832  -0.32494
 Alpha  occ. eigenvalues --   -0.31916  -0.31884  -0.31753  -0.31544  -0.30619
 Alpha  occ. eigenvalues --   -0.30444  -0.30088  -0.28961  -0.28242  -0.24430
 Alpha virt. eigenvalues --   -0.11455  -0.03894  -0.02389  -0.01670  -0.00756
 Alpha virt. eigenvalues --   -0.00169  -0.00059   0.00109   0.00541   0.01546
 Alpha virt. eigenvalues --    0.01669   0.01863   0.02187   0.02643   0.03278

  Beta  occ. eigenvalues -- -256.21815-101.52997-101.52957-101.52822 -30.12444
  Beta  occ. eigenvalues --  -25.99261 -25.99132 -25.99105 -19.21232 -19.20331
  Beta  occ. eigenvalues --  -19.16405 -10.34383 -10.33767 -10.25302 -10.23534
  Beta  occ. eigenvalues --  -10.23199 -10.22457 -10.22283 -10.22260 -10.21502
  Beta  occ. eigenvalues --  -10.21475 -10.20438 -10.19984 -10.19311 -10.18774
  Beta  occ. eigenvalues --  -10.18179 -10.18126 -10.17962  -9.44712  -9.44678
  Beta  occ. eigenvalues --   -9.44562  -7.20458  -7.20421  -7.20308  -7.20191
  Beta  occ. eigenvalues --   -7.20173  -7.20159  -7.20143  -7.20035  -7.20028
  Beta  occ. eigenvalues --   -3.48177  -2.24496  -2.24362  -2.24321  -1.13199
  Beta  occ. eigenvalues --   -1.10268  -1.04749  -0.88952  -0.84676  -0.81886
  Beta  occ. eigenvalues --   -0.79879  -0.79239  -0.79035  -0.78967  -0.78533
  Beta  occ. eigenvalues --   -0.77615  -0.74976  -0.69492  -0.68936  -0.67500
  Beta  occ. eigenvalues --   -0.64771  -0.63254  -0.61607  -0.59763  -0.57807
  Beta  occ. eigenvalues --   -0.56031  -0.53495  -0.52604  -0.51820  -0.50796
  Beta  occ. eigenvalues --   -0.50156  -0.49272  -0.47456  -0.46846  -0.46271
  Beta  occ. eigenvalues --   -0.45543  -0.45009  -0.44526  -0.43290  -0.43117
  Beta  occ. eigenvalues --   -0.42429  -0.40793  -0.40465  -0.39876  -0.39358
  Beta  occ. eigenvalues --   -0.38964  -0.38577  -0.38527  -0.37984  -0.37390
  Beta  occ. eigenvalues --   -0.37164  -0.36929  -0.36786  -0.36753  -0.36474
  Beta  occ. eigenvalues --   -0.36445  -0.35083  -0.34049  -0.33875  -0.33509
  Beta  occ. eigenvalues --   -0.33131  -0.32830  -0.32409  -0.31860  -0.31058
  Beta  occ. eigenvalues --   -0.30310  -0.30267  -0.28991  -0.28223  -0.24380
  Beta virt. eigenvalues --   -0.16102  -0.15618  -0.14598  -0.14256  -0.14171
  Beta virt. eigenvalues --   -0.10526  -0.03858  -0.02355  -0.01528  -0.00660
  Beta virt. eigenvalues --   -0.00106  -0.00025   0.00158   0.00618   0.01572

 Mulliken charges and spin densities:
               1          2
     1  C   -0.114048   0.004906
     2  C    3.225250  -0.002391
     3  C   -0.676392  -0.004342
     4  C    0.123000   0.000845
     5  C    0.253204   0.009186
     6  C   -0.155749  -0.001868
     7  C   -1.713433  -0.004012
     8  C    0.141551   0.007853
     9  C    0.666965   0.001838
    10  C    0.515846  -0.000028
    11  C    0.132359   0.002936
    12  C   -0.037431   0.007531
    13  C    0.129595  -0.001615
    14  O   -0.332853   0.091797
    15  Fe   0.732623   4.070755
    16  Cl  -0.475111   0.270106
    17  C    0.163836  -0.001499
    18  Cl  -0.437771   0.273325
    19  Cl  -0.441637   0.266449
    20  H   -0.281420   0.000236
    21  H   -0.159065   0.000020
    22  H   -0.140136  -0.000128
    23  H   -0.151798   0.000082
    24  H   -0.225758  -0.000106
    25  H   -0.134112  -0.000291
    26  C    0.813088   0.004634
    27  H   -0.145439   0.000405
    28  H   -0.047932   0.000026
    29  H   -0.091808   0.000002
    30  H   -0.126016   0.000393
    31  H   -0.244067  -0.000165
    32  H   -0.028531   0.000046
    33  H    0.045441   0.000338
    34  H   -0.021857   0.000207
    35  H   -0.021104   0.000243
    36  H    0.010717   0.000572
    37  H   -0.012089   0.000031
    38  O   -0.663607   0.000614
    39  O   -0.543456   0.001804
    40  C    0.453564  -0.000168
    41  C    0.029319  -0.000273
    42  H   -0.030004   0.000056
    43  H   -0.033842   0.000021
    44  H   -0.003727   0.000031
    45  H    0.026082   0.000029
    46  H    0.027750  -0.000432
 Sum of Mulliken charges =  -0.00000   5.00000

 Dipole moment (field-independent basis, Debye):
    X=              9.2094    Y=             -1.9272    Z=              0.5668  Tot=              9.4259
 Quadrupole moment (field-independent basis, Debye-Ang):
   XX=           -195.0857   YY=           -167.3381   ZZ=           -163.7688
   XY=             -1.5159   XZ=              8.8244   YZ=             -4.9941

 Normal termination of Gaussian 16 at Sun Jun 20 20:00:22 2021.
