 Gaussian 16, Revision A.03,

 -----------------------------------------------------------
 #p opt=modredundant freq=noraman ub3lyp jul-cc-pvdz pop=cm5
 -----------------------------------------------------------

 -----
 title
 -----
 Symbolic Z-matrix:
 Charge =  0 Multiplicity = 6

 SCF Done:  E(UB3LYP) =  -3531.42037225     A.U. after   26 cycles
 SCF Done:  E(UB3LYP) =  -3531.41952623     A.U. after   18 cycles
 SCF Done:  E(UB3LYP) =  -3531.41799587     A.U. after   19 cycles
 SCF Done:  E(UB3LYP) =  -3531.41618511     A.U. after   18 cycles
 SCF Done:  E(UB3LYP) =  -3531.42051440     A.U. after   13 cycles
 SCF Done:  E(UB3LYP) =  -3531.42030323     A.U. after   17 cycles
 SCF Done:  E(UB3LYP) =  -3531.42082293     A.U. after   16 cycles
 SCF Done:  E(UB3LYP) =  -3531.42090610     A.U. after   15 cycles
 SCF Done:  E(UB3LYP) =  -3531.42100738     A.U. after   14 cycles
 SCF Done:  E(UB3LYP) =  -3531.42100171     A.U. after   16 cycles
 SCF Done:  E(UB3LYP) =  -3531.42106713     A.U. after   11 cycles
 SCF Done:  E(UB3LYP) =  -3531.42106730     A.U. after   11 cycles
 SCF Done:  E(UB3LYP) =  -3531.42106736     A.U. after   11 cycles
 SCF Done:  E(UB3LYP) =  -3531.42106740     A.U. after   10 cycles
 SCF Done:  E(UB3LYP) =  -3531.42106740     A.U. after   10 cycles
 SCF Done:  E(UB3LYP) =  -3531.42106739     A.U. after    8 cycles
 SCF Done:  E(UB3LYP) =  -3531.42106737     A.U. after    9 cycles
 Optimization completed.
    -- Stationary point found.
 Normal termination of Gaussian 16 at Sun Jun 20 07:07:00 2021.

 ----------------------------------------------------------------------
 #P Geom=AllCheck Guess=TCheck SCRF=Check GenChk UB3LYP/Jul-CC-pVDZ Fre
 q
 ----------------------------------------------------------------------

 Structure from the checkpoint file:  "checkpoint.chk"
 -----
 title
 -----
 Charge =  0 Multiplicity = 6

 SCF Done:  E(UB3LYP) =  -3531.42106737     A.U. after    2 cycles

  Exact polarizability: 319.718 -11.255 303.619 -12.214   5.820 289.640
 Approx polarizability: 487.503 -21.526 464.391  -1.738  14.397 483.575

 ******    2 imaginary frequencies (negative Signs) ******

                      1                      2                      3
                      A                      A                      A
 Frequencies --   -192.2350                -8.9467                18.3681
 Red. masses --      8.1642                 9.7187                 4.8669
 Frc consts  --      0.1778                 0.0005                 0.0010
 IR Inten    --    325.7972                 0.7991                 2.2323

                      4                      5                      6
                      A                      A                      A
 Frequencies --     23.1822                33.8696                46.2058
 Red. masses --      3.4732                 8.2157                 5.1561
 Frc consts  --      0.0011                 0.0056                 0.0065
 IR Inten    --      1.6104                 0.1275                 1.4280

                      7                      8                      9
                      A                      A                      A
 Frequencies --     56.1037                69.2155                74.8592
 Red. masses --      4.0085                 3.2704                 5.2106
 Frc consts  --      0.0074                 0.0092                 0.0172
 IR Inten    --      1.1512                 1.5369                 1.1570

                     10                     11                     12
                      A                      A                      A
 Frequencies --     81.7535                90.8913                95.7039
 Red. masses --      4.5529                 5.1074                 4.3553
 Frc consts  --      0.0179                 0.0249                 0.0235
 IR Inten    --      0.6037                 0.5226                 3.2942

                     13                     14                     15
                      A                      A                      A
 Frequencies --    100.3254               106.9651               116.3748
 Red. masses --      4.2449                 6.1258                 2.5162
 Frc consts  --      0.0252                 0.0413                 0.0201
 IR Inten    --      1.4511                15.6927                 2.9474

                     16                     17                     18
                      A                      A                      A
 Frequencies --    117.6218               127.3818               139.6569
 Red. masses --      5.3772                 5.7970                 2.4907
 Frc consts  --      0.0438                 0.0554                 0.0286
 IR Inten    --      0.6841                 2.6668                 0.1617

                     19                     20                     21
                      A                      A                      A
 Frequencies --    150.1321               161.9286               186.3119
 Red. masses --      3.9282                 2.9056                 2.8032
 Frc consts  --      0.0522                 0.0449                 0.0573
 IR Inten    --      4.3849                 5.6425                 5.3707

                     22                     23                     24
                      A                      A                      A
 Frequencies --    204.3731               212.1360               220.4329
 Red. masses --      1.2657                 3.3737                 3.6088
 Frc consts  --      0.0311                 0.0895                 0.1033
 IR Inten    --      3.2612                 1.3120                10.0993

                     25                     26                     27
                      A                      A                      A
 Frequencies --    250.6078               257.4914               283.4240
 Red. masses --      2.5657                 2.1302                 2.7244
 Frc consts  --      0.0949                 0.0832                 0.1289
 IR Inten    --      2.5311                 3.8609                 2.6683

                     28                     29                     30
                      A                      A                      A
 Frequencies --    300.8741               315.7617               342.5686
 Red. masses --      4.0417                 4.9883                22.7674
 Frc consts  --      0.2156                 0.2930                 1.5742
 IR Inten    --      8.2666                 5.2197                52.4201

                     31                     32                     33
                      A                      A                      A
 Frequencies --    354.9405               368.9762               385.4100
 Red. masses --      4.2583                 5.1341                36.3607
 Frc consts  --      0.3161                 0.4118                 3.1822
 IR Inten    --      9.1525                11.3276                83.3304

                     34                     35                     36
                      A                      A                      A
 Frequencies --    394.9039               402.7200               418.4202
 Red. masses --     30.2100                 2.9991                 2.9793
 Frc consts  --      2.7758                 0.2866                 0.3073
 IR Inten    --     80.3782                 0.5281                 0.4546

                     37                     38                     39
                      A                      A                      A
 Frequencies --    432.8352               452.3521               487.0067
 Red. masses --      3.8188                 5.1309                 2.1753
 Frc consts  --      0.4215                 0.6186                 0.3040
 IR Inten    --     19.7751                21.8241                 2.1321

                     40                     41                     42
                      A                      A                      A
 Frequencies --    509.6249               533.6825               541.9398
 Red. masses --      2.7610                 3.4300                 3.3308
 Frc consts  --      0.4225                 0.5756                 0.5764
 IR Inten    --      4.7927                24.2046                 9.2805

                     43                     44                     45
                      A                      A                      A
 Frequencies --    606.1202               626.9056               655.2712
 Red. masses --      5.0864                 6.3724                 4.2069
 Frc consts  --      1.1010                 1.4756                 1.0643
 IR Inten    --     23.8644                 1.3110               113.5817

                     46                     47                     48
                      A                      A                      A
 Frequencies --    699.2813               709.4732               766.9189
 Red. masses --      5.5012                 1.6696                 3.0109
 Frc consts  --      1.5849                 0.4951                 1.0434
 IR Inten    --     11.6283                86.2210                 4.6477

                     49                     50                     51
                      A                      A                      A
 Frequencies --    770.2970               803.3314               811.5467
 Red. masses --      2.8550                 1.4223                 2.5760
 Frc consts  --      0.9981                 0.5408                 0.9996
 IR Inten    --     14.1533                12.5361                27.4622

                     52                     53                     54
                      A                      A                      A
 Frequencies --    824.4304               853.3178               862.7171
 Red. masses --      1.9859                 1.2537                 1.6477
 Frc consts  --      0.7953                 0.5379                 0.7225
 IR Inten    --      7.2181                 2.3178                 1.4356

                     55                     56                     57
                      A                      A                      A
 Frequencies --    870.5825               901.2712               925.3683
 Red. masses --      2.5301                 1.7845                 2.5996
 Frc consts  --      1.1298                 0.8540                 1.3116
 IR Inten    --     15.3701                 1.6254                12.7508

                     58                     59                     60
                      A                      A                      A
 Frequencies --    937.3826               960.1205               988.1619
 Red. masses --      1.4895                 2.4417                 1.3668
 Frc consts  --      0.7711                 1.3262                 0.7864
 IR Inten    --      5.3593                 9.6239                 2.8929

                     61                     62                     63
                      A                      A                      A
 Frequencies --    989.6659               992.9764              1000.9734
 Red. masses --      1.4671                 2.6471                 1.6462
 Frc consts  --      0.8466                 1.5378                 0.9718
 IR Inten    --     26.3608                45.2732                 2.3604

                     64                     65                     66
                      A                      A                      A
 Frequencies --   1003.9660              1008.0760              1010.9108
 Red. masses --      1.8906                 2.3884                 1.7567
 Frc consts  --      1.1228                 1.4300                 1.0577
 IR Inten    --     20.0921                 6.0741                33.2085

                     67                     68                     69
                      A                      A                      A
 Frequencies --   1040.1347              1048.0905              1058.8085
 Red. masses --      3.0157                 2.2570                 2.0780
 Frc consts  --      1.9223                 1.4608                 1.3726
 IR Inten    --     36.7007                 8.4712                 3.9644

                     70                     71                     72
                      A                      A                      A
 Frequencies --   1074.0956              1101.8866              1107.7610
 Red. masses --      1.8264                 1.6400                 1.5972
 Frc consts  --      1.2415                 1.1732                 1.1548
 IR Inten    --      7.7740                 7.8090                16.5973

                     73                     74                     75
                      A                      A                      A
 Frequencies --   1128.0374              1133.5665              1163.2684
 Red. masses --      2.6200                 2.2191                 1.7237
 Frc consts  --      1.9643                 1.6800                 1.3743
 IR Inten    --      7.3129                12.8192                10.6890

                     76                     77                     78
                      A                      A                      A
 Frequencies --   1168.3351              1174.1097              1195.8227
 Red. masses --      1.5578                 1.0868                 2.0095
 Frc consts  --      1.2528                 0.8827                 1.6931
 IR Inten    --      1.9106                 0.0937                15.5482

                     79                     80                     81
                      A                      A                      A
 Frequencies --   1201.8027              1206.3355              1227.4663
 Red. masses --      1.4408                 1.6919                 2.1138
 Frc consts  --      1.2261                 1.4507                 1.8764
 IR Inten    --     77.8586                47.6764               214.1968

                     82                     83                     84
                      A                      A                      A
 Frequencies --   1262.6623              1280.3101              1283.7888
 Red. masses --      1.7590                 1.5107                 1.4505
 Frc consts  --      1.6523                 1.4590                 1.4085
 IR Inten    --     27.5416               179.0537               141.1055

                     85                     86                     87
                      A                      A                      A
 Frequencies --   1317.0314              1326.8473              1331.1483
 Red. masses --      1.4868                 1.4298                 1.7415
 Frc consts  --      1.5195                 1.4830                 1.8181
 IR Inten    --     39.3179                49.6476                27.7799

                     88                     89                     90
                      A                      A                      A
 Frequencies --   1337.8627              1355.9521              1360.5325
 Red. masses --      1.2872                 1.8645                 2.1362
 Frc consts  --      1.3575                 2.0197                 2.3298
 IR Inten    --     77.5785                28.5912                41.3315

                     91                     92                     93
                      A                      A                      A
 Frequencies --   1366.6709              1371.7180              1387.6378
 Red. masses --      1.5087                 1.2707                 1.5539
 Frc consts  --      1.6603                 1.4088                 1.7629
 IR Inten    --     33.9224                62.0736                54.5928

                     94                     95                     96
                      A                      A                      A
 Frequencies --   1400.0408              1417.0662              1421.7069
 Red. masses --      1.7512                 1.4533                 1.0749
 Frc consts  --      2.0224                 1.7195                 1.2801
 IR Inten    --     88.3498                 6.9939                 3.0238

                     97                     98                     99
                      A                      A                      A
 Frequencies --   1457.0810              1460.3943              1471.3159
 Red. masses --      1.0654                 1.1981                 2.1005
 Frc consts  --      1.3327                 1.5055                 2.6790
 IR Inten    --     17.4026                21.2757                32.8147

                    100                    101                    102
                      A                      A                      A
 Frequencies --   1474.1508              1480.4535              1484.2110
 Red. masses --      1.0392                 1.0897                 1.0518
 Frc consts  --      1.3306                 1.4072                 1.3651
 IR Inten    --      5.9555                 5.6811                 4.8027

                    103                    104                    105
                      A                      A                      A
 Frequencies --   1495.6773              1503.3311              1505.7317
 Red. masses --      1.1328                 1.1622                 1.0877
 Frc consts  --      1.4931                 1.5476                 1.4529
 IR Inten    --     11.0298                 4.2544                 9.1022

                    106                    107                    108
                      A                      A                      A
 Frequencies --   1515.7985              1565.5256              1622.0715
 Red. masses --      2.1448                 3.7273                 5.7430
 Frc consts  --      2.9034                 5.3823                 8.9028
 IR Inten    --      3.9530               113.3781                 0.3377

                    109                    110                    111
                      A                      A                      A
 Frequencies --   1640.0138              1762.8095              2924.7197
 Red. masses --      5.6629                11.7084                 1.0599
 Frc consts  --      8.9739                21.4367                 5.3419
 IR Inten    --      2.4713               215.7956               105.0727

                    112                    113                    114
                      A                      A                      A
 Frequencies --   3014.0451              3042.0637              3047.6323
 Red. masses --      1.0409                 1.0356                 1.0621
 Frc consts  --      5.5711                 5.6468                 5.8120
 IR Inten    --      0.7351                13.6377                17.3449

                    115                    116                    117
                      A                      A                      A
 Frequencies --   3057.1394              3058.0890              3066.5417
 Red. masses --      1.0583                 1.0633                 1.0955
 Frc consts  --      5.8276                 5.8586                 6.0694
 IR Inten    --     13.8321                18.4496                 0.4225

                    118                    119                    120
                      A                      A                      A
 Frequencies --   3089.7013              3090.1662              3102.0918
 Red. masses --      1.0848                 1.0701                 1.0991
 Frc consts  --      6.1017                 6.0204                 6.2318
 IR Inten    --     14.8617                 6.5942                13.4278

                    121                    122                    123
                      A                      A                      A
 Frequencies --   3102.7165              3115.8433              3118.5706
 Red. masses --      1.1077                 1.1027                 1.1009
 Frc consts  --      6.2831                 6.3074                 6.3083
 IR Inten    --      6.4189                 6.5878                23.2652

                    124                    125                    126
                      A                      A                      A
 Frequencies --   3133.8079              3139.5788              3151.3066
 Red. masses --      1.1050                 1.0869                 1.1054
 Frc consts  --      6.3936                 6.3122                 6.4677
 IR Inten    --     23.3706                 5.8595                 5.5987

                    127                    128                    129
                      A                      A                      A
 Frequencies --   3155.4019              3170.3822              3180.8369
 Red. masses --      1.0997                 1.0854                 1.0896
 Frc consts  --      6.4511                 6.4279                 6.4956
 IR Inten    --      7.3962                 0.1059                 7.0854

                    130                    131                    132
                      A                      A                      A
 Frequencies --   3191.0955              3198.8126              3219.1867
 Red. masses --      1.0939                 1.0967                 1.0927
 Frc consts  --      6.5629                 6.6118                 6.6715
 IR Inten    --     13.0794                 5.2051                 2.5702

 - Thermochemistry -
 -------------------
 Temperature   298.150 Kelvin.  Pressure   1.00000 Atm.
 Atom     1 has atomic number  6 and mass  12.00000

 Molecular mass:   434.99839 amu.
 Principal axes and moments of inertia in atomic units:
                           1         2         3
     Eigenvalues --  8995.29386********************
           X            0.99711  -0.07236  -0.02300
           Y            0.07261   0.99731   0.00986
           Z            0.02223  -0.01150   0.99969
 This molecule is an asymmetric top.
 Rotational symmetry number  1.
 Warning -- assumption of classical behavior for rotation
           may cause significant error
 Rotational temperatures (Kelvin)      0.00963     0.00754     0.00644
 Rotational constants (GHZ):           0.20063     0.15702     0.13410
    2 imaginary frequencies ignored.
 Zero-point vibrational energy     939697.7 (Joules/Mol)
                                  224.59315 (Kcal/Mol)
 Warning -- explicit consideration of  41 degrees of freedom as
           vibrations may cause significant error
 Vibrational temperatures:     26.43    33.35    48.73    66.48    80.72
          (Kelvin)             99.59   107.71   117.63   130.77   137.70
                              144.35   153.90   167.44   169.23   183.27
                              200.94   216.01   232.98   268.06   294.05
                              305.22   317.15   360.57   370.47   407.78
                              432.89   454.31   492.88   510.68   530.87
                              554.52   568.18   579.42   602.01   622.75
                              650.83   700.69   733.24   767.85   779.73
                              872.07   901.98   942.79  1006.11  1020.77
                             1103.43  1108.29  1155.81  1167.63  1186.17
                             1227.73  1241.26  1252.57  1296.73  1331.40
                             1348.68  1381.40  1421.74  1423.91  1428.67
                             1440.18  1444.48  1450.40  1454.48  1496.52
                             1507.97  1523.39  1545.38  1585.37  1593.82
                             1622.99  1630.95  1673.68  1680.97  1689.28
                             1720.52  1729.13  1735.65  1766.05  1816.69
                             1842.08  1847.09  1894.91  1909.04  1915.23
                             1924.89  1950.91  1957.50  1966.33  1973.60
                             1996.50  2014.35  2038.84  2045.52  2096.41
                             2101.18  2116.90  2120.97  2130.04  2135.45
                             2151.95  2162.96  2166.41  2180.90  2252.44
                             2333.80  2359.61  2536.29  4208.02  4336.54
                             4376.85  4384.86  4398.54  4399.91  4412.07
                             4445.39  4446.06  4463.22  4464.12  4483.00
                             4486.93  4508.85  4517.15  4534.03  4539.92
                             4561.47  4576.51  4591.27  4602.38  4631.69

 Zero-point correction=                           0.357912 (Hartree/Particle)
 Thermal correction to Energy=                    0.384743
 Thermal correction to Enthalpy=                  0.385687
 Thermal correction to Gibbs Free Energy=         0.296339
 Sum of electronic and zero-point Energies=          -3531.063155
 Sum of electronic and thermal Energies=             -3531.036324
 Sum of electronic and thermal Enthalpies=           -3531.035380
 Sum of electronic and thermal Free Energies=        -3531.124729

                     E (Thermal)             CV                S
                      KCal/Mol        Cal/Mol-Kelvin    Cal/Mol-Kelvin
 Total                  241.430             95.797            188.049
 Electronic               0.000              0.000              3.561
 Translational            0.889              2.981             44.100
 Rotational               0.889              2.981             35.585
 Vibrational            239.652             89.835            104.803
 Vibration     1          0.593              1.986              6.803
 Vibration     2          0.593              1.985              6.341
 Vibration     3          0.594              1.983              5.589
 Vibration     4          0.595              1.979              4.974
 Vibration     5          0.596              1.975              4.590
 Vibration     6          0.598              1.969              4.176
 Vibration     7          0.599              1.966              4.021
 Vibration     8          0.600              1.962              3.848
 Vibration     9          0.602              1.956              3.641
 Vibration    10          0.603              1.952              3.540
 Vibration    11          0.604              1.949              3.448
 Vibration    12          0.606              1.944              3.323
 Vibration    13          0.608              1.936              3.160
 Vibration    14          0.608              1.935              3.139
 Vibration    15          0.611              1.926              2.985
 Vibration    16          0.615              1.914              2.809
 Vibration    17          0.618              1.903              2.671
 Vibration    18          0.622              1.889              2.527
 Vibration    19          0.632              1.859              2.264
 Vibration    20          0.640              1.834              2.093
 Vibration    21          0.643              1.822              2.025
 Vibration    22          0.647              1.810              1.956
 Vibration    23          0.663              1.762              1.726
 Vibration    24          0.667              1.750              1.679
 Vibration    25          0.682              1.704              1.513
 Vibration    26          0.693              1.672              1.412
 Vibration    27          0.703              1.644              1.332
 Vibration    28          0.722              1.590              1.200
 Vibration    29          0.731              1.565              1.144
 Vibration    30          0.741              1.536              1.084
 Vibration    31          0.754              1.501              1.018
 Vibration    32          0.762              1.481              0.982
 Vibration    33          0.768              1.464              0.953
 Vibration    34          0.781              1.430              0.897
 Vibration    35          0.794              1.399              0.849
 Vibration    36          0.811              1.356              0.789
 Vibration    37          0.843              1.279              0.691
 Vibration    38          0.865              1.229              0.634
 Vibration    39          0.889              1.176              0.579
 Vibration    40          0.897              1.157              0.561
 Vibration    41          0.965              1.019              0.439

                           ! Non-Optimized Parameters !
 Normal termination of Gaussian 16 at Sun Jun 20 11:02:42 2021.

 ----------------------------------------------------------------------
 #p ub3lyp jul-cc-pvdz pop=cm5 scrf=(pcm,solvent=dichloroethane) guess=
 read geom=allcheck
 ----------------------------------------------------------------------

 Structure from the checkpoint file:  "checkpoint.chk"
 -----
 title
 -----
 Charge =  0 Multiplicity = 6

 SCF Done:  E(UB3LYP) =  -3531.44419527     A.U. after   17 cycles
 Normal termination of Gaussian 16 at Sun Jun 20 11:27:02 2021.
 Gaussian 16:  ES64L-G16RevA.03 25-Dec-2016

 ----------------------------------------------------------------------
 #p ub3lyp jul-cc-pvdz pop=cm5 scrf=(pcm,solvent=water) guess=read geom
 =allcheck
 ----------------------------------------------------------------------

 Structure from the checkpoint file:  "checkpoint.chk"
 -----
 title
 -----
 Charge =  0 Multiplicity = 6

                         Standard orientation:
 ---------------------------------------------------------------------
 Center     Atomic      Atomic             Coordinates (Angstroms)
 Number     Number       Type             X           Y           Z
 ---------------------------------------------------------------------
      1          6           0        2.891916    1.144085   -0.239886
      2          6           0        1.569293    0.852774   -0.620364
      3          6           0        1.284941    0.659518   -1.981018
      4          6           0        2.296728    0.762578   -2.940070
      5          6           0        3.606167    1.059640   -2.554324
      6          6           0        3.900750    1.245688   -1.198276
      7          6           0        0.447007    0.713764    0.393618
      8          6           0        0.715074   -0.153746    1.699913
      9          6           0        0.731296    0.716533    2.960623
     10          6           0       -0.148386    1.919109    2.624293
     11          6           0        0.382521    2.391482    1.283057
     12          6           0       -0.319113    3.211067    0.393311
     13          6           0       -1.792351    3.261649    0.382932
     14          8           0       -0.732760    0.493280   -0.138221
     15         26           0       -2.186335   -0.746051   -0.379940
     16         17           0       -2.737669   -1.545832    1.617612
     17          6           0        0.393906    3.926366   -0.699852
     18         17           0       -1.505502   -2.304662   -1.784259
     19         17           0       -3.802728    0.515452   -1.237142
     20          1           0        0.271778    0.401793   -2.282335
     21          1           0        2.057555    0.599848   -3.991871
     22          1           0        4.396217    1.138466   -3.302682
     23          1           0        4.921795    1.465864   -0.883806
     24          1           0        3.152281    1.275957    0.809689
     25          1           0       -0.164891   -0.805694    1.735266
     26          6           0        1.927276   -1.073347    1.592130
     27          1           0        0.368440    0.154947    3.830397
     28          1           0        1.759106    1.035488    3.183083
     29          1           0       -1.201785    1.619528    2.553651
     30          1           0       -0.070860    2.716779    3.377385
     31          1           0        1.454876    2.598359    1.309226
     32          1           0        1.476966    3.773143   -0.683583
     33          1           0       -0.009272    3.600582   -1.673878
     34          1           0        0.176082    5.004584   -0.628512
     35          1           0       -2.234851    3.272051    1.385641
     36          1           0       -2.183679    4.089533   -0.219330
     37          1           0       -2.128330    2.313279   -0.092430
     38          8           0        1.684802   -2.073496    0.734885
     39          8           0        2.959685   -0.939240    2.217828
     40          6           0        2.754252   -3.039214    0.530374
     41          6           0        2.240075   -4.091243   -0.430578
     42          1           0        3.628091   -2.502057    0.136605
     43          1           0        3.025954   -3.460427    1.507570
     44          1           0        3.030235   -4.834408   -0.611049
     45          1           0        1.363345   -4.606896   -0.016594
     46          1           0        1.954010   -3.642257   -1.390824
 ---------------------------------------------------------------------

 SCF Done:  E(UB3LYP) =  -3531.44860256     A.U. after   15 cycles

 The electronic state is 6-A.
 Alpha  occ. eigenvalues -- -256.20614-101.52300-101.52223-101.52162 -30.20033
 Alpha  occ. eigenvalues --  -26.05363 -26.05258 -26.05166 -19.20478 -19.16978
 Alpha  occ. eigenvalues --  -19.15474 -10.33132 -10.31764 -10.27795 -10.24912
 Alpha  occ. eigenvalues --  -10.22372 -10.22171 -10.21672 -10.20932 -10.20671
 Alpha  occ. eigenvalues --  -10.20527 -10.20485 -10.20457 -10.20407 -10.20373
 Alpha  occ. eigenvalues --  -10.20328 -10.19874 -10.18696  -9.44017  -9.43957
 Alpha  occ. eigenvalues --   -9.43890  -7.19882  -7.19822  -7.19757  -7.19569
 Alpha  occ. eigenvalues --   -7.19556  -7.19506  -7.19497  -7.19435  -7.19426
 Alpha  occ. eigenvalues --   -3.67715  -2.45258  -2.45043  -2.44869  -1.12346
 Alpha  occ. eigenvalues --   -1.06168  -1.03818  -0.88122  -0.87035  -0.83780
 Alpha  occ. eigenvalues --   -0.80263  -0.79539  -0.79464  -0.78993  -0.77910
 Alpha  occ. eigenvalues --   -0.76193  -0.75095  -0.72904  -0.70998  -0.66477
 Alpha  occ. eigenvalues --   -0.64375  -0.62251  -0.61434  -0.59488  -0.57268
 Alpha  occ. eigenvalues --   -0.56405  -0.54543  -0.52857  -0.51357  -0.50722
 Alpha  occ. eigenvalues --   -0.49970  -0.49307  -0.48825  -0.48093  -0.47894
 Alpha  occ. eigenvalues --   -0.47715  -0.47566  -0.46916  -0.46844  -0.45872
 Alpha  occ. eigenvalues --   -0.45051  -0.44637  -0.44332  -0.43348  -0.42703
 Alpha  occ. eigenvalues --   -0.42301  -0.41668  -0.41073  -0.40136  -0.40031
 Alpha  occ. eigenvalues --   -0.39613  -0.38580  -0.37722  -0.37389  -0.37303
 Alpha  occ. eigenvalues --   -0.37115  -0.36939  -0.36301  -0.35854  -0.35676
 Alpha  occ. eigenvalues --   -0.35042  -0.34451  -0.34110  -0.32084  -0.31948
 Alpha  occ. eigenvalues --   -0.31150  -0.31072  -0.30870  -0.30248  -0.29979
 Alpha  occ. eigenvalues --   -0.29815  -0.28990  -0.28588  -0.27000  -0.26240
 Alpha virt. eigenvalues --   -0.11951  -0.03639  -0.02871  -0.01557  -0.01266
 Alpha virt. eigenvalues --   -0.00204  -0.00069   0.00038   0.01435   0.01636
 Alpha virt. eigenvalues --    0.01781   0.01999   0.02297   0.03536   0.03760

  Beta  occ. eigenvalues -- -256.20429-101.52121-101.52042-101.51990 -30.11084
  Beta  occ. eigenvalues --  -25.97827 -25.97813 -25.97767 -19.20478 -19.16407
  Beta  occ. eigenvalues --  -19.15472 -10.33133 -10.31760 -10.27756 -10.24912
  Beta  occ. eigenvalues --  -10.22348 -10.22158 -10.21650 -10.20934 -10.20672
  Beta  occ. eigenvalues --  -10.20529 -10.20487 -10.20455 -10.20410 -10.20374
  Beta  occ. eigenvalues --  -10.20327 -10.19873 -10.18696  -9.43842  -9.43780
  Beta  occ. eigenvalues --   -9.43721  -7.19584  -7.19525  -7.19464  -7.19331
  Beta  occ. eigenvalues --   -7.19319  -7.19259  -7.19256  -7.19209  -7.19200
  Beta  occ. eigenvalues --   -3.46850  -2.23124  -2.23068  -2.23013  -1.12344
  Beta  occ. eigenvalues --   -1.05060  -1.03814  -0.88007  -0.87002  -0.83722
  Beta  occ. eigenvalues --   -0.79118  -0.78986  -0.78295  -0.78249  -0.77824
  Beta  occ. eigenvalues --   -0.76187  -0.75071  -0.72893  -0.70903  -0.66315
  Beta  occ. eigenvalues --   -0.64283  -0.62210  -0.61373  -0.59194  -0.57036
  Beta  occ. eigenvalues --   -0.56002  -0.54395  -0.51910  -0.51343  -0.50379
  Beta  occ. eigenvalues --   -0.49925  -0.48753  -0.48388  -0.47319  -0.46807
  Beta  occ. eigenvalues --   -0.45692  -0.44717  -0.44332  -0.43370  -0.42697
  Beta  occ. eigenvalues --   -0.42266  -0.41749  -0.41025  -0.40104  -0.40038
  Beta  occ. eigenvalues --   -0.39583  -0.38535  -0.38098  -0.37439  -0.37247
  Beta  occ. eigenvalues --   -0.37118  -0.37006  -0.36299  -0.35913  -0.35889
  Beta  occ. eigenvalues --   -0.35806  -0.35729  -0.34937  -0.33210  -0.33143
  Beta  occ. eigenvalues --   -0.32528  -0.32195  -0.31948  -0.31711  -0.30194
  Beta  occ. eigenvalues --   -0.29695  -0.28953  -0.28644  -0.27007  -0.26196
  Beta virt. eigenvalues --   -0.14562  -0.14208  -0.13319  -0.13119  -0.12630
  Beta virt. eigenvalues --   -0.10914  -0.03596  -0.02853  -0.01446  -0.01225
  Beta virt. eigenvalues --   -0.00161  -0.00045   0.00070   0.01450   0.01662

 Mulliken charges and spin densities:
               1          2
     1  C   -0.313216  -0.001883
     2  C    2.870833   0.001511
     3  C   -0.763873  -0.007397
     4  C    0.025534   0.004633
     5  C    0.236786  -0.002571
     6  C    0.017883   0.002964
     7  C   -2.241192   0.020813
     8  C    1.168807  -0.006146
     9  C    0.590075   0.001781
    10  C    0.713017   0.001513
    11  C    0.730132   0.008473
    12  C   -0.387854   0.030220
    13  C    0.063590  -0.006152
    14  O   -0.561164   0.167891
    15  Fe   0.603432   4.061435
    16  Cl  -0.517922   0.236402
    17  C    0.315366  -0.001259
    18  Cl  -0.479051   0.245952
    19  Cl  -0.501923   0.234149
    20  H   -0.205715   0.002000
    21  H   -0.155743  -0.000006
    22  H   -0.161968   0.000039
    23  H   -0.159436   0.000172
    24  H   -0.193473  -0.000064
    25  H   -0.253881   0.000750
    26  C    0.755785  -0.004646
    27  H   -0.165891   0.000326
    28  H   -0.076533  -0.000150
    29  H   -0.051495  -0.000432
    30  H   -0.148327   0.000357
    31  H   -0.216012  -0.000750
    32  H    0.018407   0.000057
    33  H    0.098913   0.001850
    34  H    0.016970   0.001501
    35  H    0.050903   0.000553
    36  H   -0.001119   0.000058
    37  H    0.157189   0.004799
    38  O   -0.703609   0.000004
    39  O   -0.634425   0.000963
    40  C    0.455159   0.000770
    41  C    0.044899  -0.000474
    42  H   -0.034390  -0.000005
    43  H   -0.041492   0.000016
    44  H   -0.007567  -0.000007
    45  H    0.021669   0.000046
    46  H    0.021922  -0.000058
 Sum of Mulliken charges =  -0.00000   5.00000

 Dipole moment (field-independent basis, Debye):
    X=              8.7014    Y=             10.9549    Z=              1.3806  Tot=             14.0581
 Quadrupole moment (field-independent basis, Debye-Ang):
   XX=           -197.5137   YY=           -148.7111   ZZ=           -176.7939
   XY=            -11.2141   XZ=            -15.0680   YZ=              2.2577

 Normal termination of Gaussian 16 at Sun Jun 20 11:48:16 2021.
