 Gaussian 16, Revision A.03,

 -----------------------------------------------------------
 #p opt=modredundant freq=noraman ub3lyp jul-cc-pvdz pop=cm5
 -----------------------------------------------------------

 -----
 title
 -----
 Symbolic Z-matrix:
 Charge =  0 Multiplicity = 6

 SCF Done:  E(UB3LYP) =  -3531.40815051     A.U. after   26 cycles
 SCF Done:  E(UB3LYP) =  -3531.40677174     A.U. after   18 cycles
 SCF Done:  E(UB3LYP) =  -3531.40430656     A.U. after   20 cycles
 SCF Done:  E(UB3LYP) =  -3531.40380732     A.U. after   20 cycles
 SCF Done:  E(UB3LYP) =  -3531.40827081     A.U. after   13 cycles
 SCF Done:  E(UB3LYP) =  -3531.40834301     A.U. after   18 cycles
 SCF Done:  E(UB3LYP) =  -3531.40857417     A.U. after   18 cycles
 SCF Done:  E(UB3LYP) =  -3531.40864714     A.U. after   18 cycles
 SCF Done:  E(UB3LYP) =  -3531.40878901     A.U. after   17 cycles
 SCF Done:  E(UB3LYP) =  -3531.40876463     A.U. after   16 cycles
 SCF Done:  E(UB3LYP) =  -3531.40883206     A.U. after   12 cycles
 SCF Done:  E(UB3LYP) =  -3531.40883228     A.U. after   11 cycles
 SCF Done:  E(UB3LYP) =  -3531.40883296     A.U. after   11 cycles
 SCF Done:  E(UB3LYP) =  -3531.40883339     A.U. after   10 cycles
 SCF Done:  E(UB3LYP) =  -3531.40883395     A.U. after   11 cycles
 SCF Done:  E(UB3LYP) =  -3531.40883422     A.U. after   10 cycles
 SCF Done:  E(UB3LYP) =  -3531.40883450     A.U. after    9 cycles
 Optimization completed.
    -- Stationary point found.
 Normal termination of Gaussian 16 at Sun Jun 20 15:00:30 2021.

 ----------------------------------------------------------------------
 #P Geom=AllCheck Guess=TCheck SCRF=Check GenChk UB3LYP/Jul-CC-pVDZ Fre
 q
 ----------------------------------------------------------------------

 Structure from the checkpoint file:  "checkpoint.chk"
 -----
 title
 -----
 Charge =  0 Multiplicity = 6

 SCF Done:  E(UB3LYP) =  -3531.40883450     A.U. after    1 cycles

  Exact polarizability: 321.584  11.244 299.521  13.774  10.726 306.320
 Approx polarizability: 501.076  41.764 460.407  17.739  13.546 510.302

 ******    2 imaginary frequencies (negative Signs) ******

                      1                      2                      3
                      A                      A                      A
 Frequencies --    -38.6896               -22.6496                20.9617
 Red. masses --      5.2374                 4.4105                 8.1154
 Frc consts  --      0.0046                 0.0013                 0.0021
 IR Inten    --      5.0854                51.0576                 1.5831

                      4                      5                      6
                      A                      A                      A
 Frequencies --     28.6284                38.1069                49.4081
 Red. masses --      5.7114                 6.1444                 5.9822
 Frc consts  --      0.0028                 0.0053                 0.0086
 IR Inten    --      8.1318                 0.7176                 2.0446

                      7                      8                      9
                      A                      A                      A
 Frequencies --     55.8299                62.8051                80.4685
 Red. masses --      6.6404                 2.5850                10.0904
 Frc consts  --      0.0122                 0.0060                 0.0385
 IR Inten    --      1.5905                 4.7492                 6.6778

                     10                     11                     12
                      A                      A                      A
 Frequencies --     83.5475                90.5219                94.2667
 Red. masses --      3.6561                 7.1630                 8.6026
 Frc consts  --      0.0150                 0.0346                 0.0450
 IR Inten    --     14.0912                 4.2994                 1.7314

                     13                     14                     15
                      A                      A                      A
 Frequencies --    104.9699               110.0596               123.1524
 Red. masses --      7.4326                 5.2056                 8.1627
 Frc consts  --      0.0483                 0.0372                 0.0729
 IR Inten    --      3.3583                12.5804                 9.4445

                     16                     17                     18
                      A                      A                      A
 Frequencies --    126.8012               148.2757               158.5381
 Red. masses --      8.2966                 4.5397                 3.5222
 Frc consts  --      0.0786                 0.0588                 0.0522
 IR Inten    --     20.7916                 8.7390                 6.5431

                     19                     20                     21
                      A                      A                      A
 Frequencies --    181.5277               190.5980               197.4966
 Red. masses --      1.5143                 2.6674                 3.0357
 Frc consts  --      0.0294                 0.0571                 0.0698
 IR Inten    --      1.0201                 1.7141                 7.0846

                     22                     23                     24
                      A                      A                      A
 Frequencies --    207.9443               223.2273               236.1064
 Red. masses --      1.5514                 1.9675                 2.4819
 Frc consts  --      0.0395                 0.0578                 0.0815
 IR Inten    --      3.6639                 0.3231                31.4789

                     25                     26                     27
                      A                      A                      A
 Frequencies --    243.8186               259.3629               289.8161
 Red. masses --      3.5242                 1.8059                 3.8876
 Frc consts  --      0.1234                 0.0716                 0.1924
 IR Inten    --     42.5211                 3.0803                 5.2372

                     28                     29                     30
                      A                      A                      A
 Frequencies --    318.5128               333.9727               349.3812
 Red. masses --      2.1483                11.4132                 6.4953
 Frc consts  --      0.1284                 0.7500                 0.4671
 IR Inten    --      0.2950                22.8399                 7.6408

                     31                     32                     33
                      A                      A                      A
 Frequencies --    361.0152               383.2950               390.7464
 Red. masses --      6.9005                 4.3771                32.5573
 Frc consts  --      0.5299                 0.3789                 2.9288
 IR Inten    --     30.1506                 5.9978                89.7107

                     34                     35                     36
                      A                      A                      A
 Frequencies --    395.8194               401.4449               411.0152
 Red. masses --     17.8837                 2.7794                 2.8636
 Frc consts  --      1.6508                 0.2639                 0.2850
 IR Inten    --     70.1478                20.1313                 0.6350

                     37                     38                     39
                      A                      A                      A
 Frequencies --    426.2078               457.3638               478.6158
 Red. masses --      3.5129                 4.1969                 3.3081
 Frc consts  --      0.3760                 0.5172                 0.4465
 IR Inten    --     28.3946                 0.5229                10.6878

                     40                     41                     42
                      A                      A                      A
 Frequencies --    507.7234               524.9717               562.9973
 Red. masses --      3.4244                 2.7785                 3.1270
 Frc consts  --      0.5201                 0.4512                 0.5840
 IR Inten    --     17.7133                 7.7175                32.3332

                     43                     44                     45
                      A                      A                      A
 Frequencies --    594.9184               624.0631               638.8982
 Red. masses --      3.7874                 6.0673                 4.2004
 Frc consts  --      0.7898                 1.3922                 1.0102
 IR Inten    --     54.3165                20.0242               103.3676

                     46                     47                     48
                      A                      A                      A
 Frequencies --    689.4814               700.3787               754.2106
 Red. masses --      1.6051                 6.1808                 4.5955
 Frc consts  --      0.4496                 1.7863                 1.5402
 IR Inten    --     55.8728                17.9706                 8.4246

                     49                     50                     51
                      A                      A                      A
 Frequencies --    767.5834               786.5525               802.1014
 Red. masses --      2.3381                 2.3719                 1.4280
 Frc consts  --      0.8117                 0.8646                 0.5413
 IR Inten    --     15.1294                11.6012                 6.5836

                     52                     53                     54
                      A                      A                      A
 Frequencies --    817.9872               839.8388               851.3663
 Red. masses --      2.6010                 1.2584                 1.4191
 Frc consts  --      1.0254                 0.5229                 0.6060
 IR Inten    --     19.5384                 1.3461                18.9700

                     55                     56                     57
                      A                      A                      A
 Frequencies --    863.5268               889.1171               917.1937
 Red. masses --      2.6725                 1.9351                 2.1007
 Frc consts  --      1.1742                 0.9013                 1.0412
 IR Inten    --     34.9935                 4.8293                12.8473

                     58                     59                     60
                      A                      A                      A
 Frequencies --    938.0605               944.3953               963.4277
 Red. masses --      1.2756                 1.4131                 3.5463
 Frc consts  --      0.6613                 0.7426                 1.9394
 IR Inten    --     13.4288                 0.5997                27.3503

                     61                     62                     63
                      A                      A                      A
 Frequencies --    985.3921               989.0156               999.7707
 Red. masses --      2.2481                 1.5704                 1.6106
 Frc consts  --      1.2861                 0.9051                 0.9485
 IR Inten    --     23.3885                10.6012                 0.9913

                     64                     65                     66
                      A                      A                      A
 Frequencies --   1002.7103              1004.9731              1008.9797
 Red. masses --      2.8299                 1.7564                 1.5853
 Frc consts  --      1.6764                 1.0451                 0.9509
 IR Inten    --      2.9850                 5.6930                 1.3372

                     67                     68                     69
                      A                      A                      A
 Frequencies --   1036.0731              1046.3708              1068.8701
 Red. masses --      2.6847                 2.5146                 2.3417
 Frc consts  --      1.6979                 1.6222                 1.5763
 IR Inten    --     41.6195                 4.0327                10.3905

                     70                     71                     72
                      A                      A                      A
 Frequencies --   1082.9459              1093.6296              1113.2834
 Red. masses --      1.7817                 1.9323                 1.5679
 Frc consts  --      1.2311                 1.3617                 1.1449
 IR Inten    --     38.9296                14.2729                10.4705

                     73                     74                     75
                      A                      A                      A
 Frequencies --   1133.0384              1136.7049              1161.3747
 Red. masses --      2.1300                 2.1825                 1.7086
 Frc consts  --      1.6111                 1.6615                 1.3578
 IR Inten    --     11.9792                10.5291                66.4015

                     76                     77                     78
                      A                      A                      A
 Frequencies --   1170.1979              1177.4651              1198.7258
 Red. masses --      1.5682                 1.0856                 1.4647
 Frc consts  --      1.2652                 0.8868                 1.2400
 IR Inten    --      3.1653                 1.2943                44.0713

                     79                     80                     81
                      A                      A                      A
 Frequencies --   1206.7846              1221.4588              1253.9132
 Red. masses --      1.3404                 2.0764                 1.9932
 Frc consts  --      1.1502                 1.8252                 1.8465
 IR Inten    --     45.0986                92.9762                37.1882

                     82                     83                     84
                      A                      A                      A
 Frequencies --   1258.4982              1285.8151              1307.1401
 Red. masses --      2.7153                 1.1165                 1.7876
 Frc consts  --      2.5338                 1.0876                 1.7996
 IR Inten    --    117.2636                 3.1150               239.9781

                     85                     86                     87
                      A                      A                      A
 Frequencies --   1320.4323              1330.4962              1336.5220
 Red. masses --      1.4337                 1.5274                 1.6784
 Frc consts  --      1.4727                 1.5930                 1.7664
 IR Inten    --     48.8687                55.0490                46.1701

                     88                     89                     90
                      A                      A                      A
 Frequencies --   1358.6080              1365.2755              1366.8230
 Red. masses --      1.4942                 3.3238                 1.4278
 Frc consts  --      1.6250                 3.6503                 1.5715
 IR Inten    --     15.2708                14.6262                34.2554

                     91                     92                     93
                      A                      A                      A
 Frequencies --   1382.5202              1395.9844              1406.8821
 Red. masses --      1.3864                 1.3710                 1.3281
 Frc consts  --      1.5613                 1.5741                 1.5487
 IR Inten    --     30.4148                39.6695                 8.7268

                     94                     95                     96
                      A                      A                      A
 Frequencies --   1411.8780              1416.9135              1461.1991
 Red. masses --      2.0040                 1.5264                 1.0952
 Frc consts  --      2.3536                 1.8056                 1.3777
 IR Inten    --    335.3782                30.8434                 5.6480

                     97                     98                     99
                      A                      A                      A
 Frequencies --   1468.0862              1473.3522              1474.5466
 Red. masses --      1.0725                 1.0452                 1.5294
 Frc consts  --      1.3620                 1.3368                 1.9593
 IR Inten    --     10.2598                 7.6477                34.0400

                    100                    101                    102
                      A                      A                      A
 Frequencies --   1475.3769              1485.6885              1487.1199
 Red. masses --      1.3647                 1.1288                 1.0544
 Frc consts  --      1.7503                 1.4679                 1.3739
 IR Inten    --     27.0675                43.2097                 2.1045

                    103                    104                    105
                      A                      A                      A
 Frequencies --   1495.4251              1505.4300              1505.5616
 Red. masses --      1.1438                 1.0875                 1.0903
 Frc consts  --      1.5070                 1.4522                 1.4562
 IR Inten    --      5.8230                 2.8878                23.1152

                    106                    107                    108
                      A                      A                      A
 Frequencies --   1516.8614              1616.0808              1638.6687
 Red. masses --      1.9543                 5.3820                 5.5802
 Frc consts  --      2.6493                 8.2817                 8.8284
 IR Inten    --      2.2285                 4.8739                76.3406

                    109                    110                    111
                      A                      A                      A
 Frequencies --   1643.4674              1767.0003              3017.7993
 Red. masses --      5.5612                11.4701                 1.0498
 Frc consts  --      8.8500                21.1004                 5.6332
 IR Inten    --    112.0357               230.2878                 1.5591

                    112                    113                    114
                      A                      A                      A
 Frequencies --   3024.3896              3042.3538              3046.2587
 Red. masses --      1.0473                 1.0360                 1.0637
 Frc consts  --      5.6439                 5.6497                 5.8156
 IR Inten    --      7.0726                18.5854                27.3705

                    115                    116                    117
                      A                      A                      A
 Frequencies --   3062.0458              3067.3501              3082.0580
 Red. masses --      1.0587                 1.0660                 1.0854
 Frc consts  --      5.8487                 5.9091                 6.0748
 IR Inten    --     13.7286                32.4713                 0.1485

                    118                    119                    120
                      A                      A                      A
 Frequencies --   3094.3406              3094.5250              3110.1073
 Red. masses --      1.0911                 1.0957                 1.1062
 Frc consts  --      6.1555                 6.1821                 6.3041
 IR Inten    --      2.1211                 8.1039                 9.3685

                    121                    122                    123
                      A                      A                      A
 Frequencies --   3116.4672              3118.5792              3125.7298
 Red. masses --      1.0822                 1.1022                 1.0981
 Frc consts  --      6.1926                 6.3158                 6.3210
 IR Inten    --      0.3957                16.0844                16.4502

                    124                    125                    126
                      A                      A                      A
 Frequencies --   3140.8139              3143.9380              3162.9520
 Red. masses --      1.1046                 1.1045                 1.0885
 Frc consts  --      6.4203                 6.4323                 6.4163
 IR Inten    --     14.0355                 3.2957                 8.9731

                    127                    128                    129
                      A                      A                      A
 Frequencies --   3165.3762              3174.7814              3188.4132
 Red. masses --      1.1029                 1.0863                 1.0914
 Frc consts  --      6.5107                 6.4510                 6.5369
 IR Inten    --      6.5630                 0.5818                 6.5822

                    130                    131                    132
                      A                      A                      A
 Frequencies --   3197.3288              3232.7005              3245.2781
 Red. masses --      1.0970                 1.0923                 1.0914
 Frc consts  --      6.6075                 6.7254                 6.7726
 IR Inten    --     12.3889                 1.3871                 1.6683

 - Thermochemistry -
 -------------------
 Temperature   298.150 Kelvin.  Pressure   1.00000 Atm.
 Atom     1 has atomic number  6 and mass  12.00000

 Molecular mass:   434.99839 amu.
 Principal axes and moments of inertia in atomic units:
                           1         2         3
     Eigenvalues --  9154.31319********************
           X            0.99840  -0.05487   0.01377
           Y            0.05438   0.99795   0.03377
           Z           -0.01559  -0.03296   0.99933
 This molecule is an asymmetric top.
 Rotational symmetry number  1.
 Warning -- assumption of classical behavior for rotation
           may cause significant error
 Rotational temperatures (Kelvin)      0.00946     0.00797     0.00691
 Rotational constants (GHZ):           0.19715     0.16616     0.14408
    2 imaginary frequencies ignored.
 Zero-point vibrational energy     943825.7 (Joules/Mol)
                                  225.57976 (Kcal/Mol)
 Warning -- explicit consideration of  41 degrees of freedom as
           vibrations may cause significant error
 Vibrational temperatures:     30.16    41.19    54.83    71.09    80.33
          (Kelvin)             90.36   115.78   120.21   130.24   135.63
                              151.03   158.35   177.19   182.44   213.34
                              228.10   261.18   274.23   284.15   299.19
                              321.17   339.70   350.80   373.17   416.98
                              458.27   480.51   502.68   519.42   551.48
                              562.20   569.50   577.59   591.36   613.22
                              658.04   688.62   730.50   755.32   810.03
                              855.95   897.89   919.23   992.01  1007.69
                             1085.14  1104.38  1131.67  1154.05  1176.90
                             1208.34  1224.93  1242.42  1279.24  1319.64
                             1349.66  1358.77  1386.16  1417.76  1422.97
                             1438.45  1442.68  1445.93  1451.70  1490.68
                             1505.49  1537.87  1558.12  1573.49  1601.77
                             1630.19  1635.46  1670.96  1683.65  1694.11
                             1724.70  1736.29  1757.41  1804.10  1810.70
                             1850.00  1880.68  1899.81  1914.29  1922.96
                             1954.73  1964.33  1966.55  1989.14  2008.51
                             2024.19  2031.38  2038.62  2102.34  2112.25
                             2119.83  2121.54  2122.74  2137.57  2139.63
                             2151.58  2165.98  2166.17  2182.43  2325.18
                             2357.68  2364.58  2542.32  4341.94  4351.42
                             4377.27  4382.89  4405.60  4413.23  4434.39
                             4452.07  4452.33  4474.75  4483.90  4486.94
                             4497.23  4518.93  4523.43  4550.78  4554.27
                             4567.80  4587.42  4600.24  4651.14  4669.23

 Zero-point correction=                           0.359484 (Hartree/Particle)
 Thermal correction to Energy=                    0.385982
 Thermal correction to Enthalpy=                  0.386926
 Thermal correction to Gibbs Free Energy=         0.299101
 Sum of electronic and zero-point Energies=          -3531.049350
 Sum of electronic and thermal Energies=             -3531.022852
 Sum of electronic and thermal Enthalpies=           -3531.021908
 Sum of electronic and thermal Free Energies=        -3531.109733

                     E (Thermal)             CV                S
                      KCal/Mol        Cal/Mol-Kelvin    Cal/Mol-Kelvin
 Total                  242.207             95.645            184.843
 Electronic               0.000              0.000              3.561
 Translational            0.889              2.981             44.100
 Rotational               0.889              2.981             35.475
 Vibrational            240.430             89.683            101.707
 Vibration     1          0.593              1.986              6.541
 Vibration     2          0.593              1.984              5.922
 Vibration     3          0.594              1.982              5.355
 Vibration     4          0.595              1.978              4.841
 Vibration     5          0.596              1.975              4.599
 Vibration     6          0.597              1.972              4.367
 Vibration     7          0.600              1.962              3.879
 Vibration     8          0.600              1.961              3.806
 Vibration     9          0.602              1.956              3.649
 Vibration    10          0.603              1.953              3.570
 Vibration    11          0.605              1.945              3.360
 Vibration    12          0.606              1.941              3.268
 Vibration    13          0.610              1.930              3.050
 Vibration    14          0.611              1.926              2.994
 Vibration    15          0.618              1.905              2.694
 Vibration    16          0.621              1.893              2.567
 Vibration    17          0.630              1.865              2.313
 Vibration    18          0.634              1.853              2.222
 Vibration    19          0.637              1.843              2.156
 Vibration    20          0.641              1.829              2.062
 Vibration    21          0.649              1.806              1.933
 Vibration    22          0.655              1.785              1.832
 Vibration    23          0.659              1.773              1.775
 Vibration    24          0.668              1.747              1.666
 Vibration    25          0.686              1.693              1.475
 Vibration    26          0.705              1.638              1.318
 Vibration    27          0.715              1.608              1.241
 Vibration    28          0.727              1.577              1.169
 Vibration    29          0.735              1.553              1.118
 Vibration    30          0.752              1.506              1.026
 Vibration    31          0.758              1.490              0.997
 Vibration    32          0.763              1.479              0.978
 Vibration    33          0.767              1.467              0.957
 Vibration    34          0.775              1.446              0.923
 Vibration    35          0.788              1.413              0.871
 Vibration    36          0.815              1.345              0.774
 Vibration    37          0.835              1.297              0.714
 Vibration    38          0.863              1.233              0.639
 Vibration    39          0.880              1.195              0.599
 Vibration    40          0.919              1.111              0.518
 Vibration    41          0.953              1.043              0.458

 Optimization completed.
    -- Stationary point found.
 Normal termination of Gaussian 16 at Sun Jun 20 18:26:06 2021.

 ----------------------------------------------------------------------
 #p ub3lyp jul-cc-pvdz pop=cm5 scrf=(pcm,solvent=dichloroethane) guess=
 read geom=allcheck
 ----------------------------------------------------------------------

 Structure from the checkpoint file:  "checkpoint.chk"
 -----
 title
 -----
 Charge =  0 Multiplicity = 6

 SCF Done:  E(UB3LYP) =  -3531.42726315     A.U. after   20 cycles
 Normal termination of Gaussian 16 at Sun Jun 20 18:48:55 2021.
 Gaussian 16:  ES64L-G16RevA.03 25-Dec-2016

 ----------------------------------------------------------------------
 #p ub3lyp jul-cc-pvdz pop=cm5 scrf=(pcm,solvent=water) guess=read geom
 =allcheck
 ----------------------------------------------------------------------

 Structure from the checkpoint file:  "checkpoint.chk"
 -----
 title
 -----
 Charge =  0 Multiplicity = 6

                         Standard orientation:
 ---------------------------------------------------------------------
 Center     Atomic      Atomic             Coordinates (Angstroms)
 Number     Number       Type             X           Y           Z
 ---------------------------------------------------------------------
      1          6           0        3.185204    0.088958    0.597382
      2          6           0        1.868942   -0.403518    0.727355
      3          6           0        1.458211   -0.914395    1.977223
      4          6           0        2.337676   -0.940797    3.057694
      5          6           0        3.642743   -0.460540    2.911274
      6          6           0        4.060897    0.057908    1.679515
      7          6           0        0.883971   -0.370530   -0.380569
      8          6           0        1.019954    0.606074   -1.573858
      9          6           0        2.058377    0.195460   -2.631209
     10          6           0        1.855549   -1.290340   -2.979530
     11          6           0        1.681150   -2.071712   -1.707401
     12          6           0        0.505772   -2.585217   -1.236433
     13          6           0       -0.765885   -2.591424   -2.036471
     14          8           0       -0.288037   -0.848022   -0.144635
     15         26           0       -2.052640   -0.225284    0.428215
     16         17           0       -3.012681    0.690274   -1.339884
     17          6           0        0.508291   -3.476338   -0.031109
     18         17           0       -1.773428    1.149276    2.134484
     19         17           0       -3.053282   -2.094368    1.074133
     20          1           0        0.437345   -1.265315    2.102010
     21          1           0        1.998699   -1.327410    4.019189
     22          1           0        4.331133   -0.479390    3.757753
     23          1           0        5.072822    0.447429    1.564049
     24          1           0        3.527725    0.515525   -0.339935
     25          1           0        0.021090    0.604549   -2.027631
     26          6           0        1.267361    2.042491   -1.080095
     27          1           0        1.938100    0.836050   -3.515756
     28          1           0        3.073581    0.373896   -2.260186
     29          1           0        0.984903   -1.404701   -3.637481
     30          1           0        2.726636   -1.660942   -3.539519
     31          1           0        2.588046   -2.283267   -1.139193
     32          1           0        0.390426   -4.514560   -0.384381
     33          1           0        1.445968   -3.418908    0.533196
     34          1           0       -0.344247   -3.270709    0.627485
     35          1           0       -0.720906   -3.463664   -2.711194
     36          1           0       -1.643957   -2.717136   -1.394770
     37          1           0       -0.907643   -1.701380   -2.655647
     38          8           0        0.129448    2.592575   -0.650869
     39          8           0        2.344562    2.600011   -1.103900
     40          6           0        0.205570    3.961453   -0.146329
     41          6           0       -1.210675    4.464243    0.037526
     42          1           0        0.766148    3.934947    0.798055
     43          1           0        0.776440    4.557854   -0.869383
     44          1           0       -1.177300    5.492140    0.427056
     45          1           0       -1.751759    4.471717   -0.918376
     46          1           0       -1.761397    3.835387    0.748047
 ---------------------------------------------------------------------

 SCF Done:  E(UB3LYP) =  -3531.43072014     A.U. after   17 cycles

 The electronic state is 6-A.
 Alpha  occ. eigenvalues -- -256.20684-101.52304-101.52271-101.52260 -30.20038
 Alpha  occ. eigenvalues --  -26.05387 -26.05263 -26.05175 -19.20859 -19.17840
 Alpha  occ. eigenvalues --  -19.15866 -10.33816 -10.33501 -10.25035 -10.24271
 Alpha  occ. eigenvalues --  -10.23152 -10.22584 -10.21608 -10.21607 -10.21532
 Alpha  occ. eigenvalues --  -10.20990 -10.20938 -10.20530 -10.19968 -10.19841
 Alpha  occ. eigenvalues --  -10.19225 -10.19145 -10.18579  -9.44021  -9.43993
 Alpha  occ. eigenvalues --   -9.43976  -7.19890  -7.19859  -7.19842  -7.19572
 Alpha  occ. eigenvalues --   -7.19561  -7.19537  -7.19534  -7.19524  -7.19520
 Alpha  occ. eigenvalues --   -3.67725  -2.45288  -2.45050  -2.44883  -1.12777
 Alpha  occ. eigenvalues --   -1.08666  -1.04272  -0.88368  -0.85857  -0.83277
 Alpha  occ. eigenvalues --   -0.80310  -0.79567  -0.79532  -0.78760  -0.78704
 Alpha  occ. eigenvalues --   -0.77016  -0.75028  -0.71264  -0.70432  -0.66983
 Alpha  occ. eigenvalues --   -0.64775  -0.62735  -0.61791  -0.59796  -0.57613
 Alpha  occ. eigenvalues --   -0.56117  -0.53761  -0.53292  -0.51839  -0.50798
 Alpha  occ. eigenvalues --   -0.50275  -0.49380  -0.49142  -0.48142  -0.47968
 Alpha  occ. eigenvalues --   -0.47725  -0.47513  -0.47020  -0.46843  -0.45972
 Alpha  occ. eigenvalues --   -0.45333  -0.45087  -0.43998  -0.43079  -0.42709
 Alpha  occ. eigenvalues --   -0.42406  -0.40878  -0.40431  -0.40169  -0.40028
 Alpha  occ. eigenvalues --   -0.38879  -0.38554  -0.37975  -0.37846  -0.37703
 Alpha  occ. eigenvalues --   -0.37305  -0.37101  -0.36463  -0.36092  -0.35383
 Alpha  occ. eigenvalues --   -0.34621  -0.34047  -0.33972  -0.32340  -0.32020
 Alpha  occ. eigenvalues --   -0.31190  -0.31108  -0.30854  -0.30781  -0.30116
 Alpha  occ. eigenvalues --   -0.29724  -0.29441  -0.28527  -0.27655  -0.24700
 Alpha virt. eigenvalues --   -0.11214  -0.03305  -0.02366  -0.01718  -0.01265
 Alpha virt. eigenvalues --   -0.00128   0.00016   0.00070   0.01004   0.01557
 Alpha virt. eigenvalues --    0.01697   0.01970   0.02440   0.02783   0.03189

  Beta  occ. eigenvalues -- -256.20499-101.52119-101.52093-101.52080 -30.11127
  Beta  occ. eigenvalues --  -25.97876 -25.97858 -25.97810 -19.20859 -19.17372
  Beta  occ. eigenvalues --  -19.15865 -10.33816 -10.33504 -10.25035 -10.24241
  Beta  occ. eigenvalues --  -10.23141 -10.22566 -10.21612 -10.21612 -10.21538
  Beta  occ. eigenvalues --  -10.20986 -10.20935 -10.20523 -10.19883 -10.19842
  Beta  occ. eigenvalues --  -10.19225 -10.19145 -10.18578  -9.43839  -9.43818
  Beta  occ. eigenvalues --   -9.43799  -7.19586  -7.19562  -7.19546  -7.19321
  Beta  occ. eigenvalues --   -7.19309  -7.19302  -7.19296  -7.19283  -7.19273
  Beta  occ. eigenvalues --   -3.46937  -2.23217  -2.23146  -2.23128  -1.12774
  Beta  occ. eigenvalues --   -1.07770  -1.04271  -0.88334  -0.85733  -0.83213
  Beta  occ. eigenvalues --   -0.79142  -0.78752  -0.78673  -0.78280  -0.78263
  Beta  occ. eigenvalues --   -0.77015  -0.74982  -0.71231  -0.70298  -0.66878
  Beta  occ. eigenvalues --   -0.64724  -0.62708  -0.61723  -0.59398  -0.57415
  Beta  occ. eigenvalues --   -0.55620  -0.53663  -0.52615  -0.51783  -0.50493
  Beta  occ. eigenvalues --   -0.49614  -0.49011  -0.48678  -0.47541  -0.47123
  Beta  occ. eigenvalues --   -0.45907  -0.45246  -0.44011  -0.43111  -0.42713
  Beta  occ. eigenvalues --   -0.42355  -0.40850  -0.40434  -0.40175  -0.40020
  Beta  occ. eigenvalues --   -0.38736  -0.38503  -0.38057  -0.37953  -0.37776
  Beta  occ. eigenvalues --   -0.37563  -0.37092  -0.36478  -0.36100  -0.35934
  Beta  occ. eigenvalues --   -0.35894  -0.35344  -0.34133  -0.33374  -0.33040
  Beta  occ. eigenvalues --   -0.32527  -0.32457  -0.32147  -0.31176  -0.30520
  Beta  occ. eigenvalues --   -0.29656  -0.29469  -0.28768  -0.27661  -0.24596
  Beta virt. eigenvalues --   -0.14728  -0.14286  -0.13589  -0.13159  -0.13081
  Beta virt. eigenvalues --   -0.10440  -0.03296  -0.02311  -0.01642  -0.01145
  Beta virt. eigenvalues --   -0.00090   0.00063   0.00102   0.01187   0.01578

 Mulliken charges and spin densities:
               1          2
     1  C    0.227308  -0.002559
     2  C    2.996253  -0.006368
     3  C   -0.586596  -0.013148
     4  C    0.087826   0.006502
     5  C    0.283442  -0.003373
     6  C   -0.114295   0.003729
     7  C   -2.338038  -0.007624
     8  C    0.439165   0.015002
     9  C    0.500370   0.006448
    10  C    0.639517  -0.006214
    11  C    0.381969   0.064164
    12  C   -0.280207   0.011744
    13  C    0.275492   0.000552
    14  O   -0.435141   0.139693
    15  Fe   0.702985   4.052438
    16  Cl  -0.536219   0.240056
    17  C    0.349826  -0.000612
    18  Cl  -0.502444   0.247794
    19  Cl  -0.507451   0.243419
    20  H   -0.264937   0.000557
    21  H   -0.158446  -0.000016
    22  H   -0.149673   0.000074
    23  H   -0.153589   0.000121
    24  H   -0.237232  -0.000102
    25  H   -0.180011  -0.001023
    26  C    0.811731   0.002611
    27  H   -0.128163   0.000289
    28  H   -0.013123  -0.000061
    29  H   -0.078894   0.000215
    30  H   -0.114511   0.002120
    31  H   -0.271759  -0.002249
    32  H   -0.011176   0.001331
    33  H    0.003563   0.000126
    34  H    0.058663   0.000648
    35  H    0.002703   0.001067
    36  H    0.040752   0.001273
    37  H    0.059678  -0.000202
    38  O   -0.659333   0.002291
    39  O   -0.586241   0.000676
    40  C    0.427012   0.000610
    41  C    0.043471  -0.001586
    42  H   -0.032853  -0.000023
    43  H   -0.037399   0.000026
    44  H   -0.008588   0.000060
    45  H    0.026125   0.000058
    46  H    0.028470  -0.000533
 Sum of Mulliken charges =  -0.00000   5.00000

 Dipole moment (field-independent basis, Debye):
    X=             10.6635    Y=             -2.7133    Z=             -2.9342  Tot=             11.3878
 Quadrupole moment (field-independent basis, Debye-Ang):
   XX=           -190.9483   YY=           -165.3097   ZZ=           -166.6249
   XY=            -11.3220   XZ=              9.2788   YZ=              5.0542

 Normal termination of Gaussian 16 at Sun Jun 20 19:08:18 2021.
