 Gaussian 16, Revision A.03,

 -----------------------------------------------------------
 #p opt=modredundant freq=noraman ub3lyp jul-cc-pvdz pop=cm5
 -----------------------------------------------------------

 -----
 title
 -----
 Symbolic Z-matrix:
 Charge =  0 Multiplicity = 6

 SCF Done:  E(UB3LYP) =  -3531.42727732     A.U. after   22 cycles
 SCF Done:  E(UB3LYP) =  -3531.42671108     A.U. after   14 cycles
 SCF Done:  E(UB3LYP) =  -3531.42484637     A.U. after   15 cycles
 SCF Done:  E(UB3LYP) =  -3531.42399345     A.U. after   16 cycles
 SCF Done:  E(UB3LYP) =  -3531.42742528     A.U. after   10 cycles
 SCF Done:  E(UB3LYP) =  -3531.42728175     A.U. after   15 cycles
 SCF Done:  E(UB3LYP) =  -3531.42778991     A.U. after   14 cycles
 SCF Done:  E(UB3LYP) =  -3531.42779738     A.U. after   14 cycles
 SCF Done:  E(UB3LYP) =  -3531.42783720     A.U. after   15 cycles
 SCF Done:  E(UB3LYP) =  -3531.42784466     A.U. after   13 cycles
 SCF Done:  E(UB3LYP) =  -3531.42784876     A.U. after   12 cycles
 SCF Done:  E(UB3LYP) =  -3531.42785094     A.U. after   11 cycles
 SCF Done:  E(UB3LYP) =  -3531.42785209     A.U. after   12 cycles
 SCF Done:  E(UB3LYP) =  -3531.42785246     A.U. after   11 cycles
 SCF Done:  E(UB3LYP) =  -3531.42785257     A.U. after   10 cycles
 SCF Done:  E(UB3LYP) =  -3531.42785254     A.U. after    8 cycles
 Optimization completed.
    -- Stationary point found.
 Normal termination of Gaussian 16 at Sun Jun 20 03:43:54 2021.

 ----------------------------------------------------------------------
 #P Geom=AllCheck Guess=TCheck SCRF=Check GenChk UB3LYP/Jul-CC-pVDZ Fre
 q
 ----------------------------------------------------------------------

 Structure from the checkpoint file:  "checkpoint.chk"
 -----
 title
 -----
 Charge =  0 Multiplicity = 6

 SCF Done:  E(UB3LYP) =  -3531.42785254     A.U. after    2 cycles

  Exact polarizability: 282.389   6.730 294.248  23.160   2.027 285.261
 Approx polarizability: 412.411   8.226 465.245  42.668  -2.087 451.566

                      1                      2                      3
                      A                      A                      A
 Frequencies --     19.3025                26.9713                32.8286
 Red. masses --      5.9810                 6.0616                 4.7116
 Frc consts  --      0.0013                 0.0026                 0.0030
 IR Inten    --      0.5246                 0.4179                 0.1971

                      4                      5                      6
                      A                      A                      A
 Frequencies --     41.9908                47.4552                64.1577
 Red. masses --      5.0015                 4.8320                 2.5494
 Frc consts  --      0.0052                 0.0064                 0.0062
 IR Inten    --      0.3553                 1.6609                 0.4817

                      7                      8                      9
                      A                      A                      A
 Frequencies --     68.9199                77.8637                80.3853
 Red. masses --      5.5996                11.3209                 7.8905
 Frc consts  --      0.0157                 0.0404                 0.0300
 IR Inten    --      0.4631                 0.5857                 0.8984

                     10                     11                     12
                      A                      A                      A
 Frequencies --     87.0283               102.7688               115.2620
 Red. masses --      9.5516                 6.0779                17.0264
 Frc consts  --      0.0426                 0.0378                 0.1333
 IR Inten    --      2.2605                 0.8762                 1.5765

                     13                     14                     15
                      A                      A                      A
 Frequencies --    116.7721               121.6222               128.8827
 Red. masses --     12.0107                 4.9344                 3.9331
 Frc consts  --      0.0965                 0.0430                 0.0385
 IR Inten    --      2.4308                 0.4054                 4.0492

                     16                     17                     18
                      A                      A                      A
 Frequencies --    145.1940               170.9638               184.7912
 Red. masses --      3.7491                 2.4434                 4.4753
 Frc consts  --      0.0466                 0.0421                 0.0900
 IR Inten    --      5.1838                 0.9554                 6.4037

                     19                     20                     21
                      A                      A                      A
 Frequencies --    193.5810               218.0439               223.6202
 Red. masses --      3.6569                 1.3289                 3.2525
 Frc consts  --      0.0807                 0.0372                 0.0958
 IR Inten    --      3.4170                 0.4834                 8.7218

                     22                     23                     24
                      A                      A                      A
 Frequencies --    239.8758               249.9432               257.9888
 Red. masses --      2.9400                 2.7526                 1.6298
 Frc consts  --      0.0997                 0.1013                 0.0639
 IR Inten    --      0.4418                 4.6694                 0.7370

                     25                     26                     27
                      A                      A                      A
 Frequencies --    264.6400               297.9881               312.6556
 Red. masses --      1.2133                 3.3924                 2.8867
 Frc consts  --      0.0501                 0.1775                 0.1663
 IR Inten    --      0.8660                 5.9225                 1.8669

                     28                     29                     30
                      A                      A                      A
 Frequencies --    338.2616               340.3781               357.1229
 Red. masses --     16.6823                 4.4518                 4.6522
 Frc consts  --      1.1246                 0.3039                 0.3496
 IR Inten    --     92.6771                 8.2942                10.9873

                     31                     32                     33
                      A                      A                      A
 Frequencies --    372.3652               387.6062               398.4727
 Red. masses --      3.1317                 5.4672                11.5580
 Frc consts  --      0.2558                 0.4839                 1.0813
 IR Inten    --      2.8050                 4.3764               115.3858

                     34                     35                     36
                      A                      A                      A
 Frequencies --    400.2164               406.2719               413.1221
 Red. masses --      3.6115                10.4211                 3.5719
 Frc consts  --      0.3408                 1.0134                 0.3592
 IR Inten    --      1.7619                95.3876                44.4095

                     37                     38                     39
                      A                      A                      A
 Frequencies --    428.7447               469.7110               513.9103
 Red. masses --      4.9608                 4.0321                 3.4464
 Frc consts  --      0.5373                 0.5241                 0.5363
 IR Inten    --     24.5695                 5.7940                14.8109

                     40                     41                     42
                      A                      A                      A
 Frequencies --    527.0616               548.1543               625.9924
 Red. masses --      2.6754                 2.8894                 5.4333
 Frc consts  --      0.4379                 0.5115                 1.2545
 IR Inten    --      2.0308                 5.9369                 2.5460

                     43                     44                     45
                      A                      A                      A
 Frequencies --    630.9989               663.3665               690.7621
 Red. masses --      5.0133                 5.0845                 3.5609
 Frc consts  --      1.1761                 1.3183                 1.0011
 IR Inten    --      8.6258                14.0588                 5.4705

                     46                     47                     48
                      A                      A                      A
 Frequencies --    706.8076               745.5102               758.7046
 Red. masses --      1.6145                 4.7570                 2.8925
 Frc consts  --      0.4752                 1.5577                 0.9810
 IR Inten    --     43.7511                23.8360                 9.7282

                     49                     50                     51
                      A                      A                      A
 Frequencies --    783.8592               795.4901               806.7994
 Red. masses --      2.9746                 3.1031                 1.1983
 Frc consts  --      1.0768                 1.1569                 0.4596
 IR Inten    --     14.5200                10.9909                 0.4619

                     52                     53                     54
                      A                      A                      A
 Frequencies --    841.8328               845.7043               871.3454
 Red. masses --      2.8210                 1.2719                 2.7177
 Frc consts  --      1.1779                 0.5360                 1.2157
 IR Inten    --     51.5240                 1.8852                 9.4709

                     55                     56                     57
                      A                      A                      A
 Frequencies --    878.3517               915.9634               925.7106
 Red. masses --      3.0740                 2.1401                 1.5158
 Frc consts  --      1.3973                 1.0579                 0.7653
 IR Inten    --      3.2302                92.6407                 2.2418

                     58                     59                     60
                      A                      A                      A
 Frequencies --    936.4272               941.1791               957.9963
 Red. masses --      1.6835                 2.5206                 2.8523
 Frc consts  --      0.8698                 1.3155                 1.5423
 IR Inten    --      8.8429                21.5833                19.2030

                     61                     62                     63
                      A                      A                      A
 Frequencies --    979.2444               981.9905              1001.8224
 Red. masses --      2.1332                 1.3624                 1.3218
 Frc consts  --      1.2052                 0.7740                 0.7816
 IR Inten    --     10.2368                 1.4655                 1.2975

                     64                     65                     66
                      A                      A                      A
 Frequencies --   1006.0174              1009.5413              1017.0214
 Red. masses --      5.1665                 1.5521                 2.2341
 Frc consts  --      3.0808                 0.9320                 1.3615
 IR Inten    --      1.6355                 3.7540                22.8689

                     67                     68                     69
                      A                      A                      A
 Frequencies --   1037.4254              1048.1081              1054.0348
 Red. masses --      2.6083                 2.8606                 1.9755
 Frc consts  --      1.6539                 1.8515                 1.2931
 IR Inten    --     23.8354                15.4327                 8.7929

                     70                     71                     72
                      A                      A                      A
 Frequencies --   1062.2179              1100.8656              1102.9455
 Red. masses --      2.0061                 1.9725                 1.8734
 Frc consts  --      1.3336                 1.4084                 1.3428
 IR Inten    --      4.8671                 4.7071                25.8118

                     73                     74                     75
                      A                      A                      A
 Frequencies --   1118.2052              1132.6492              1142.0112
 Red. masses --      1.6702                 2.1810                 1.6783
 Frc consts  --      1.2305                 1.6485                 1.2896
 IR Inten    --      3.3058                 8.5401                12.5359

                     76                     77                     78
                      A                      A                      A
 Frequencies --   1160.1331              1169.2188              1175.4755
 Red. masses --      1.6226                 1.5576                 1.0865
 Frc consts  --      1.2867                 1.2546                 0.8846
 IR Inten    --     31.0551                 1.8918                 0.1072

                     79                     80                     81
                      A                      A                      A
 Frequencies --   1198.3947              1208.5008              1221.8119
 Red. masses --      1.9600                 1.1574                 1.8874
 Frc consts  --      1.6584                 0.9959                 1.6601
 IR Inten    --    158.6024                 6.7920                73.2533

                     82                     83                     84
                      A                      A                      A
 Frequencies --   1249.2611              1266.5631              1283.1300
 Red. masses --      1.7391                 2.4240                 1.1113
 Frc consts  --      1.5991                 2.2910                 1.0780
 IR Inten    --     32.9079                44.3132                 1.4841

                     85                     86                     87
                      A                      A                      A
 Frequencies --   1295.3218              1303.1508              1316.5117
 Red. masses --      2.0918                 1.8317                 1.3660
 Frc consts  --      2.0678                 1.8327                 1.3949
 IR Inten    --     49.9567                11.6768                 2.3913

                     88                     89                     90
                      A                      A                      A
 Frequencies --   1326.1291              1334.3402              1359.7422
 Red. masses --      1.6873                 1.9149                 2.1954
 Frc consts  --      1.7483                 2.0088                 2.3915
 IR Inten    --     31.3697                18.5424                 0.2161

                     91                     92                     93
                      A                      A                      A
 Frequencies --   1363.6375              1374.2466              1389.6952
 Red. masses --      1.4124                 1.5232                 1.5416
 Frc consts  --      1.5474                 1.6949                 1.7541
 IR Inten    --     30.2286                 5.2446                60.6249

                     94                     95                     96
                      A                      A                      A
 Frequencies --   1406.8608              1413.4658              1416.5611
 Red. masses --      1.4362                 1.2407                 1.4989
 Frc consts  --      1.6748                 1.4604                 1.7721
 IR Inten    --     26.8826                20.8893                 4.1433

                     97                     98                     99
                      A                      A                      A
 Frequencies --   1462.1056              1468.2407              1473.6448
 Red. masses --      1.0709                 2.2745                 1.0394
 Frc consts  --      1.3488                 2.8889                 1.3299
 IR Inten    --      1.2036                 8.0345                 3.9606

                    100                    101                    102
                      A                      A                      A
 Frequencies --   1477.9981              1483.1868              1487.3285
 Red. masses --      1.0637                 1.0801                 1.0522
 Frc consts  --      1.3691                 1.3999                 1.3714
 IR Inten    --      0.3622                 1.3114                 2.1574

                    103                    104                    105
                      A                      A                      A
 Frequencies --   1488.8826              1499.4138              1507.1984
 Red. masses --      1.0748                 1.0879                 1.0846
 Frc consts  --      1.4038                 1.4411                 1.4516
 IR Inten    --      4.6037                11.2819                 5.9968

                    106                    107                    108
                      A                      A                      A
 Frequencies --   1511.4128              1524.3931              1624.9130
 Red. masses --      1.0718                 2.2561                 5.6436
 Frc consts  --      1.4425                 3.0889                 8.7794
 IR Inten    --      3.4778                 3.1413                 0.4692

                    109                    110                    111
                      A                      A                      A
 Frequencies --   1648.0056              1772.5910              3027.7649
 Red. masses --      5.7528                11.5723                 1.0432
 Frc consts  --      9.2055                21.4233                 5.6346
 IR Inten    --      0.0241               202.2710                 2.5054

                    112                    113                    114
                      A                      A                      A
 Frequencies --   3036.9665              3040.1605              3057.9632
 Red. masses --      1.0441                 1.0355                 1.0600
 Frc consts  --      5.6735                 5.6388                 5.8403
 IR Inten    --     11.6621                18.9625                 4.6831

                    115                    116                    117
                      A                      A                      A
 Frequencies --   3058.4060              3065.5687              3083.5720
 Red. masses --      1.0586                 1.0616                 1.0866
 Frc consts  --      5.8341                 5.8778                 6.0872
 IR Inten    --     20.7893                39.4658                 7.4052

                    118                    119                    120
                      A                      A                      A
 Frequencies --   3097.7869              3102.0861              3112.1274
 Red. masses --      1.1030                 1.1069                 1.0913
 Frc consts  --      6.2364                 6.2760                 6.2272
 IR Inten    --      6.9799                 6.4019                 4.1729

                    121                    122                    123
                      A                      A                      A
 Frequencies --   3114.7118              3115.8354              3122.2473
 Red. masses --      1.1035                 1.1020                 1.0905
 Frc consts  --      6.3073                 6.3034                 6.2636
 IR Inten    --     14.0514                22.5898                 5.4779

                    124                    125                    126
                      A                      A                      A
 Frequencies --   3132.8438              3135.3947              3151.5097
 Red. masses --      1.1045                 1.0890                 1.1049
 Frc consts  --      6.3871                 6.3073                 6.4658
 IR Inten    --     24.6017                11.4756                 4.8308

                    127                    128                    129
                      A                      A                      A
 Frequencies --   3158.5490              3170.1776              3180.0173
 Red. masses --      1.1039                 1.0849                 1.0884
 Frc consts  --      6.4885                 6.4238                 6.4847
 IR Inten    --      5.3805                 0.0367                 7.0288

                    130                    131                    132
                      A                      A                      A
 Frequencies --   3188.9279              3195.7285              3200.3021
 Red. masses --      1.0919                 1.0940                 1.0983
 Frc consts  --      6.5419                 6.5830                 6.6277
 IR Inten    --     10.2258                 9.4787                10.4933

 - Thermochemistry -
 -------------------
 Temperature   298.150 Kelvin.  Pressure   1.00000 Atm.
 Atom     1 has atomic number  6 and mass  12.00000

 Molecular mass:   434.99839 amu.
 Principal axes and moments of inertia in atomic units:
                           1         2         3
     Eigenvalues --  8983.94722********************
           X            0.99557   0.09279   0.01502
           Y           -0.09312   0.99540   0.02252
           Z           -0.01286  -0.02382   0.99963
 This molecule is an asymmetric top.
 Rotational symmetry number  1.
 Warning -- assumption of classical behavior for rotation
           may cause significant error
 Rotational temperatures (Kelvin)      0.00964     0.00745     0.00686
 Rotational constants (GHZ):           0.20089     0.15514     0.14294
 Zero-point vibrational energy     945767.1 (Joules/Mol)
                                  226.04376 (Kcal/Mol)
 Warning -- explicit consideration of  41 degrees of freedom as
           vibrations may cause significant error
 Vibrational temperatures:     27.77    38.81    47.23    60.42    68.28
          (Kelvin)             92.31    99.16   112.03   115.66   125.21
                              147.86   165.84   168.01   174.99   185.43
                              208.90   245.98   265.87   278.52   313.72
                              321.74   345.13   359.61   371.19   380.76
                              428.74   449.84   486.68   489.73   513.82
                              535.75   557.68   573.31   575.82   584.53
                              594.39   616.87   675.81   739.40   758.32
                              788.67   900.66   907.87   954.44   993.85
                             1016.94  1072.62  1091.61  1127.80  1144.53
                             1160.80  1211.21  1216.78  1253.67  1263.75
                             1317.87  1331.89  1347.31  1354.15  1378.34
                             1408.91  1412.87  1441.40  1447.43  1452.50
                             1463.27  1492.62  1507.99  1516.52  1528.29
                             1583.90  1586.89  1608.85  1629.63  1643.10
                             1669.17  1682.25  1691.25  1724.22  1738.76
                             1757.91  1797.41  1822.30  1846.14  1863.68
                             1874.94  1894.17  1908.00  1919.82  1956.37
                             1961.97  1977.23  1999.46  2024.16  2033.66
                             2038.12  2103.64  2112.47  2120.25  2126.51
                             2133.97  2139.93  2142.17  2157.32  2168.52
                             2174.59  2193.26  2337.89  2371.11  2550.36
                             4356.28  4369.52  4374.11  4399.73  4400.36
                             4410.67  4436.57  4457.02  4463.21  4477.66
                             4481.38  4482.99  4492.22  4507.46  4511.13
                             4534.32  4544.45  4561.18  4575.34  4588.16
                             4597.94  4604.52

 Zero-point correction=                           0.360224 (Hartree/Particle)
 Thermal correction to Energy=                    0.387510
 Thermal correction to Enthalpy=                  0.388455
 Thermal correction to Gibbs Free Energy=         0.298391
 Sum of electronic and zero-point Energies=          -3531.067629
 Sum of electronic and thermal Energies=             -3531.040342
 Sum of electronic and thermal Enthalpies=           -3531.039398
 Sum of electronic and thermal Free Energies=        -3531.129461

                     E (Thermal)             CV                S
                      KCal/Mol        Cal/Mol-Kelvin    Cal/Mol-Kelvin
 Total                  243.166             98.314            189.554
 Electronic               0.000              0.000              3.561
 Translational            0.889              2.981             44.100
 Rotational               0.889              2.981             35.533
 Vibrational            241.389             92.352            106.360
 Vibration     1          0.593              1.986              6.705
 Vibration     2          0.593              1.984              6.041
 Vibration     3          0.594              1.983              5.651
 Vibration     4          0.595              1.980              5.163
 Vibration     5          0.595              1.979              4.921
 Vibration     6          0.597              1.971              4.325
 Vibration     7          0.598              1.969              4.184
 Vibration     8          0.599              1.964              3.944
 Vibration     9          0.600              1.962              3.881
 Vibration    10          0.601              1.958              3.726
 Vibration    11          0.605              1.947              3.401
 Vibration    12          0.608              1.937              3.178
 Vibration    13          0.608              1.935              3.153
 Vibration    14          0.609              1.931              3.074
 Vibration    15          0.611              1.924              2.963
 Vibration    16          0.617              1.908              2.734
 Vibration    17          0.626              1.878              2.425
 Vibration    18          0.631              1.861              2.279
 Vibration    19          0.635              1.849              2.193
 Vibration    20          0.646              1.814              1.975
 Vibration    21          0.649              1.805              1.930
 Vibration    22          0.657              1.779              1.804
 Vibration    23          0.663              1.763              1.731
 Vibration    24          0.667              1.749              1.675
 Vibration    25          0.671              1.738              1.631
 Vibration    26          0.691              1.677              1.428
 Vibration    27          0.701              1.650              1.348
 Vibration    28          0.719              1.599              1.220
 Vibration    29          0.720              1.595              1.210
 Vibration    30          0.732              1.561              1.135
 Vibration    31          0.744              1.529              1.070
 Vibration    32          0.756              1.497              1.009
 Vibration    33          0.765              1.473              0.968
 Vibration    34          0.766              1.470              0.962
 Vibration    35          0.771              1.457              0.940
 Vibration    36          0.777              1.442              0.916
 Vibration    37          0.790              1.408              0.863
 Vibration    38          0.827              1.317              0.738
 Vibration    39          0.869              1.219              0.624
 Vibration    40          0.882              1.190              0.594
 Vibration    41          0.903              1.144              0.548

                           ! Non-Optimized Parameters !
 Normal termination of Gaussian 16 at Sun Jun 20 08:03:33 2021.

 ----------------------------------------------------------------------
 #p ub3lyp jul-cc-pvdz pop=cm5 scrf=(pcm,solvent=dichloroethane) guess=
 read geom=allcheck
 ----------------------------------------------------------------------

 Structure from the checkpoint file:  "checkpoint.chk"
 -----
 title
 -----
 Charge =  0 Multiplicity = 6

 SCF Done:  E(UB3LYP) =  -3531.44643164     A.U. after   17 cycles
 Normal termination of Gaussian 16 at Sun Jun 20 08:28:26 2021.
 Gaussian 16:  ES64L-G16RevA.03 25-Dec-2016

 ----------------------------------------------------------------------
 #p ub3lyp jul-cc-pvdz pop=cm5 scrf=(pcm,solvent=water) guess=read geom
 =allcheck
 ----------------------------------------------------------------------

 Structure from the checkpoint file:  "checkpoint.chk"
 -----
 title
 -----
 Charge =  0 Multiplicity = 6

                         Standard orientation:
 ---------------------------------------------------------------------
 Center     Atomic      Atomic             Coordinates (Angstroms)
 Number     Number       Type             X           Y           Z
 ---------------------------------------------------------------------
      1          6           0        1.623562   -2.202455    1.688853
      2          6           0        1.122885   -1.061161    1.047237
      3          6           0        1.208832    0.173806    1.710128
      4          6           0        1.754209    0.257369    2.991462
      5          6           0        2.244217   -0.887866    3.625967
      6          6           0        2.183915   -2.117134    2.966941
      7          6           0        0.562871   -1.132962   -0.350358
      8          6           0        1.499913   -0.670914   -1.510652
      9          6           0        2.036462   -1.983156   -2.117640
     10          6           0        0.836383   -2.949684   -2.167146
     11          6           0        0.003142   -2.633739   -0.919892
     12          6           0       -1.416119   -2.041491   -1.032059
     13          6           0       -2.014224   -1.813822   -2.393282
     14          8           0       -0.806859   -0.553537   -0.479972
     15         26           0       -1.923255    0.959236    0.268273
     16         17           0       -3.761790    0.956826   -0.957284
     17          6           0       -2.387144   -2.540727    0.005658
     18         17           0       -0.827675    2.851226    0.030440
     19         17           0       -2.397851    0.477101    2.360293
     20          1           0        0.850091    1.083355    1.229765
     21          1           0        1.794490    1.224020    3.494920
     22          1           0        2.672529   -0.821129    4.627051
     23          1           0        2.570798   -3.017332    3.446449
     24          1           0        1.595971   -3.171814    1.193012
     25          1           0        0.867639   -0.141391   -2.234128
     26          6           0        2.641273    0.257506   -1.113482
     27          1           0        2.490759   -1.815280   -3.103246
     28          1           0        2.825764   -2.372567   -1.460456
     29          1           0        0.260885   -2.795652   -3.088514
     30          1           0        1.165461   -3.997011   -2.173454
     31          1           0        0.040089   -3.417230   -0.159415
     32          1           0       -2.666037   -3.569742   -0.274081
     33          1           0       -1.936265   -2.565633    1.003868
     34          1           0       -3.300346   -1.935105    0.033771
     35          1           0       -2.272243   -2.796294   -2.819691
     36          1           0       -2.930121   -1.218605   -2.318621
     37          1           0       -1.321788   -1.314142   -3.078455
     38          8           0        2.322974    1.544751   -1.332382
     39          8           0        3.710435   -0.117210   -0.680476
     40          6           0        3.336144    2.529175   -0.981190
     41          6           0        2.826396    3.888811   -1.413362
     42          1           0        3.503798    2.471602    0.103027
     43          1           0        4.272892    2.252378   -1.483054
     44          1           0        3.568724    4.655232   -1.147373
     45          1           0        2.668733    3.922781   -2.500365
     46          1           0        1.878482    4.130455   -0.915207
 ---------------------------------------------------------------------

 SCF Done:  E(UB3LYP) =  -3531.44994987     A.U. after   14 cycles

 The electronic state is 6-A.
 Alpha  occ. eigenvalues -- -256.21716-101.53138-101.53053-101.52908 -30.21068
 Alpha  occ. eigenvalues --  -26.06473 -26.06270 -26.06177 -19.20867 -19.20310
 Alpha  occ. eigenvalues --  -19.15175 -10.32819 -10.29498 -10.29170 -10.24747
 Alpha  occ. eigenvalues --  -10.22262 -10.21969 -10.21619 -10.20546 -10.20355
 Alpha  occ. eigenvalues --  -10.20317 -10.20280 -10.20243 -10.19927 -10.19851
 Alpha  occ. eigenvalues --  -10.19770 -10.19736 -10.18604  -9.44854  -9.44781
 Alpha  occ. eigenvalues --   -9.44636  -7.20720  -7.20651  -7.20508  -7.20418
 Alpha  occ. eigenvalues --   -7.20390  -7.20348  -7.20308  -7.20189  -7.20177
 Alpha  occ. eigenvalues --   -3.68692  -2.46316  -2.46004  -2.45786  -1.12038
 Alpha  occ. eigenvalues --   -1.05444  -1.03574  -0.87709  -0.85423  -0.83164
 Alpha  occ. eigenvalues --   -0.81147  -0.80392  -0.80262  -0.78579  -0.77812
 Alpha  occ. eigenvalues --   -0.76166  -0.74499  -0.72107  -0.71077  -0.66406
 Alpha  occ. eigenvalues --   -0.64028  -0.62184  -0.60911  -0.59420  -0.56915
 Alpha  occ. eigenvalues --   -0.55983  -0.54096  -0.52692  -0.51359  -0.50616
 Alpha  occ. eigenvalues --   -0.50023  -0.49268  -0.48956  -0.48928  -0.48735
 Alpha  occ. eigenvalues --   -0.48259  -0.47781  -0.47018  -0.46332  -0.46079
 Alpha  occ. eigenvalues --   -0.45292  -0.44671  -0.43882  -0.43262  -0.42839
 Alpha  occ. eigenvalues --   -0.41942  -0.40998  -0.40363  -0.40035  -0.39780
 Alpha  occ. eigenvalues --   -0.39375  -0.38568  -0.37933  -0.37384  -0.37178
 Alpha  occ. eigenvalues --   -0.36800  -0.36686  -0.36136  -0.35672  -0.35317
 Alpha  occ. eigenvalues --   -0.35058  -0.34547  -0.34016  -0.32835  -0.32078
 Alpha  occ. eigenvalues --   -0.31685  -0.31588  -0.31484  -0.31438  -0.30747
 Alpha  occ. eigenvalues --   -0.30363  -0.30317  -0.29145  -0.26881  -0.26573
 Alpha virt. eigenvalues --   -0.03804  -0.03158  -0.03034  -0.01471  -0.01293
 Alpha virt. eigenvalues --   -0.00159  -0.00046   0.00115   0.01509   0.01660
 Alpha virt. eigenvalues --    0.01749   0.01868   0.02346   0.03215   0.03751

  Beta  occ. eigenvalues -- -256.21531-101.52939-101.52853-101.52708 -30.12165
  Beta  occ. eigenvalues --  -25.98942 -25.98892 -25.98824 -19.20501 -19.20310
  Beta  occ. eigenvalues --  -19.15173 -10.32819 -10.29485 -10.29145 -10.24747
  Beta  occ. eigenvalues --  -10.22250 -10.21964 -10.21616 -10.20544 -10.20354
  Beta  occ. eigenvalues --  -10.20317 -10.20279 -10.20242 -10.19926 -10.19849
  Beta  occ. eigenvalues --  -10.19767 -10.19735 -10.18603  -9.44658  -9.44585
  Beta  occ. eigenvalues --   -9.44440  -7.20406  -7.20327  -7.20186  -7.20134
  Beta  occ. eigenvalues --   -7.20123  -7.20064  -7.20048  -7.19913  -7.19906
  Beta  occ. eigenvalues --   -3.47919  -2.24207  -2.24143  -2.24070  -1.12037
  Beta  occ. eigenvalues --   -1.04775  -1.03571  -0.87673  -0.85316  -0.83110
  Beta  occ. eigenvalues --   -0.79865  -0.79025  -0.78877  -0.78561  -0.77771
  Beta  occ. eigenvalues --   -0.76158  -0.74481  -0.72079  -0.70933  -0.66374
  Beta  occ. eigenvalues --   -0.63986  -0.62169  -0.60859  -0.59295  -0.56858
  Beta  occ. eigenvalues --   -0.55387  -0.54054  -0.52119  -0.51232  -0.50098
  Beta  occ. eigenvalues --   -0.49604  -0.48944  -0.47429  -0.46938  -0.46400
  Beta  occ. eigenvalues --   -0.45376  -0.44668  -0.43892  -0.43304  -0.42841
  Beta  occ. eigenvalues --   -0.41943  -0.41000  -0.40326  -0.40031  -0.39722
  Beta  occ. eigenvalues --   -0.38965  -0.38586  -0.37990  -0.37378  -0.37248
  Beta  occ. eigenvalues --   -0.36942  -0.36792  -0.36664  -0.36602  -0.36022
  Beta  occ. eigenvalues --   -0.35582  -0.35247  -0.34042  -0.33933  -0.33760
  Beta  occ. eigenvalues --   -0.33131  -0.32964  -0.32038  -0.31743  -0.31307
  Beta  occ. eigenvalues --   -0.30607  -0.30227  -0.29117  -0.26867  -0.26544
  Beta virt. eigenvalues --   -0.15738  -0.15286  -0.14270  -0.14099  -0.13859
  Beta virt. eigenvalues --   -0.03706  -0.03007  -0.02749  -0.01362  -0.01256
  Beta virt. eigenvalues --   -0.00096  -0.00024   0.00140   0.01530   0.01684

 Mulliken charges and spin densities:
               1          2
     1  C   -0.225617   0.005356
     2  C    3.168868  -0.003922
     3  C   -0.398373  -0.017594
     4  C    0.033660   0.001131
     5  C    0.253601   0.000225
     6  C   -0.178797   0.001556
     7  C   -2.169287   0.028346
     8  C    0.191737  -0.000334
     9  C    0.485373   0.001248
    10  C    0.564432   0.001183
    11  C    0.766456   0.002006
    12  C   -0.799899   0.010891
    13  C    0.422995  -0.002415
    14  O   -0.253383   0.095478
    15  Fe   0.558523   4.055478
    16  Cl  -0.467037   0.274495
    17  C    0.489195   0.001549
    18  Cl  -0.437445   0.274502
    19  Cl  -0.437493   0.267777
    20  H   -0.311409   0.000644
    21  H   -0.163406   0.000018
    22  H   -0.162739   0.000023
    23  H   -0.159247   0.000020
    24  H   -0.193449  -0.000008
    25  H   -0.213893  -0.000078
    26  C    1.038441   0.000711
    27  H   -0.140412   0.000328
    28  H   -0.052613  -0.000011
    29  H   -0.097258  -0.000020
    30  H   -0.124919   0.000385
    31  H   -0.235833   0.001226
    32  H    0.015248   0.000053
    33  H    0.047469  -0.000731
    34  H    0.031547   0.000244
    35  H    0.035699   0.001781
    36  H    0.019884  -0.000366
    37  H    0.039638  -0.000327
    38  O   -0.697884  -0.001133
    39  O   -0.664741   0.000583
    40  C    0.407866  -0.000755
    41  C    0.061279   0.001041
    42  H   -0.041037   0.000025
    43  H   -0.049298  -0.000001
    44  H   -0.003417   0.000067
    45  H    0.021113   0.000005
    46  H    0.025859  -0.000681
 Sum of Mulliken charges =  -0.00000   5.00000

 Dipole moment (field-independent basis, Debye):
    X=              3.6957    Y=             -8.2196    Z=             -4.2709  Tot=              9.9730
 Quadrupole moment (field-independent basis, Debye-Ang):
   XX=           -197.9867   YY=           -156.3138   ZZ=           -167.2044
   XY=             20.0819   XZ=              7.4098   YZ=              5.4792

 Normal termination of Gaussian 16 at Sun Jun 20 08:48:55 2021.
