 Gaussian 16, Revision A.03,

 -----------------------------------------------------------
 #p opt=modredundant freq=noraman ub3lyp jul-cc-pvdz pop=cm5
 -----------------------------------------------------------

 -----
 title
 -----
 Symbolic Z-matrix:
 Charge =  0 Multiplicity = 6

 SCF Done:  E(UB3LYP) =  -3531.42344811     A.U. after   26 cycles
 SCF Done:  E(UB3LYP) =  -3531.42165254     A.U. after   17 cycles
 SCF Done:  E(UB3LYP) =  -3531.42105266     A.U. after   18 cycles
 SCF Done:  E(UB3LYP) =  -3531.42039050     A.U. after   18 cycles
 SCF Done:  E(UB3LYP) =  -3531.42357345     A.U. after   13 cycles
 SCF Done:  E(UB3LYP) =  -3531.42362667     A.U. after   17 cycles
 SCF Done:  E(UB3LYP) =  -3531.42395586     A.U. after   15 cycles
 SCF Done:  E(UB3LYP) =  -3531.42404209     A.U. after   17 cycles
 SCF Done:  E(UB3LYP) =  -3531.42411789     A.U. after   14 cycles
 SCF Done:  E(UB3LYP) =  -3531.42412143     A.U. after   14 cycles
 SCF Done:  E(UB3LYP) =  -3531.42416115     A.U. after    9 cycles
 SCF Done:  E(UB3LYP) =  -3531.42416112     A.U. after    9 cycles
 SCF Done:  E(UB3LYP) =  -3531.42416111     A.U. after    9 cycles
 SCF Done:  E(UB3LYP) =  -3531.42416105     A.U. after    9 cycles
 SCF Done:  E(UB3LYP) =  -3531.42416097     A.U. after    9 cycles
 SCF Done:  E(UB3LYP) =  -3531.42416128     A.U. after   12 cycles
 SCF Done:  E(UB3LYP) =  -3531.42416086     A.U. after   12 cycles
 Optimization completed.
    -- Stationary point found.
 Normal termination of Gaussian 16 at Sun Jun 20 14:58:38 2021.

 ----------------------------------------------------------------------
 #P Geom=AllCheck Guess=TCheck SCRF=Check GenChk UB3LYP/Jul-CC-pVDZ Fre
 q
 ----------------------------------------------------------------------

 Structure from the checkpoint file:  "checkpoint.chk"
 -----
 title
 -----
 Charge =  0 Multiplicity = 6

 SCF Done:  E(UB3LYP) =  -3531.42416086     A.U. after    1 cycles

  Exact polarizability: 317.823  13.158 301.808  14.365   9.395 302.418
 Approx polarizability: 491.537  45.770 462.203  17.075   9.189 501.840

 ******    1 imaginary frequencies (negative Signs) ******

                      1                      2                      3
                      A                      A                      A
 Frequencies --    -25.9768                17.6185                24.1502
 Red. masses --      6.2763                 5.1877                 6.7135
 Frc consts  --      0.0025                 0.0009                 0.0023
 IR Inten    --      0.5462                 0.2036                 0.9274

                      4                      5                      6
                      A                      A                      A
 Frequencies --     31.1475                48.1765                48.9900
 Red. masses --      7.2297                 5.7086                 3.6544
 Frc consts  --      0.0041                 0.0078                 0.0052
 IR Inten    --      0.8652                 2.3946                 2.2088

                      7                      8                      9
                      A                      A                      A
 Frequencies --     57.4195                64.6979                80.7673
 Red. masses --      5.4620                 3.1012                10.0617
 Frc consts  --      0.0106                 0.0076                 0.0387
 IR Inten    --      1.6112                 1.8085                 0.6768

                     10                     11                     12
                      A                      A                      A
 Frequencies --     88.6076                92.2309                98.4126
 Red. masses --      8.3874                 5.7222                 4.8565
 Frc consts  --      0.0388                 0.0287                 0.0277
 IR Inten    --      0.6394                 4.6075                 1.7252

                     13                     14                     15
                      A                      A                      A
 Frequencies --    104.2933               116.2381               124.7050
 Red. masses --      6.2232                18.6480                 9.9229
 Frc consts  --      0.0399                 0.1484                 0.0909
 IR Inten    --      1.3895                 1.3116                 2.2010

                     16                     17                     18
                      A                      A                      A
 Frequencies --    139.1826               143.2566               158.1157
 Red. masses --      2.1098                 2.7594                 2.0958
 Frc consts  --      0.0241                 0.0334                 0.0309
 IR Inten    --     16.5276                 1.5240                13.1522

                     19                     20                     21
                      A                      A                      A
 Frequencies --    163.7213               179.0482               192.8870
 Red. masses --      3.5854                 2.7601                 1.5965
 Frc consts  --      0.0566                 0.0521                 0.0350
 IR Inten    --     28.0351                 5.1145                 4.8347

                     22                     23                     24
                      A                      A                      A
 Frequencies --    201.1253               207.8712               231.3554
 Red. masses --      2.6523                 1.9094                 3.4714
 Frc consts  --      0.0632                 0.0486                 0.1095
 IR Inten    --      0.4583                 2.4915                10.5238

                     25                     26                     27
                      A                      A                      A
 Frequencies --    254.8860               259.8971               290.9652
 Red. masses --      3.8796                 1.7988                 3.9113
 Frc consts  --      0.1485                 0.0716                 0.1951
 IR Inten    --     93.7633                10.5952                 3.5168

                     28                     29                     30
                      A                      A                      A
 Frequencies --    317.8317               332.6039               349.9969
 Red. masses --      2.2091                13.4290                 7.0802
 Frc consts  --      0.1315                 0.8753                 0.5110
 IR Inten    --      0.3667                16.6327                 8.2503

                     31                     32                     33
                      A                      A                      A
 Frequencies --    361.1237               374.0846               391.6187
 Red. masses --      8.5547                 4.1365                29.6119
 Frc consts  --      0.6573                 0.3411                 2.6757
 IR Inten    --     36.5496                14.7973                88.1419

                     34                     35                     36
                      A                      A                      A
 Frequencies --    396.8696               400.7061               410.3432
 Red. masses --     12.4016                 2.9795                 2.8567
 Frc consts  --      1.1509                 0.2819                 0.2834
 IR Inten    --     63.9022                20.2409                 0.7222

                     37                     38                     39
                      A                      A                      A
 Frequencies --    425.0865               454.5956               479.7405
 Red. masses --      3.6628                 3.9044                 3.0794
 Frc consts  --      0.3900                 0.4754                 0.4176
 IR Inten    --     43.0615                 0.6070                12.0363

                     40                     41                     42
                      A                      A                      A
 Frequencies --    508.8756               523.4679               555.8260
 Red. masses --      3.0973                 3.0137                 3.0126
 Frc consts  --      0.4726                 0.4865                 0.5484
 IR Inten    --     10.9571                 5.8421                29.6037

                     43                     44                     45
                      A                      A                      A
 Frequencies --    594.4645               624.2956               641.3145
 Red. masses --      4.2580                 6.0449                 4.0829
 Frc consts  --      0.8865                 1.3881                 0.9894
 IR Inten    --     73.9817                15.2881                93.2789

                     46                     47                     48
                      A                      A                      A
 Frequencies --    689.9287               701.8584               754.1019
 Red. masses --      1.6114                 6.2035                 4.5786
 Frc consts  --      0.4519                 1.8005                 1.5341
 IR Inten    --     56.0281                16.9512                 6.9527

                     49                     50                     51
                      A                      A                      A
 Frequencies --    766.9160               789.7148               803.0037
 Red. masses --      2.3506                 2.3244                 1.3524
 Frc consts  --      0.8146                 0.8541                 0.5138
 IR Inten    --     17.6814                13.7348                 3.8607

                     52                     53                     54
                      A                      A                      A
 Frequencies --    819.9926               840.1449               858.5387
 Red. masses --      2.8759                 1.2612                 1.5771
 Frc consts  --      1.1393                 0.5245                 0.6849
 IR Inten    --     18.9349                 1.1291                 6.4441

                     55                     56                     57
                      A                      A                      A
 Frequencies --    865.5237               895.4018               920.8020
 Red. masses --      2.4160                 1.8844                 2.0118
 Frc consts  --      1.0664                 0.8901                 1.0050
 IR Inten    --     44.2364                 4.2548                16.7112

                     58                     59                     60
                      A                      A                      A
 Frequencies --    942.6061               952.7315               965.6189
 Red. masses --      1.4193                 1.2926                 3.4574
 Frc consts  --      0.7430                 0.6913                 1.8994
 IR Inten    --      0.3274                11.6663                30.6889

                     61                     62                     63
                      A                      A                      A
 Frequencies --    985.3671               988.9917               993.1213
 Red. masses --      1.9604                 1.7532                 1.3574
 Frc consts  --      1.1215                 1.0104                 0.7888
 IR Inten    --     17.2063                17.4800                 5.7495

                     64                     65                     66
                      A                      A                      A
 Frequencies --   1002.7734              1007.8300              1008.3607
 Red. masses --      2.7608                 2.0448                 1.6683
 Frc consts  --      1.6357                 1.2237                 0.9994
 IR Inten    --      1.1687                 5.7803                 0.6911

                     67                     68                     69
                      A                      A                      A
 Frequencies --   1036.3802              1047.0835              1070.7865
 Red. masses --      2.6852                 2.4441                 2.3366
 Frc consts  --      1.6993                 1.5788                 1.5785
 IR Inten    --     40.7911                 3.4784                 4.9921

                     70                     71                     72
                      A                      A                      A
 Frequencies --   1086.7977              1095.9623              1112.7844
 Red. masses --      1.8092                 1.8781                 1.5643
 Frc consts  --      1.2590                 1.3291                 1.1412
 IR Inten    --     18.1160                12.9164                 9.4716

                     73                     74                     75
                      A                      A                      A
 Frequencies --   1132.7727              1137.2251              1161.7178
 Red. masses --      2.1364                 2.2567                 1.6976
 Frc consts  --      1.6152                 1.7196                 1.3498
 IR Inten    --     13.0568                 8.0455                68.5393

                     76                     77                     78
                      A                      A                      A
 Frequencies --   1170.6068              1177.0304              1198.5077
 Red. masses --      1.5677                 1.0865                 1.4822
 Frc consts  --      1.2657                 0.8869                 1.2544
 IR Inten    --      3.3281                 1.4626                47.2839

                     79                     80                     81
                      A                      A                      A
 Frequencies --   1206.5258              1223.1108              1254.2075
 Red. masses --      1.3008                 2.1900                 2.0477
 Frc consts  --      1.1157                 1.9303                 1.8978
 IR Inten    --     38.9825               123.4514                38.0506

                     82                     83                     84
                      A                      A                      A
 Frequencies --   1256.5714              1285.9768              1319.0649
 Red. masses --      2.4680                 1.1130                 1.5136
 Frc consts  --      2.2960                 1.0845                 1.5517
 IR Inten    --    107.1449                 0.1967               119.3153

                     85                     86                     87
                      A                      A                      A
 Frequencies --   1322.4422              1330.7968              1336.0346
 Red. masses --      1.4858                 1.5360                 1.6805
 Frc consts  --      1.5309                 1.6027                 1.7673
 IR Inten    --     75.1772                65.2918                28.6649

                     88                     89                     90
                      A                      A                      A
 Frequencies --   1361.2601              1364.3245              1371.6337
 Red. masses --      1.6667                 2.6790                 1.3322
 Frc consts  --      1.8197                 2.9380                 1.4767
 IR Inten    --      9.0016                14.8812                19.0605

                     91                     92                     93
                      A                      A                      A
 Frequencies --   1382.6079              1395.9591              1407.2059
 Red. masses --      1.3908                 1.2957                 1.4624
 Frc consts  --      1.5664                 1.4876                 1.7062
 IR Inten    --     30.5011                24.1419                13.9738

                     94                     95                     96
                      A                      A                      A
 Frequencies --   1415.6449              1436.8149              1458.2350
 Red. masses --      1.4142                 2.7025                 1.1068
 Frc consts  --      1.6698                 3.2872                 1.3867
 IR Inten    --     25.7116               391.7134                16.8983

                     97                     98                     99
                      A                      A                      A
 Frequencies --   1470.1936              1471.5281              1473.4710
 Red. masses --      1.0911                 1.0708                 1.0396
 Frc consts  --      1.3896                 1.3662                 1.3298
 IR Inten    --      1.5055                10.7406                 6.3443

                    100                    101                    102
                      A                      A                      A
 Frequencies --   1478.3884              1483.8629              1487.6353
 Red. masses --      1.5627                 1.4663                 1.0560
 Frc consts  --      2.0124                 1.9022                 1.3769
 IR Inten    --     67.5920               149.5331                 2.2960

                    103                    104                    105
                      A                      A                      A
 Frequencies --   1495.9518              1503.9013              1505.8362
 Red. masses --      1.1620                 1.1145                 1.0841
 Frc consts  --      1.5321                 1.4852                 1.4484
 IR Inten    --     13.9665                20.7698                 7.8365

                    106                    107                    108
                      A                      A                      A
 Frequencies --   1517.4375              1617.9948              1639.4173
 Red. masses --      1.9278                 5.4721                 5.6404
 Frc consts  --      2.6153                 8.4403                 8.9318
 IR Inten    --      5.8076                 4.3618                36.8277

                    109                    110                    111
                      A                      A                      A
 Frequencies --   1669.6528              1767.2949              3017.5761
 Red. masses --      5.8758                11.4842                 1.0488
 Frc consts  --      9.6510                21.1335                 5.6269
 IR Inten    --    138.7947               228.8927                 2.1344

                    112                    113                    114
                      A                      A                      A
 Frequencies --   3024.9663              3042.1023              3043.6647
 Red. masses --      1.0429                 1.0360                 1.0651
 Frc consts  --      5.6223                 5.6486                 5.8135
 IR Inten    --      8.0910                19.1046                25.4628

                    115                    116                    117
                      A                      A                      A
 Frequencies --   3061.7449              3068.3594              3079.7614
 Red. masses --      1.0589                 1.0659                 1.0853
 Frc consts  --      5.8485                 5.9127                 6.0652
 IR Inten    --     13.9724                29.3995                 0.4026

                    118                    119                    120
                      A                      A                      A
 Frequencies --   3083.5651              3096.0396              3108.3343
 Red. masses --      1.0936                 1.0977                 1.0836
 Frc consts  --      6.1265                 6.1991                 6.1682
 IR Inten    --      4.2205                 3.7660                 0.3756

                    121                    122                    123
                      A                      A                      A
 Frequencies --   3109.9599              3118.2901              3125.5979
 Red. masses --      1.1059                 1.1024                 1.0985
 Frc consts  --      6.3020                 6.3155                 6.3227
 IR Inten    --      9.4011                16.1231                15.3803

                    124                    125                    126
                      A                      A                      A
 Frequencies --   3137.6154              3140.4268              3159.6047
 Red. masses --      1.1026                 1.1046                 1.1013
 Frc consts  --      6.3956                 6.4185                 6.4777
 IR Inten    --      7.7122                13.8985                 3.3245

                    127                    128                    129
                      A                      A                      A
 Frequencies --   3162.2145              3174.3751              3187.6133
 Red. masses --      1.0888                 1.0862                 1.0913
 Frc consts  --      6.4148                 6.4486                 6.5331
 IR Inten    --     14.6078                 0.5134                 6.7691

                    130                    131                    132
                      A                      A                      A
 Frequencies --   3196.8655              3228.8406              3244.0766
 Red. masses --      1.0970                 1.0924                 1.0913
 Frc consts  --      6.6054                 6.7101                 6.7667
 IR Inten    --     12.7913                 1.5896                 1.4273

 - Thermochemistry -
 -------------------
 Temperature   298.150 Kelvin.  Pressure   1.00000 Atm.
 Atom     1 has atomic number  6 and mass  12.00000

 Molecular mass:   434.99839 amu.
 Principal axes and moments of inertia in atomic units:
                           1         2         3
     Eigenvalues --  9215.97021********************
           X            0.99806  -0.06084   0.01311
           Y            0.06042   0.99773   0.02989
           Z           -0.01489  -0.02904   0.99947
 This molecule is an asymmetric top.
 Rotational symmetry number  1.
 Warning -- assumption of classical behavior for rotation
           may cause significant error
 Rotational temperatures (Kelvin)      0.00940     0.00788     0.00676
 Rotational constants (GHZ):           0.19583     0.16429     0.14094
    1 imaginary frequencies ignored.
 Zero-point vibrational energy     944249.4 (Joules/Mol)
                                  225.68102 (Kcal/Mol)
 Warning -- explicit consideration of  42 degrees of freedom as
           vibrations may cause significant error
 Vibrational temperatures:     25.35    34.75    44.81    69.32    70.49
          (Kelvin)             82.61    93.09   116.21   127.49   132.70
                              141.59   150.05   167.24   179.42   200.25
                              206.11   227.49   235.56   257.61   277.52
                              289.37   299.08   332.87   366.72   373.93
                              418.63   457.29   478.54   503.57   519.58
                              538.22   563.45   571.01   576.53   590.39
                              611.60   654.06   690.24   732.16   753.15
                              799.71   855.30   898.22   922.71   992.65
                             1009.82  1084.98  1103.42  1136.22  1155.34
                             1179.79  1208.78  1235.25  1245.30  1288.28
                             1324.83  1356.20  1370.77  1389.31  1417.72
                             1422.94  1428.88  1442.77  1450.04  1450.81
                             1491.12  1506.52  1540.62  1563.66  1576.85
                             1601.05  1629.81  1636.21  1671.45  1684.24
                             1693.48  1724.39  1735.92  1759.78  1804.52
                             1807.93  1850.23  1897.84  1902.70  1914.72
                             1922.26  1958.55  1962.96  1973.47  1989.26
                             2008.47  2024.66  2036.80  2067.26  2098.07
                             2115.28  2117.20  2120.00  2127.07  2134.95
                             2140.38  2152.34  2163.78  2166.56  2183.25
                             2327.93  2358.76  2402.26  2542.74  4341.62
                             4352.25  4376.91  4379.15  4405.17  4414.68
                             4431.09  4436.56  4454.51  4472.20  4474.54
                             4486.52  4497.04  4514.33  4518.37  4545.97
                             4549.72  4567.22  4586.26  4599.58  4645.58
                             4667.50

 Zero-point correction=                           0.359646 (Hartree/Particle)
 Thermal correction to Energy=                    0.387044
 Thermal correction to Enthalpy=                  0.387989
 Thermal correction to Gibbs Free Energy=         0.297326
 Sum of electronic and zero-point Energies=          -3531.064515
 Sum of electronic and thermal Energies=             -3531.037116
 Sum of electronic and thermal Enthalpies=           -3531.036172
 Sum of electronic and thermal Free Energies=        -3531.126834

                     E (Thermal)             CV                S
                      KCal/Mol        Cal/Mol-Kelvin    Cal/Mol-Kelvin
 Total                  242.874             97.623            190.815
 Electronic               0.000              0.000              3.561
 Translational            0.889              2.981             44.100
 Rotational               0.889              2.981             35.515
 Vibrational            241.097             91.662            107.639
 Vibration     1          0.593              1.986              6.886
 Vibration     2          0.593              1.985              6.260
 Vibration     3          0.594              1.983              5.755
 Vibration     4          0.595              1.978              4.891
 Vibration     5          0.595              1.978              4.858
 Vibration     6          0.596              1.975              4.544
 Vibration     7          0.597              1.971              4.309
 Vibration     8          0.600              1.962              3.872
 Vibration     9          0.601              1.957              3.691
 Vibration    10          0.602              1.955              3.612
 Vibration    11          0.604              1.950              3.486
 Vibration    12          0.605              1.946              3.372
 Vibration    13          0.608              1.936              3.162
 Vibration    14          0.610              1.928              3.026
 Vibration    15          0.615              1.914              2.815
 Vibration    16          0.616              1.910              2.760
 Vibration    17          0.621              1.894              2.572
 Vibration    18          0.623              1.887              2.506
 Vibration    19          0.629              1.868              2.338
 Vibration    20          0.635              1.850              2.200
 Vibration    21          0.638              1.838              2.123
 Vibration    22          0.641              1.829              2.062
 Vibration    23          0.653              1.793              1.868
 Vibration    24          0.665              1.755              1.697
 Vibration    25          0.668              1.746              1.662
 Vibration    26          0.687              1.691              1.468
 Vibration    27          0.704              1.640              1.321
 Vibration    28          0.715              1.610              1.247
 Vibration    29          0.727              1.575              1.166
 Vibration    30          0.735              1.552              1.117
 Vibration    31          0.745              1.525              1.063
 Vibration    32          0.759              1.488              0.994
 Vibration    33          0.763              1.477              0.974
 Vibration    34          0.767              1.469              0.960
 Vibration    35          0.775              1.448              0.925
 Vibration    36          0.787              1.416              0.875
 Vibration    37          0.813              1.351              0.782
 Vibration    38          0.836              1.295              0.711
 Vibration    39          0.864              1.230              0.636
 Vibration    40          0.878              1.198              0.602
 Vibration    41          0.911              1.127              0.532
 Vibration    42          0.952              1.044              0.459

 Optimization completed.
    -- Stationary point found.
 Normal termination of Gaussian 16 at Sun Jun 20 18:17:32 2021.

 ----------------------------------------------------------------------
 #p ub3lyp jul-cc-pvdz pop=cm5 scrf=(pcm,solvent=dichloroethane) guess=
 read geom=allcheck
 ----------------------------------------------------------------------

 Structure from the checkpoint file:  "checkpoint.chk"
 -----
 title
 -----
 Charge =  0 Multiplicity = 6

 SCF Done:  E(UB3LYP) =  -3531.44256949     A.U. after   18 cycles
 Normal termination of Gaussian 16 at Sun Jun 20 18:37:56 2021.
 Gaussian 16:  ES64L-G16RevA.03 25-Dec-2016

 ----------------------------------------------------------------------
 #p ub3lyp jul-cc-pvdz pop=cm5 scrf=(pcm,solvent=water) guess=read geom
 =allcheck
 ----------------------------------------------------------------------

 Structure from the checkpoint file:  "checkpoint.chk"
 -----
 title
 -----
 Charge =  0 Multiplicity = 6

                         Standard orientation:
 ---------------------------------------------------------------------
 Center     Atomic      Atomic             Coordinates (Angstroms)
 Number     Number       Type             X           Y           Z
 ---------------------------------------------------------------------
      1          6           0        3.214394    0.169442    0.548606
      2          6           0        1.905545   -0.325446    0.723768
      3          6           0        1.524078   -0.792211    1.998796
      4          6           0        2.426804   -0.777233    3.060564
      5          6           0        3.725864   -0.296237    2.869883
      6          6           0        4.113642    0.181612    1.612388
      7          6           0        0.888584   -0.329925   -0.362877
      8          6           0        0.977690    0.630035   -1.576467
      9          6           0        2.000282    0.234812   -2.651653
     10          6           0        1.829201   -1.260598   -2.960269
     11          6           0        1.751440   -2.018688   -1.664245
     12          6           0        0.671371   -2.692838   -1.184943
     13          6           0       -0.637403   -2.796614   -1.909627
     14          8           0       -0.268817   -0.785624   -0.072027
     15         26           0       -2.088675   -0.271722    0.421796
     16         17           0       -3.045786    0.548442   -1.392720
     17          6           0        0.775769   -3.517666    0.060051
     18         17           0       -1.930261    1.149633    2.103089
     19         17           0       -3.001480   -2.176885    1.085578
     20          1           0        0.506595   -1.140310    2.157456
     21          1           0        2.110351   -1.131658    4.042006
     22          1           0        4.432304   -0.282047    3.701427
     23          1           0        5.119999    0.573556    1.461507
     24          1           0        3.534145    0.565835   -0.409919
     25          1           0       -0.030788    0.595486   -2.007620
     26          6           0        1.198909    2.076782   -1.101711
     27          1           0        1.835300    0.851346   -3.545900
     28          1           0        3.019605    0.452111   -2.313840
     29          1           0        0.928400   -1.417648   -3.566320
     30          1           0        2.680794   -1.618687   -3.557837
     31          1           0        2.690330   -2.123799   -1.118559
     32          1           0        1.760688   -3.445273    0.534937
     33          1           0       -0.007679   -3.237257    0.778473
     34          1           0        0.591376   -4.573414   -0.197835
     35          1           0       -0.610757   -3.712797   -2.524388
     36          1           0       -1.472261   -2.905331   -1.207950
     37          1           0       -0.845405   -1.954995   -2.576544
     38          8           0        0.056388    2.605011   -0.656404
     39          8           0        2.262015    2.658930   -1.152085
     40          6           0        0.108965    3.982034   -0.171781
     41          6           0       -1.315651    4.459131    0.016313
     42          1           0        0.677227    3.980106    0.768469
     43          1           0        0.662269    4.579579   -0.907360
     44          1           0       -1.300118    5.492089    0.393368
     45          1           0       -1.863157    4.444679   -0.935910
     46          1           0       -1.849291    3.828064    0.737879
 ---------------------------------------------------------------------

 SCF Done:  E(UB3LYP) =  -3531.44614680     A.U. after   17 cycles

 The electronic state is 6-A.
 Alpha  occ. eigenvalues -- -256.20982-101.52398-101.52384-101.52364 -30.20365
 Alpha  occ. eigenvalues --  -26.05747 -26.05569 -26.05478 -19.20842 -19.18089
 Alpha  occ. eigenvalues --  -19.15839 -10.33775 -10.33312 -10.25026 -10.23589
 Alpha  occ. eigenvalues --  -10.23072 -10.22480 -10.21487 -10.21465 -10.21391
 Alpha  occ. eigenvalues --  -10.20912 -10.20858 -10.20449 -10.20084 -10.19857
 Alpha  occ. eigenvalues --  -10.19152 -10.19113 -10.18577  -9.44119  -9.44102
 Alpha  occ. eigenvalues --   -9.44086  -7.19988  -7.19969  -7.19955  -7.19669
 Alpha  occ. eigenvalues --   -7.19658  -7.19651  -7.19644  -7.19631  -7.19627
 Alpha  occ. eigenvalues --   -3.68042  -2.45667  -2.45332  -2.45155  -1.12746
 Alpha  occ. eigenvalues --   -1.08744  -1.04245  -0.88265  -0.85821  -0.83100
 Alpha  occ. eigenvalues --   -0.80416  -0.79667  -0.79638  -0.78717  -0.78643
 Alpha  occ. eigenvalues --   -0.76905  -0.75040  -0.71090  -0.70314  -0.66969
 Alpha  occ. eigenvalues --   -0.64711  -0.62651  -0.61774  -0.59806  -0.57637
 Alpha  occ. eigenvalues --   -0.56043  -0.53855  -0.53287  -0.51816  -0.50583
 Alpha  occ. eigenvalues --   -0.50037  -0.49184  -0.49134  -0.48335  -0.48174
 Alpha  occ. eigenvalues --   -0.47900  -0.47518  -0.47092  -0.46940  -0.45889
 Alpha  occ. eigenvalues --   -0.45505  -0.45036  -0.43914  -0.43069  -0.42722
 Alpha  occ. eigenvalues --   -0.42350  -0.40881  -0.40559  -0.40052  -0.39972
 Alpha  occ. eigenvalues --   -0.38838  -0.38563  -0.37960  -0.37719  -0.37637
 Alpha  occ. eigenvalues --   -0.37421  -0.37084  -0.36409  -0.36076  -0.35349
 Alpha  occ. eigenvalues --   -0.34729  -0.34109  -0.34011  -0.32342  -0.32093
 Alpha  occ. eigenvalues --   -0.31261  -0.31213  -0.30885  -0.30811  -0.30154
 Alpha  occ. eigenvalues --   -0.29815  -0.29484  -0.28462  -0.27581  -0.25291
 Alpha virt. eigenvalues --   -0.10929  -0.03261  -0.02414  -0.01704  -0.01177
 Alpha virt. eigenvalues --   -0.00142   0.00029   0.00061   0.01137   0.01530
 Alpha virt. eigenvalues --    0.01695   0.01986   0.02469   0.02795   0.03183

  Beta  occ. eigenvalues -- -256.20797-101.52210-101.52200-101.52182 -30.11426
  Beta  occ. eigenvalues --  -25.98190 -25.98154 -25.98100 -19.20842 -19.17643
  Beta  occ. eigenvalues --  -19.15838 -10.33775 -10.33302 -10.25026 -10.23558
  Beta  occ. eigenvalues --  -10.23060 -10.22462 -10.21489 -10.21467 -10.21394
  Beta  occ. eigenvalues --  -10.20909 -10.20856 -10.20445 -10.20034 -10.19859
  Beta  occ. eigenvalues --  -10.19153 -10.19114 -10.18576  -9.43934  -9.43921
  Beta  occ. eigenvalues --   -9.43908  -7.19681  -7.19667  -7.19651  -7.19416
  Beta  occ. eigenvalues --   -7.19404  -7.19403  -7.19394  -7.19390  -7.19384
  Beta  occ. eigenvalues --   -3.47196  -2.23462  -2.23415  -2.23367  -1.12742
  Beta  occ. eigenvalues --   -1.07886  -1.04243  -0.88228  -0.85733  -0.83039
  Beta  occ. eigenvalues --   -0.79224  -0.78730  -0.78589  -0.78364  -0.78336
  Beta  occ. eigenvalues --   -0.76903  -0.75004  -0.71065  -0.70202  -0.66844
  Beta  occ. eigenvalues --   -0.64654  -0.62623  -0.61696  -0.59370  -0.57408
  Beta  occ. eigenvalues --   -0.55542  -0.53759  -0.52598  -0.51736  -0.50386
  Beta  occ. eigenvalues --   -0.49523  -0.48964  -0.48215  -0.47528  -0.47057
  Beta  occ. eigenvalues --   -0.45846  -0.45151  -0.43926  -0.43094  -0.42722
  Beta  occ. eigenvalues --   -0.42299  -0.40877  -0.40542  -0.40059  -0.39967
  Beta  occ. eigenvalues --   -0.38685  -0.38590  -0.38119  -0.37938  -0.37693
  Beta  occ. eigenvalues --   -0.37459  -0.37088  -0.36434  -0.36123  -0.36033
  Beta  occ. eigenvalues --   -0.35986  -0.35325  -0.34166  -0.33428  -0.33149
  Beta  occ. eigenvalues --   -0.32617  -0.32514  -0.32155  -0.31293  -0.30481
  Beta  occ. eigenvalues --   -0.29707  -0.29465  -0.28651  -0.27583  -0.25178
  Beta virt. eigenvalues --   -0.14983  -0.14524  -0.13694  -0.13335  -0.13214
  Beta virt. eigenvalues --   -0.10131  -0.03245  -0.02362  -0.01625  -0.01084
  Beta virt. eigenvalues --   -0.00103   0.00064   0.00096   0.01277   0.01552

 Mulliken charges and spin densities:
               1          2
     1  C    0.273988  -0.000868
     2  C    3.011277  -0.002634
     3  C   -0.603653  -0.009864
     4  C    0.082707   0.004479
     5  C    0.286944  -0.000750
     6  C   -0.103858   0.002588
     7  C   -2.454467  -0.004479
     8  C    0.433650   0.013063
     9  C    0.488189   0.004295
    10  C    0.649207  -0.002852
    11  C    0.323228   0.032212
    12  C   -0.131727   0.017704
    13  C    0.225829  -0.000463
    14  O   -0.349133   0.131029
    15  Fe   0.694948   4.062840
    16  Cl  -0.520215   0.244940
    17  C    0.304083  -0.000600
    18  Cl  -0.484085   0.252358
    19  Cl  -0.497405   0.249047
    20  H   -0.261065   0.000214
    21  H   -0.158911   0.000001
    22  H   -0.151435   0.000027
    23  H   -0.153793   0.000143
    24  H   -0.243805  -0.000109
    25  H   -0.183475  -0.000886
    26  C    0.782837   0.001930
    27  H   -0.130920   0.000284
    28  H   -0.009032  -0.000035
    29  H   -0.084165   0.000049
    30  H   -0.110897   0.001442
    31  H   -0.272433  -0.001271
    32  H   -0.007568   0.000058
    33  H    0.071636   0.000499
    34  H   -0.017924   0.001227
    35  H    0.000703   0.001253
    36  H    0.048319   0.001442
    37  H    0.057401  -0.000122
    38  O   -0.655969   0.002250
    39  O   -0.591550   0.000820
    40  C    0.424824   0.000604
    41  C    0.041318  -0.001540
    42  H   -0.033777   0.000000
    43  H   -0.037108   0.000020
    44  H   -0.007891   0.000054
    45  H    0.026594   0.000068
    46  H    0.028577  -0.000469
 Sum of Mulliken charges =  -0.00000   5.00000

 Dipole moment (field-independent basis, Debye):
    X=             10.5693    Y=             -2.4384    Z=             -2.8490  Tot=             11.2149
 Quadrupole moment (field-independent basis, Debye-Ang):
   XX=           -190.3541   YY=           -165.5213   ZZ=           -167.2950
   XY=            -12.0052   XZ=              8.8698   YZ=              5.4341

 Normal termination of Gaussian 16 at Sun Jun 20 18:56:55 2021.
