 Gaussian 16, Revision A.03,

 -----------------------------------------------------------
 #p opt=modredundant freq=noraman ub3lyp jul-cc-pvdz pop=cm5
 -----------------------------------------------------------

 -----
 title
 -----
 Symbolic Z-matrix:
 Charge =  0 Multiplicity = 6

 SCF Done:  E(UB3LYP) =  -3531.42801802     A.U. after   27 cycles
 SCF Done:  E(UB3LYP) =  -3531.42834717     A.U. after   17 cycles
 SCF Done:  E(UB3LYP) =  -3531.41616474     A.U. after   23 cycles
 SCF Done:  E(UB3LYP) =  -3531.42525903     A.U. after   19 cycles
 SCF Done:  E(UB3LYP) =  -3531.42845512     A.U. after   13 cycles
 SCF Done:  E(UB3LYP) =  -3531.42859586     A.U. after   17 cycles
 SCF Done:  E(UB3LYP) =  -3531.42864178     A.U. after   17 cycles
 SCF Done:  E(UB3LYP) =  -3531.42868480     A.U. after   16 cycles
 SCF Done:  E(UB3LYP) =  -3531.42871498     A.U. after   15 cycles
 SCF Done:  E(UB3LYP) =  -3531.42872194     A.U. after   13 cycles
 SCF Done:  E(UB3LYP) =  -3531.42873261     A.U. after   13 cycles
 SCF Done:  E(UB3LYP) =  -3531.42873358     A.U. after   13 cycles
 SCF Done:  E(UB3LYP) =  -3531.42873441     A.U. after   13 cycles
 SCF Done:  E(UB3LYP) =  -3531.42873503     A.U. after   13 cycles
 SCF Done:  E(UB3LYP) =  -3531.42873537     A.U. after   11 cycles
 SCF Done:  E(UB3LYP) =  -3531.42873563     A.U. after   10 cycles
 SCF Done:  E(UB3LYP) =  -3531.42873574     A.U. after    9 cycles
 Optimization completed.
    -- Stationary point found.
 Normal termination of Gaussian 16 at Sun Jun 20 05:24:33 2021.

 ----------------------------------------------------------------------
 #P Geom=AllCheck Guess=TCheck SCRF=Check GenChk UB3LYP/Jul-CC-pVDZ Fre
 q
 ----------------------------------------------------------------------

 Structure from the checkpoint file:  "checkpoint.chk"
 -----
 title
 -----
 Charge =  0 Multiplicity = 6

 SCF Done:  E(UB3LYP) =  -3531.42873574     A.U. after    2 cycles

  Exact polarizability: 317.860  14.839 309.689  11.137   6.859 293.092
 Approx polarizability: 488.216  33.360 469.763   0.040  10.961 491.403

 ******    2 imaginary frequencies (negative Signs) ******

                      1                      2                      3
                      A                      A                      A
 Frequencies --   -108.0357                -9.3880                19.4973
 Red. masses --      5.2350                12.3863                 3.7154
 Frc consts  --      0.0360                 0.0006                 0.0008
 IR Inten    --    194.6303                 0.2494                 1.6035

                      4                      5                      6
                      A                      A                      A
 Frequencies --     33.3673                34.4552                45.5983
 Red. masses --      4.5274                 6.8444                 5.6485
 Frc consts  --      0.0030                 0.0048                 0.0069
 IR Inten    --      5.7098                 0.1309                 1.4693

                      7                      8                      9
                      A                      A                      A
 Frequencies --     60.4466                68.9598                72.0258
 Red. masses --      4.4951                 3.2523                 5.2285
 Frc consts  --      0.0097                 0.0091                 0.0160
 IR Inten    --      6.2060                 1.3730                 1.7599

                     10                     11                     12
                      A                      A                      A
 Frequencies --     81.2925                90.5207                93.4859
 Red. masses --      6.7875                10.7687                 5.1576
 Frc consts  --      0.0264                 0.0520                 0.0266
 IR Inten    --      0.3520                 0.1936                 2.6967

                     13                     14                     15
                      A                      A                      A
 Frequencies --    102.4653               105.2280               113.7818
 Red. masses --      3.0945                 4.9900                 8.4420
 Frc consts  --      0.0191                 0.0326                 0.0644
 IR Inten    --      2.4338                15.8062                 0.5021

                     16                     17                     18
                      A                      A                      A
 Frequencies --    122.2422               129.1270               133.6953
 Red. masses --      6.4357                 2.6823                 2.6944
 Frc consts  --      0.0567                 0.0264                 0.0284
 IR Inten    --      2.8453                 8.7872                10.3066

                     19                     20                     21
                      A                      A                      A
 Frequencies --    147.9161               151.4616               177.8950
 Red. masses --      4.4606                 1.3111                 2.2440
 Frc consts  --      0.0575                 0.0177                 0.0418
 IR Inten    --      4.8766                11.3688                14.4556

                     22                     23                     24
                      A                      A                      A
 Frequencies --    195.5203               204.4793               216.2085
 Red. masses --      2.2378                 3.5381                 3.0819
 Frc consts  --      0.0504                 0.0872                 0.0849
 IR Inten    --      7.1355                19.0176                14.9746

                     25                     26                     27
                      A                      A                      A
 Frequencies --    240.5789               255.5723               278.9186
 Red. masses --      3.5092                 1.7197                 2.9108
 Frc consts  --      0.1197                 0.0662                 0.1334
 IR Inten    --      3.6697                 3.0630                 3.0435

                     28                     29                     30
                      A                      A                      A
 Frequencies --    296.7999               306.8663               343.1858
 Red. masses --      4.0143                 4.4683                25.5119
 Frc consts  --      0.2083                 0.2479                 1.7703
 IR Inten    --      4.9024                 9.1766                51.9623

                     31                     32                     33
                      A                      A                      A
 Frequencies --    354.4864               377.0530               390.8119
 Red. masses --      4.0415                 5.9611                17.6151
 Frc consts  --      0.2992                 0.4993                 1.5852
 IR Inten    --      2.3272                15.7366                75.7649

                     34                     35                     36
                      A                      A                      A
 Frequencies --    396.4965               398.2490               415.4590
 Red. masses --      4.0477                10.0570                 2.9913
 Frc consts  --      0.3749                 0.9398                 0.3042
 IR Inten    --     45.0811                46.8974                 0.8672

                     37                     38                     39
                      A                      A                      A
 Frequencies --    432.1888               453.9221               485.1383
 Red. masses --      3.9225                 4.2290                 2.2421
 Frc consts  --      0.4317                 0.5134                 0.3109
 IR Inten    --     32.5998                 7.2388                 3.0105

                     40                     41                     42
                      A                      A                      A
 Frequencies --    505.5276               526.5875               536.3155
 Red. masses --      2.7995                 3.7745                 3.3458
 Frc consts  --      0.4215                 0.6167                 0.5670
 IR Inten    --      4.1254                22.5937                 9.1737

                     43                     44                     45
                      A                      A                      A
 Frequencies --    595.2046               625.9113               644.1223
 Red. masses --      5.3627                 6.3178                 3.9601
 Frc consts  --      1.1194                 1.4583                 0.9680
 IR Inten    --     51.8858                 3.3002               128.7738

                     46                     47                     48
                      A                      A                      A
 Frequencies --    696.5520               704.0148               756.9346
 Red. masses --      6.2192                 1.6554                 3.8955
 Frc consts  --      1.7778                 0.4834                 1.3150
 IR Inten    --     21.2035                63.3038                 7.8764

                     49                     50                     51
                      A                      A                      A
 Frequencies --    770.3875               801.6259               812.4340
 Red. masses --      2.2593                 1.4538                 2.4842
 Frc consts  --      0.7900                 0.5504                 0.9661
 IR Inten    --      6.6156                11.0283                23.2957

                     52                     53                     54
                      A                      A                      A
 Frequencies --    831.2963               851.6771               865.8332
 Red. masses --      2.8185                 1.2539                 1.9846
 Frc consts  --      1.1476                 0.5359                 0.8766
 IR Inten    --      1.9624                 2.5134                14.8375

                     55                     56                     57
                      A                      A                      A
 Frequencies --    874.3348               912.1047               923.2016
 Red. masses --      1.7269                 1.5672                 2.2862
 Frc consts  --      0.7778                 0.7682                 1.1481
 IR Inten    --      8.3424                 1.4146                15.9834

                     58                     59                     60
                      A                      A                      A
 Frequencies --    942.7731               967.3943               976.2221
 Red. masses --      1.4100                 2.8986                 1.3803
 Frc consts  --      0.7384                 1.5983                 0.7750
 IR Inten    --      1.5457                14.0632                 4.2088

                     61                     62                     63
                      A                      A                      A
 Frequencies --    987.8125               991.2324              1002.0224
 Red. masses --      1.3965                 1.9294                 1.7462
 Frc consts  --      0.8029                 1.1169                 1.0330
 IR Inten    --     44.2761                45.7402                 7.6376

                     64                     65                     66
                      A                      A                      A
 Frequencies --   1002.6192              1007.9365              1014.5842
 Red. masses --      1.6922                 2.6670                 1.9471
 Frc consts  --      1.0022                 1.5964                 1.1809
 IR Inten    --      2.3334                 1.7440                27.3310

                     67                     68                     69
                      A                      A                      A
 Frequencies --   1040.6802              1047.6640              1068.4346
 Red. masses --      2.8782                 2.2463                 2.1259
 Frc consts  --      1.8366                 1.4527                 1.4299
 IR Inten    --     42.5069                 4.4590                 1.3072

                     70                     71                     72
                      A                      A                      A
 Frequencies --   1079.6969              1100.4605              1108.6213
 Red. masses --      1.8848                 1.7248                 1.5791
 Frc consts  --      1.2946                 1.2306                 1.1435
 IR Inten    --      2.1472                 9.4441                11.0929

                     73                     74                     75
                      A                      A                      A
 Frequencies --   1132.8655              1137.1322              1164.2695
 Red. masses --      2.1996                 2.4302                 1.6988
 Frc consts  --      1.6632                 1.8515                 1.3568
 IR Inten    --     10.0975                 7.1768                24.4236

                     76                     77                     78
                      A                      A                      A
 Frequencies --   1168.4952              1175.0572              1199.6114
 Red. masses --      1.5717                 1.0878                 1.2363
 Frc consts  --      1.2643                 0.8849                 1.0482
 IR Inten    --      0.7747                 0.4700                34.7081

                     79                     80                     81
                      A                      A                      A
 Frequencies --   1206.5544              1222.2924              1232.9180
 Red. masses --      1.5093                 3.3210                 2.1278
 Frc consts  --      1.2946                 2.9233                 1.9057
 IR Inten    --     52.0085                69.1402               181.4875

                     82                     83                     84
                      A                      A                      A
 Frequencies --   1262.0242              1282.9935              1312.1098
 Red. masses --      1.9010                 1.1027                 1.6144
 Frc consts  --      1.7839                 1.0694                 1.6375
 IR Inten    --     21.6151                 1.9580               183.1329

                     85                     86                     87
                      A                      A                      A
 Frequencies --   1322.8849              1330.2343              1333.8487
 Red. masses --      1.5226                 1.4927                 1.7077
 Frc consts  --      1.5700                 1.5562                 1.7901
 IR Inten    --     64.0227                31.6577                17.7675

                     88                     89                     90
                      A                      A                      A
 Frequencies --   1359.3328              1364.5295              1366.9914
 Red. masses --      3.1345                 1.2902                 1.4026
 Frc consts  --      3.4125                 1.4154                 1.5443
 IR Inten    --      7.5127                71.8242                14.2488

                     91                     92                     93
                      A                      A                      A
 Frequencies --   1384.9186              1387.4711              1397.8194
 Red. masses --      1.4381                 1.2478                 1.8198
 Frc consts  --      1.6251                 1.4153                 2.0950
 IR Inten    --     43.9532                15.6308                28.9503

                     94                     95                     96
                      A                      A                      A
 Frequencies --   1416.7929              1421.0248              1442.6345
 Red. masses --      1.4711                 2.3778                 1.0625
 Frc consts  --      1.7398                 2.8290                 1.3028
 IR Inten    --     62.2428               375.2130                 4.9955

                     97                     98                     99
                      A                      A                      A
 Frequencies --   1463.1459              1467.6562              1473.5882
 Red. masses --      1.0793                 1.1767                 1.0393
 Frc consts  --      1.3614                 1.4934                 1.3297
 IR Inten    --     10.8942                16.8481                 6.5605

                    100                    101                    102
                      A                      A                      A
 Frequencies --   1476.0609              1478.7403              1483.4818
 Red. masses --      2.0035                 1.0924                 1.0550
 Frc consts  --      2.5719                 1.4074                 1.3680
 IR Inten    --     79.8365                 7.0840                 8.3234

                    103                    104                    105
                      A                      A                      A
 Frequencies --   1494.7000              1501.0511              1505.5549
 Red. masses --      1.1347                 1.1362                 1.0874
 Frc consts  --      1.4937                 1.5084                 1.4522
 IR Inten    --     18.2239                 6.3043                 8.9418

                    106                    107                    108
                      A                      A                      A
 Frequencies --   1515.7513              1616.0225              1623.8088
 Red. masses --      2.0866                 5.0477                 5.4489
 Frc consts  --      2.8245                 7.7667                 8.4651
 IR Inten    --      3.2986               103.6430                53.4289

                    109                    110                    111
                      A                      A                      A
 Frequencies --   1639.5199              1766.1315              2976.6520
 Red. masses --      5.6477                11.8478                 1.0554
 Frc consts  --      8.9445                21.7737                 5.5094
 IR Inten    --      6.2937               229.3833                35.2286

                    112                    113                    114
                      A                      A                      A
 Frequencies --   3015.7290              3037.9609              3042.7968
 Red. masses --      1.0402                 1.0640                 1.0359
 Frc consts  --      5.5735                 5.7859                 5.6511
 IR Inten    --      3.0665                20.1423                12.9858

                    115                    116                    117
                      A                      A                      A
 Frequencies --   3058.0934              3060.1321              3068.5500
 Red. masses --      1.0584                 1.0644                 1.0964
 Frc consts  --      5.8319                 5.8726                 6.0827
 IR Inten    --     16.0692                20.0309                 2.5850

                    118                    119                    120
                      A                      A                      A
 Frequencies --   3074.2018              3088.1245              3095.5719
 Red. masses --      1.0823                 1.0795                 1.0965
 Frc consts  --      6.0263                 6.0653                 6.1906
 IR Inten    --     11.5080                11.8627                15.8954

                    121                    122                    123
                      A                      A                      A
 Frequencies --   3104.6504              3113.5514              3119.2771
 Red. masses --      1.1077                 1.1038                 1.1007
 Frc consts  --      6.2904                 6.3044                 6.3101
 IR Inten    --      5.9783                12.1176                23.4066

                    124                    125                    126
                      A                      A                      A
 Frequencies --   3136.0892              3142.1669              3146.3537
 Red. masses --      1.1049                 1.1000                 1.1020
 Frc consts  --      6.4024                 6.3986                 6.4275
 IR Inten    --     21.0506                 7.5943                 5.7240

                    127                    128                    129
                      A                      A                      A
 Frequencies --   3159.8589              3172.3154              3183.4734
 Red. masses --      1.0865                 1.0856                 1.0902
 Frc consts  --      6.3917                 6.4371                 6.5099
 IR Inten    --     11.4724                 0.1278                 6.8540

                    130                    131                    132
                      A                      A                      A
 Frequencies --   3193.9840              3206.1431              3217.9304
 Red. masses --      1.0954                 1.0944                 1.0929
 Frc consts  --      6.5838                 6.6284                 6.6681
 IR Inten    --     13.2491                 2.3536                 2.2720

 - Thermochemistry -
 -------------------
 Temperature   298.150 Kelvin.  Pressure   1.00000 Atm.
 Atom     1 has atomic number  6 and mass  12.00000

 Molecular mass:   434.99839 amu.
 Principal axes and moments of inertia in atomic units:
                           1         2         3
     Eigenvalues --  9231.47197********************
           X            0.99890   0.04227   0.02027
           Y           -0.04258   0.99898   0.01501
           Z           -0.01962  -0.01585   0.99968
 This molecule is an asymmetric top.
 Rotational symmetry number  1.
 Warning -- assumption of classical behavior for rotation
           may cause significant error
 Rotational temperatures (Kelvin)      0.00938     0.00765     0.00640
 Rotational constants (GHZ):           0.19550     0.15948     0.13334
    2 imaginary frequencies ignored.
 Zero-point vibrational energy     941109.6 (Joules/Mol)
                                  224.93060 (Kcal/Mol)
 Warning -- explicit consideration of  41 degrees of freedom as
           vibrations may cause significant error
 Vibrational temperatures:     28.05    48.01    49.57    65.61    86.97
          (Kelvin)             99.22   103.63   116.96   130.24   134.51
                              147.42   151.40   163.71   175.88   185.78
                              192.36   212.82   217.92   255.95   281.31
                              294.20   311.08   346.14   367.71   401.30
                              427.03   441.51   493.77   510.03   542.50
                              562.29   570.47   572.99   597.75   621.82
                              653.09   698.01   727.34   757.64   771.64
                              856.37   900.55   926.75  1002.18  1012.92
                             1089.06  1108.42  1153.36  1168.91  1196.05
                             1225.37  1245.74  1257.97  1312.32  1328.28
                             1356.44  1391.86  1404.57  1421.24  1426.16
                             1441.69  1442.55  1450.20  1459.76  1497.31
                             1507.35  1537.24  1553.44  1583.32  1595.06
                             1629.94  1636.08  1675.12  1681.20  1690.65
                             1725.97  1735.96  1758.61  1773.89  1815.77
                             1845.94  1887.83  1903.34  1913.91  1919.11
                             1955.78  1963.25  1966.80  1992.59  1996.26
                             2011.15  2038.45  2044.54  2075.63  2105.14
                             2111.63  2120.16  2123.72  2127.58  2134.40
                             2150.54  2159.68  2166.16  2180.83  2325.10
                             2336.30  2358.90  2541.07  4282.74  4338.96
                             4370.95  4377.91  4399.91  4402.85  4414.96
                             4423.09  4443.12  4453.84  4466.90  4479.71
                             4487.94  4512.13  4520.88  4526.90  4546.33
                             4564.25  4580.31  4595.43  4612.92  4629.88

 Zero-point correction=                           0.358450 (Hartree/Particle)
 Thermal correction to Energy=                    0.385374
 Thermal correction to Enthalpy=                  0.386319
 Thermal correction to Gibbs Free Energy=         0.297059
 Sum of electronic and zero-point Energies=          -3531.070286
 Sum of electronic and thermal Energies=             -3531.043361
 Sum of electronic and thermal Enthalpies=           -3531.042417
 Sum of electronic and thermal Free Energies=        -3531.131676

                     E (Thermal)             CV                S
                      KCal/Mol        Cal/Mol-Kelvin    Cal/Mol-Kelvin
 Total                  241.826             95.859            187.862
 Electronic               0.000              0.000              3.561
 Translational            0.889              2.981             44.100
 Rotational               0.889              2.981             35.601
 Vibrational            240.049             89.898            104.600
 Vibration     1          0.593              1.986              6.685
 Vibration     2          0.594              1.983              5.618
 Vibration     3          0.594              1.983              5.555
 Vibration     4          0.595              1.979              5.000
 Vibration     5          0.597              1.973              4.443
 Vibration     6          0.598              1.969              4.183
 Vibration     7          0.598              1.967              4.097
 Vibration     8          0.600              1.962              3.859
 Vibration     9          0.602              1.956              3.649
 Vibration    10          0.602              1.954              3.586
 Vibration    11          0.605              1.947              3.407
 Vibration    12          0.605              1.945              3.355
 Vibration    13          0.607              1.938              3.203
 Vibration    14          0.610              1.931              3.065
 Vibration    15          0.612              1.924              2.959
 Vibration    16          0.613              1.920              2.892
 Vibration    17          0.617              1.905              2.699
 Vibration    18          0.619              1.901              2.654
 Vibration    19          0.628              1.870              2.350
 Vibration    20          0.636              1.846              2.175
 Vibration    21          0.640              1.834              2.092
 Vibration    22          0.645              1.816              1.991
 Vibration    23          0.658              1.778              1.799
 Vibration    24          0.666              1.753              1.692
 Vibration    25          0.679              1.713              1.540
 Vibration    26          0.690              1.680              1.435
 Vibration    27          0.697              1.661              1.379
 Vibration    28          0.722              1.589              1.197
 Vibration    29          0.730              1.566              1.146
 Vibration    30          0.748              1.519              1.051
 Vibration    31          0.758              1.490              0.997
 Vibration    32          0.763              1.478              0.976
 Vibration    33          0.765              1.474              0.969
 Vibration    34          0.779              1.437              0.908
 Vibration    35          0.793              1.400              0.852
 Vibration    36          0.812              1.352              0.784
 Vibration    37          0.841              1.283              0.696
 Vibration    38          0.861              1.238              0.644
 Vibration    39          0.882              1.191              0.595
 Vibration    40          0.891              1.170              0.573
 Vibration    41          0.953              1.042              0.458

                           ! Non-Optimized Parameters !
 Normal termination of Gaussian 16 at Sun Jun 20 09:51:37 2021.

 ----------------------------------------------------------------------
 #p ub3lyp jul-cc-pvdz pop=cm5 scrf=(pcm,solvent=dichloroethane) guess=
 read geom=allcheck
 ----------------------------------------------------------------------

 Structure from the checkpoint file:  "checkpoint.chk"
 -----
 title
 -----
 Charge =  0 Multiplicity = 6

 SCF Done:  E(UB3LYP) =  -3531.44916906     A.U. after   18 cycles
 Normal termination of Gaussian 16 at Sun Jun 20 10:15:43 2021.
 Gaussian 16:  ES64L-G16RevA.03 25-Dec-2016

 ----------------------------------------------------------------------
 #p ub3lyp jul-cc-pvdz pop=cm5 scrf=(pcm,solvent=water) guess=read geom
 =allcheck
 ----------------------------------------------------------------------

 Structure from the checkpoint file:  "checkpoint.chk"
 -----
 title
 -----
 Charge =  0 Multiplicity = 6

                         Standard orientation:
 ---------------------------------------------------------------------
 Center     Atomic      Atomic             Coordinates (Angstroms)
 Number     Number       Type             X           Y           Z
 ---------------------------------------------------------------------
      1          6           0        3.088887   -0.638714    0.247021
      2          6           0        1.738082   -0.626524    0.642591
      3          6           0        1.432675   -0.605860    2.014174
      4          6           0        2.452995   -0.606828    2.967548
      5          6           0        3.791530   -0.627423    2.565793
      6          6           0        4.105602   -0.638567    1.201223
      7          6           0        0.608510   -0.583113   -0.352469
      8          6           0        0.777069    0.205837   -1.699025
      9          6           0        1.162150   -0.673888   -2.890281
     10          6           0        0.455183   -2.008271   -2.664570
     11          6           0        0.859314   -2.451366   -1.278066
     12          6           0        0.146182   -3.281207   -0.441865
     13          6           0       -1.315937   -3.506273   -0.588231
     14          8           0       -0.573603   -0.536320    0.156050
     15         26           0       -2.247487    0.438789    0.362675
     16         17           0       -2.831259    1.208919   -1.631072
     17          6           0        0.788984   -3.870801    0.771735
     18         17           0       -1.859197    2.019883    1.846600
     19         17           0       -3.683757   -1.063121    1.125996
     20          1           0        0.391310   -0.561680    2.326762
     21          1           0        2.198534   -0.581258    4.027875
     22          1           0        4.588739   -0.625914    3.310711
     23          1           0        5.147362   -0.641521    0.878277
     24          1           0        3.358650   -0.634112   -0.807789
     25          1           0       -0.231710    0.600198   -1.875531
     26          6           0        1.686860    1.426200   -1.544189
     27          1           0        0.865062   -0.191129   -3.829869
     28          1           0        2.251322   -0.810812   -2.931578
     29          1           0       -0.632330   -1.886342   -2.750849
     30          1           0        0.765203   -2.757653   -3.408813
     31          1           0        1.940067   -2.472673   -1.132541
     32          1           0        1.842062   -3.588804    0.875599
     33          1           0        0.239468   -3.561151    1.676375
     34          1           0        0.716650   -4.969533    0.730510
     35          1           0       -1.624231   -4.458277   -0.136789
     36          1           0       -1.841033   -2.706140   -0.030633
     37          1           0       -1.663821   -3.462139   -1.625639
     38          8           0        1.145739    2.316833   -0.704228
     39          8           0        2.738801    1.580159   -2.129421
     40          6           0        1.897403    3.544578   -0.477215
     41          6           0        1.066997    4.431254    0.426944
     42          1           0        2.862483    3.272375   -0.028014
     43          1           0        2.094951    4.007456   -1.453100
     44          1           0        1.617425    5.363171    0.621522
     45          1           0        0.107339    4.683777   -0.043133
     46          1           0        0.860366    3.937492    1.385291
 ---------------------------------------------------------------------

 SCF Done:  E(UB3LYP) =  -3531.45288064     A.U. after   16 cycles

 The electronic state is 6-A.
 Alpha  occ. eigenvalues -- -256.21079-101.52565-101.52426-101.52419 -30.20489
 Alpha  occ. eigenvalues --  -26.05868 -26.05685 -26.05602 -19.20638 -19.18079
 Alpha  occ. eigenvalues --  -19.15672 -10.33427 -10.32580 -10.25262 -10.24985
 Alpha  occ. eigenvalues --  -10.22536 -10.22064 -10.21194 -10.21054 -10.20895
 Alpha  occ. eigenvalues --  -10.20820 -10.20697 -10.20584 -10.20140 -10.20045
 Alpha  occ. eigenvalues --  -10.20035 -10.19691 -10.18660  -9.44287  -9.44162
 Alpha  occ. eigenvalues --   -9.44151  -7.20152  -7.20029  -7.20020  -7.19842
 Alpha  occ. eigenvalues --   -7.19824  -7.19708  -7.19704  -7.19694  -7.19693
 Alpha  occ. eigenvalues --   -3.68153  -2.45779  -2.45432  -2.45268  -1.12543
 Alpha  occ. eigenvalues --   -1.07686  -1.04031  -0.87982  -0.86400  -0.83365
 Alpha  occ. eigenvalues --   -0.80528  -0.79793  -0.79717  -0.78934  -0.78200
 Alpha  occ. eigenvalues --   -0.76519  -0.75015  -0.71785  -0.70434  -0.66691
 Alpha  occ. eigenvalues --   -0.64525  -0.62466  -0.61602  -0.59606  -0.57510
 Alpha  occ. eigenvalues --   -0.55968  -0.54564  -0.53149  -0.51470  -0.50347
 Alpha  occ. eigenvalues --   -0.49848  -0.49183  -0.48734  -0.48448  -0.48233
 Alpha  occ. eigenvalues --   -0.47994  -0.47521  -0.47176  -0.46725  -0.45935
 Alpha  occ. eigenvalues --   -0.45401  -0.44819  -0.44035  -0.43485  -0.42509
 Alpha  occ. eigenvalues --   -0.42471  -0.41117  -0.40620  -0.40432  -0.40074
 Alpha  occ. eigenvalues --   -0.38941  -0.38579  -0.37821  -0.37673  -0.37547
 Alpha  occ. eigenvalues --   -0.37071  -0.36944  -0.36268  -0.36031  -0.35739
 Alpha  occ. eigenvalues --   -0.34948  -0.34703  -0.34248  -0.32323  -0.32076
 Alpha  occ. eigenvalues --   -0.31320  -0.31298  -0.31045  -0.30556  -0.30141
 Alpha  occ. eigenvalues --   -0.29958  -0.29307  -0.28475  -0.27280  -0.26008
 Alpha virt. eigenvalues --   -0.11190  -0.03611  -0.02867  -0.01596  -0.01231
 Alpha virt. eigenvalues --   -0.00202  -0.00062   0.00043   0.01429   0.01633
 Alpha virt. eigenvalues --    0.01789   0.01973   0.02362   0.03349   0.03613

  Beta  occ. eigenvalues -- -256.20894-101.52380-101.52238-101.52238 -30.11536
  Beta  occ. eigenvalues --  -25.98296 -25.98263 -25.98213 -19.20638 -19.17606
  Beta  occ. eigenvalues --  -19.15670 -10.33427 -10.32572 -10.25222 -10.24985
  Beta  occ. eigenvalues --  -10.22524 -10.22042 -10.21174 -10.21055 -10.20897
  Beta  occ. eigenvalues --  -10.20822 -10.20694 -10.20583 -10.20140 -10.20044
  Beta  occ. eigenvalues --  -10.20037 -10.19694 -10.18659  -9.44105  -9.43977
  Beta  occ. eigenvalues --   -9.43974  -7.19847  -7.19723  -7.19717  -7.19592
  Beta  occ. eigenvalues --   -7.19578  -7.19457  -7.19456  -7.19448  -7.19446
  Beta  occ. eigenvalues --   -3.47280  -2.23543  -2.23498  -2.23445  -1.12541
  Beta  occ. eigenvalues --   -1.06770  -1.04028  -0.87930  -0.86338  -0.83305
  Beta  occ. eigenvalues --   -0.79338  -0.78926  -0.78513  -0.78429  -0.78126
  Beta  occ. eigenvalues --   -0.76514  -0.74991  -0.71773  -0.70343  -0.66524
  Beta  occ. eigenvalues --   -0.64449  -0.62431  -0.61521  -0.59250  -0.57254
  Beta  occ. eigenvalues --   -0.55501  -0.54471  -0.52303  -0.51441  -0.50108
  Beta  occ. eigenvalues --   -0.49577  -0.48869  -0.47925  -0.47384  -0.46728
  Beta  occ. eigenvalues --   -0.45754  -0.44846  -0.44021  -0.43493  -0.42479
  Beta  occ. eigenvalues --   -0.42473  -0.41182  -0.40598  -0.40402  -0.40079
  Beta  occ. eigenvalues --   -0.38929  -0.38440  -0.38303  -0.37731  -0.37503
  Beta  occ. eigenvalues --   -0.37037  -0.36982  -0.36309  -0.36145  -0.36099
  Beta  occ. eigenvalues --   -0.35998  -0.35791  -0.34852  -0.33399  -0.33390
  Beta  occ. eigenvalues --   -0.32741  -0.32508  -0.32046  -0.31599  -0.30385
  Beta  occ. eigenvalues --   -0.29834  -0.29311  -0.28493  -0.27288  -0.25899
  Beta virt. eigenvalues --   -0.15099  -0.14621  -0.13647  -0.13475  -0.13101
  Beta virt. eigenvalues --   -0.10287  -0.03577  -0.02832  -0.01497  -0.01183
  Beta virt. eigenvalues --   -0.00158  -0.00038   0.00073   0.01445   0.01661

 Mulliken charges and spin densities:
               1          2
     1  C   -0.282049  -0.002191
     2  C    3.244640   0.008816
     3  C   -0.777346  -0.003689
     4  C    0.010569   0.003662
     5  C    0.250905  -0.001774
     6  C    0.007030   0.002944
     7  C   -2.583525  -0.001704
     8  C    0.971064  -0.001616
     9  C    0.603949   0.001324
    10  C    0.765366   0.001508
    11  C    0.641599   0.007347
    12  C   -0.297775   0.030170
    13  C    0.003718  -0.004913
    14  O   -0.464981   0.138237
    15  Fe   0.599096   4.068583
    16  Cl  -0.506864   0.243647
    17  C    0.304973  -0.001302
    18  Cl  -0.463313   0.255503
    19  Cl  -0.483073   0.247452
    20  H   -0.201134   0.000750
    21  H   -0.154165   0.000005
    22  H   -0.156052   0.000032
    23  H   -0.156731   0.000147
    24  H   -0.178009  -0.000087
    25  H   -0.212387   0.000371
    26  C    0.815487  -0.004096
    27  H   -0.171618   0.000296
    28  H   -0.051230  -0.000133
    29  H   -0.078486  -0.000092
    30  H   -0.141590   0.000541
    31  H   -0.234731  -0.000769
    32  H    0.012063   0.000018
    33  H    0.075386   0.001752
    34  H    0.002291   0.001684
    35  H    0.007486   0.000398
    36  H    0.111709   0.004305
    37  H    0.029390   0.000355
    38  O   -0.694112   0.001292
    39  O   -0.627519   0.000887
    40  C    0.447783   0.001099
    41  C    0.041721  -0.000707
    42  H   -0.030226   0.000005
    43  H   -0.035601   0.000018
    44  H   -0.008113   0.000009
    45  H    0.023458   0.000045
    46  H    0.020950  -0.000130
 Sum of Mulliken charges =  -0.00000   5.00000

 Dipole moment (field-independent basis, Debye):
    X=              9.8684    Y=             -7.7260    Z=             -1.0166  Tot=             12.5742
 Quadrupole moment (field-independent basis, Debye-Ang):
   XX=           -196.8475   YY=           -152.6570   ZZ=           -174.8362
   XY=              1.9455   XZ=             14.1498   YZ=              4.1840

 Normal termination of Gaussian 16 at Sun Jun 20 10:34:56 2021.
