 Gaussian 16, Revision A.03,

 -----------------------------------------------------------
 #p opt=modredundant freq=noraman ub3lyp jul-cc-pvdz pop=cm5
 -----------------------------------------------------------

 -----
 title
 -----
 Symbolic Z-matrix:
 Charge =  0 Multiplicity = 6

 SCF Done:  E(UB3LYP) =  -3531.43385377     A.U. after   22 cycles
 SCF Done:  E(UB3LYP) =  -3531.43330734     A.U. after   15 cycles
 SCF Done:  E(UB3LYP) =  -3531.43112606     A.U. after   15 cycles
 SCF Done:  E(UB3LYP) =  -3531.43028814     A.U. after   16 cycles
 SCF Done:  E(UB3LYP) =  -3531.43399373     A.U. after   10 cycles
 SCF Done:  E(UB3LYP) =  -3531.43379273     A.U. after   16 cycles
 SCF Done:  E(UB3LYP) =  -3531.43433386     A.U. after   14 cycles
 SCF Done:  E(UB3LYP) =  -3531.43438007     A.U. after   14 cycles
 SCF Done:  E(UB3LYP) =  -3531.43439112     A.U. after   15 cycles
 SCF Done:  E(UB3LYP) =  -3531.43440375     A.U. after   14 cycles
 SCF Done:  E(UB3LYP) =  -3531.43440670     A.U. after   13 cycles
 SCF Done:  E(UB3LYP) =  -3531.43440941     A.U. after   11 cycles
 SCF Done:  E(UB3LYP) =  -3531.43441113     A.U. after   11 cycles
 SCF Done:  E(UB3LYP) =  -3531.43441152     A.U. after   11 cycles
 SCF Done:  E(UB3LYP) =  -3531.43441176     A.U. after   10 cycles
 Optimization completed.
    -- Stationary point found.
 Normal termination of Gaussian 16 at Sun Jun 20 04:05:43 2021.

 ----------------------------------------------------------------------
 #P Geom=AllCheck Guess=TCheck SCRF=Check GenChk UB3LYP/Jul-CC-pVDZ Fre
 q
 ----------------------------------------------------------------------

 Structure from the checkpoint file:  "checkpoint.chk"
 -----
 title
 -----
 Charge =  0 Multiplicity = 6

 SCF Done:  E(UB3LYP) =  -3531.43441176     A.U. after    2 cycles

  Exact polarizability: 280.565   4.868 293.892  23.443   2.108 284.418
 Approx polarizability: 410.286   4.738 463.118  43.516  -1.626 450.040

                      1                      2                      3
                      A                      A                      A
 Frequencies --     20.7166                27.3413                31.5600
 Red. masses --      6.7233                 5.9300                 5.0146
 Frc consts  --      0.0017                 0.0026                 0.0029
 IR Inten    --      0.4134                 0.4563                 0.1670

                      4                      5                      6
                      A                      A                      A
 Frequencies --     45.4841                48.4514                63.5503
 Red. masses --      4.7582                 4.6226                 2.4695
 Frc consts  --      0.0058                 0.0064                 0.0059
 IR Inten    --      0.6887                 1.5665                 0.3798

                      7                      8                      9
                      A                      A                      A
 Frequencies --     69.2842                77.7081                80.9463
 Red. masses --      5.4900                11.2418                 8.0421
 Frc consts  --      0.0155                 0.0400                 0.0310
 IR Inten    --      0.4703                 0.5787                 0.7613

                     10                     11                     12
                      A                      A                      A
 Frequencies --     87.1807               101.8568               115.1180
 Red. masses --     10.0496                 5.7090                16.8629
 Frc consts  --      0.0450                 0.0349                 0.1317
 IR Inten    --      2.1269                 0.8780                 1.2849

                     13                     14                     15
                      A                      A                      A
 Frequencies --    117.0898               120.3600               127.9700
 Red. masses --     12.1099                 4.6448                 4.2570
 Frc consts  --      0.0978                 0.0396                 0.0411
 IR Inten    --      2.8995                 0.4597                 3.7119

                     16                     17                     18
                      A                      A                      A
 Frequencies --    143.5341               169.1687               183.9478
 Red. masses --      3.7880                 2.5815                 4.1332
 Frc consts  --      0.0460                 0.0435                 0.0824
 IR Inten    --      4.9435                 0.8768                 6.6977

                     19                     20                     21
                      A                      A                      A
 Frequencies --    194.7602               213.9298               224.2597
 Red. masses --      3.5873                 1.3777                 2.9637
 Frc consts  --      0.0802                 0.0372                 0.0878
 IR Inten    --      3.0899                 1.1032                 8.6355

                     22                     23                     24
                      A                      A                      A
 Frequencies --    240.7524               252.4654               258.2963
 Red. masses --      2.3452                 2.5956                 1.4999
 Frc consts  --      0.0801                 0.0975                 0.0590
 IR Inten    --      0.9325                 4.1380                 1.2179

                     25                     26                     27
                      A                      A                      A
 Frequencies --    264.0367               297.1319               311.3686
 Red. masses --      1.5045                 3.3024                 2.9323
 Frc consts  --      0.0618                 0.1718                 0.1675
 IR Inten    --      0.4522                 7.3758                 1.1441

                     28                     29                     30
                      A                      A                      A
 Frequencies --    340.4445               341.4017               360.7796
 Red. masses --     11.4153                 5.0942                 4.5653
 Frc consts  --      0.7795                 0.3498                 0.3501
 IR Inten    --     46.5804                35.2559                21.8737

                     31                     32                     33
                      A                      A                      A
 Frequencies --    373.5261               393.3693               400.2795
 Red. masses --      3.4323                 9.8426                 5.1251
 Frc consts  --      0.2821                 0.8973                 0.4838
 IR Inten    --      0.9904                29.9378                47.8570

                     34                     35                     36
                      A                      A                      A
 Frequencies --    403.6885               407.7000               417.2337
 Red. masses --      8.1442                 3.5465                 3.6478
 Frc consts  --      0.7820                 0.3473                 0.3741
 IR Inten    --     40.0960                48.5667                82.4801

                     37                     38                     39
                      A                      A                      A
 Frequencies --    431.5752               471.7372               515.9918
 Red. masses --      5.5960                 4.0320                 3.2706
 Frc consts  --      0.6141                 0.5286                 0.5130
 IR Inten    --     47.7342                 9.0586                13.3783

                     40                     41                     42
                      A                      A                      A
 Frequencies --    542.2053               557.6904               627.1162
 Red. masses --      3.1865                 2.5238                 6.0067
 Frc consts  --      0.5519                 0.4625                 1.3918
 IR Inten    --     11.3617                 1.3613                 0.7024

                     43                     44                     45
                      A                      A                      A
 Frequencies --    637.6689               667.6690               705.4361
 Red. masses --      4.6580                 5.0437                 1.7589
 Frc consts  --      1.1159                 1.3247                 0.5157
 IR Inten    --     13.0393                15.5423                32.4706

                     46                     47                     48
                      A                      A                      A
 Frequencies --    708.7797               757.8056               779.5814
 Red. masses --      3.3437                 2.7374                 3.2566
 Frc consts  --      0.9897                 0.9262                 1.1661
 IR Inten    --     17.0531                15.9477                19.2113

                     49                     50                     51
                      A                      A                      A
 Frequencies --    787.6448               802.1773               809.1506
 Red. masses --      3.8698                 2.0062                 1.6051
 Frc consts  --      1.4145                 0.7606                 0.6192
 IR Inten    --      7.1846                18.8671                10.9756

                     52                     53                     54
                      A                      A                      A
 Frequencies --    842.5713               845.3137               871.4860
 Red. masses --      2.0847                 1.2657                 2.6619
 Frc consts  --      0.8720                 0.5329                 1.1911
 IR Inten    --     37.6634                 1.2952                 8.1681

                     55                     56                     57
                      A                      A                      A
 Frequencies --    912.3216               920.2226               933.6818
 Red. masses --      2.3645                 1.6779                 1.5408
 Frc consts  --      1.1595                 0.8371                 0.7914
 IR Inten    --     95.0309                 8.5651                 1.4972

                     58                     59                     60
                      A                      A                      A
 Frequencies --    940.6090               958.2506               968.1446
 Red. masses --      2.2001                 2.6286                 4.1699
 Frc consts  --      1.1468                 1.4221                 2.3028
 IR Inten    --     26.8600                11.5903                 4.4212

                     61                     62                     63
                      A                      A                      A
 Frequencies --    980.9964               981.9582              1001.7752
 Red. masses --      1.7986                 1.5569                 1.3088
 Frc consts  --      1.0198                 0.8845                 0.7739
 IR Inten    --      6.5203                 7.9607                 0.6678

                     64                     65                     66
                      A                      A                      A
 Frequencies --   1006.1000              1008.9617              1022.2098
 Red. masses --      5.0026                 1.4426                 2.6680
 Frc consts  --      2.9835                 0.8652                 1.6426
 IR Inten    --      1.4037                 0.7643                20.5591

                     67                     68                     69
                      A                      A                      A
 Frequencies --   1040.6181              1053.4925              1058.3470
 Red. masses --      2.4629                 2.2705                 2.2296
 Frc consts  --      1.5714                 1.4847                 1.4714
 IR Inten    --     37.7329                 1.4961                15.3223

                     70                     71                     72
                      A                      A                      A
 Frequencies --   1066.1071              1100.0504              1110.4162
 Red. masses --      2.8468                 2.2960                 1.7281
 Frc consts  --      1.9064                 1.6370                 1.2554
 IR Inten    --      0.4493                11.3624                23.0022

                     73                     74                     75
                      A                      A                      A
 Frequencies --   1121.9090              1132.7213              1155.9196
 Red. masses --      1.7236                 2.1799                 1.6704
 Frc consts  --      1.2782                 1.6479                 1.3150
 IR Inten    --      3.9261                 8.2411                26.1191

                     76                     77                     78
                      A                      A                      A
 Frequencies --   1169.1011              1174.8666              1182.5173
 Red. masses --      1.5569                 1.1226                 1.4862
 Frc consts  --      1.2538                 0.9130                 1.2245
 IR Inten    --      4.1477                 2.1246                 7.9008

                     79                     80                     81
                      A                      A                      A
 Frequencies --   1198.4366              1210.3351              1222.4289
 Red. masses --      1.9738                 1.1831                 1.8950
 Frc consts  --      1.6702                 1.0212                 1.6684
 IR Inten    --    151.8187                 7.1671                80.2840

                     82                     83                     84
                      A                      A                      A
 Frequencies --   1255.6066              1269.2204              1283.3763
 Red. masses --      1.8068                 1.9292                 1.1146
 Frc consts  --      1.6783                 1.8310                 1.0816
 IR Inten    --     43.8138                29.7490                 1.9034

                     85                     86                     87
                      A                      A                      A
 Frequencies --   1293.5750              1304.1859              1317.8540
 Red. masses --      1.8749                 2.0035                 1.4169
 Frc consts  --      1.8484                 2.0078                 1.4499
 IR Inten    --     52.9750                10.2377                 4.6275

                     88                     89                     90
                      A                      A                      A
 Frequencies --   1326.9511              1335.7548              1360.7012
 Red. masses --      1.5684                 2.1209                 2.1907
 Frc consts  --      1.6271                 2.2296                 2.3898
 IR Inten    --     33.5017                 9.0278                 0.3582

                     91                     92                     93
                      A                      A                      A
 Frequencies --   1365.7448              1370.8760              1391.9776
 Red. masses --      1.3861                 1.4778                 1.5702
 Frc consts  --      1.5233                 1.6362                 1.7926
 IR Inten    --     23.6280                 4.8584                67.2736

                     94                     95                     96
                      A                      A                      A
 Frequencies --   1407.3759              1413.0278              1416.9758
 Red. masses --      1.4332                 1.2522                 1.5237
 Frc consts  --      1.6725                 1.4731                 1.8025
 IR Inten    --     27.8529                20.9685                 4.3778

                     97                     98                     99
                      A                      A                      A
 Frequencies --   1461.6193              1469.4934              1473.6847
 Red. masses --      1.0682                 2.2815                 1.0394
 Frc consts  --      1.3445                 2.9027                 1.3299
 IR Inten    --      0.8071                 8.2508                 3.8058

                    100                    101                    102
                      A                      A                      A
 Frequencies --   1479.3296              1483.0711              1487.5710
 Red. masses --      1.0613                 1.0832                 1.0521
 Frc consts  --      1.3684                 1.4037                 1.3717
 IR Inten    --      0.2639                 1.4840                 1.6944

                    103                    104                    105
                      A                      A                      A
 Frequencies --   1489.5220              1500.3973              1507.2883
 Red. masses --      1.0761                 1.0865                 1.0846
 Frc consts  --      1.4067                 1.4411                 1.4519
 IR Inten    --      5.3837                12.2657                 5.9873

                    106                    107                    108
                      A                      A                      A
 Frequencies --   1512.3681              1525.0890              1626.0709
 Red. masses --      1.0719                 2.2488                 5.6657
 Frc consts  --      1.4444                 3.0817                 8.8265
 IR Inten    --      2.7613                 3.2827                 0.5300

                    109                    110                    111
                      A                      A                      A
 Frequencies --   1648.4892              1773.1804              3027.6753
 Red. masses --      5.7405                11.5815                 1.0432
 Frc consts  --      9.1913                21.4546                 5.6342
 IR Inten    --      0.0358               201.5721                 2.7959

                    112                    113                    114
                      A                      A                      A
 Frequencies --   3037.6300              3040.0396              3058.3767
 Red. masses --      1.0437                 1.0355                 1.0584
 Frc consts  --      5.6738                 5.6384                 5.8329
 IR Inten    --     11.8079                19.4749                12.9567

                    115                    116                    117
                      A                      A                      A
 Frequencies --   3060.5831              3067.8917              3084.9354
 Red. masses --      1.0603                 1.0617                 1.0862
 Frc consts  --      5.8517                 5.8877                 6.0905
 IR Inten    --     11.7232                38.3115                 7.8336

                    118                    119                    120
                      A                      A                      A
 Frequencies --   3098.9942              3102.3050              3112.1336
 Red. masses --      1.1026                 1.1067                 1.0911
 Frc consts  --      6.2389                 6.2757                 6.2265
 IR Inten    --      6.5366                 6.7103                 4.2023

                    121                    122                    123
                      A                      A                      A
 Frequencies --   3115.6960              3115.8424              3121.4755
 Red. masses --      1.1019                 1.1014                 1.0907
 Frc consts  --      6.3026                 6.2999                 6.2612
 IR Inten    --      7.5853                22.7680                 2.5437

                    124                    125                    126
                      A                      A                      A
 Frequencies --   3124.4715              3133.1007              3151.7812
 Red. masses --      1.0919                 1.1045                 1.1051
 Frc consts  --      6.2803                 6.3878                 6.4676
 IR Inten    --     21.1575                23.8734                 4.0898

                    127                    128                    129
                      A                      A                      A
 Frequencies --   3156.9548              3169.6614              3179.4012
 Red. masses --      1.1039                 1.0848                 1.0881
 Frc consts  --      6.4823                 6.4211                 6.4802
 IR Inten    --      5.9184                 0.2100                 6.3139

                    130                    131                    132
                      A                      A                      A
 Frequencies --   3187.8744              3194.1381              3199.5661
 Red. masses --      1.0915                 1.0942                 1.0989
 Frc consts  --      6.5354                 6.5775                 6.6281
 IR Inten    --     13.9862                 6.6877                10.8061

 - Thermochemistry -
 -------------------
 Temperature   298.150 Kelvin.  Pressure   1.00000 Atm.
 Atom     1 has atomic number  6 and mass  12.00000

 Molecular mass:   434.99839 amu.
 Principal axes and moments of inertia in atomic units:
                           1         2         3
     Eigenvalues --  8979.64925********************
           X            0.99603   0.08746   0.01650
           Y           -0.08783   0.99586   0.02324
           Z           -0.01440  -0.02459   0.99959
 This molecule is an asymmetric top.
 Rotational symmetry number  1.
 Warning -- assumption of classical behavior for rotation
           may cause significant error
 Rotational temperatures (Kelvin)      0.00965     0.00748     0.00689
 Rotational constants (GHZ):           0.20098     0.15586     0.14351
 Zero-point vibrational energy     947512.4 (Joules/Mol)
                                  226.46089 (Kcal/Mol)
 Warning -- explicit consideration of  41 degrees of freedom as
           vibrations may cause significant error
 Vibrational temperatures:     29.81    39.34    45.41    65.44    69.71
          (Kelvin)             91.43    99.68   111.80   116.46   125.43
                              146.55   165.63   168.47   173.17   184.12
                              206.51   243.40   264.66   280.22   307.80
                              322.66   346.39   363.24   371.63   379.89
                              427.51   447.99   489.82   491.20   519.08
                              537.42   565.97   575.91   580.82   586.59
                              600.31   620.94   678.72   742.40   780.11
                              802.39   902.28   917.46   960.63  1014.97
                             1019.78  1090.31  1121.64  1133.25  1154.15
                             1164.19  1212.27  1216.22  1253.87  1312.63
                             1324.00  1343.36  1353.33  1378.71  1392.94
                             1411.43  1412.82  1441.33  1447.55  1451.67
                             1470.73  1497.22  1515.74  1522.73  1533.89
                             1582.73  1597.64  1614.18  1629.73  1663.11
                             1682.08  1690.37  1701.38  1724.28  1741.40
                             1758.80  1806.54  1826.13  1846.49  1861.17
                             1876.43  1896.10  1909.19  1921.85  1957.75
                             1965.00  1972.38  2002.75  2024.90  2033.03
                             2038.71  2102.94  2114.27  2120.30  2128.43
                             2133.81  2140.28  2143.09  2158.74  2168.65
                             2175.96  2194.26  2339.55  2371.81  2551.21
                             4356.15  4370.47  4373.94  4400.32  4403.50
                             4414.01  4438.53  4458.76  4463.52  4477.67
                             4482.79  4483.00  4491.11  4495.42  4507.83
                             4534.71  4542.15  4560.44  4574.45  4586.64
                             4595.65  4603.46

 Zero-point correction=                           0.360888 (Hartree/Particle)
 Thermal correction to Energy=                    0.388082
 Thermal correction to Enthalpy=                  0.389026
 Thermal correction to Gibbs Free Energy=         0.299202
 Sum of electronic and zero-point Energies=          -3531.073523
 Sum of electronic and thermal Energies=             -3531.046330
 Sum of electronic and thermal Enthalpies=           -3531.045386
 Sum of electronic and thermal Free Energies=        -3531.135209

                     E (Thermal)             CV                S
                      KCal/Mol        Cal/Mol-Kelvin    Cal/Mol-Kelvin
 Total                  243.525             97.895            189.050
 Electronic               0.000              0.000              3.561
 Translational            0.889              2.981             44.100
 Rotational               0.889              2.981             35.524
 Vibrational            241.748             91.933            105.866
 Vibration     1          0.593              1.986              6.564
 Vibration     2          0.593              1.984              6.014
 Vibration     3          0.594              1.983              5.729
 Vibration     4          0.595              1.979              5.005
 Vibration     5          0.595              1.978              4.880
 Vibration     6          0.597              1.972              4.344
 Vibration     7          0.598              1.969              4.174
 Vibration     8          0.599              1.964              3.948
 Vibration     9          0.600              1.962              3.868
 Vibration    10          0.601              1.958              3.722
 Vibration    11          0.604              1.948              3.418
 Vibration    12          0.608              1.937              3.181
 Vibration    13          0.608              1.935              3.148
 Vibration    14          0.609              1.932              3.095
 Vibration    15          0.611              1.925              2.976
 Vibration    16          0.616              1.910              2.756
 Vibration    17          0.625              1.880              2.445
 Vibration    18          0.631              1.862              2.288
 Vibration    19          0.635              1.847              2.182
 Vibration    20          0.644              1.820              2.010
 Vibration    21          0.649              1.804              1.924
 Vibration    22          0.658              1.778              1.797
 Vibration    23          0.664              1.759              1.713
 Vibration    24          0.667              1.749              1.673
 Vibration    25          0.671              1.739              1.635
 Vibration    26          0.691              1.679              1.433
 Vibration    27          0.700              1.652              1.355
 Vibration    28          0.720              1.595              1.210
 Vibration    29          0.721              1.593              1.206
 Vibration    30          0.735              1.553              1.119
 Vibration    31          0.745              1.526              1.065
 Vibration    32          0.761              1.484              0.987
 Vibration    33          0.766              1.470              0.962
 Vibration    34          0.769              1.462              0.949
 Vibration    35          0.772              1.453              0.935
 Vibration    36          0.780              1.433              0.901
 Vibration    37          0.793              1.401              0.854
 Vibration    38          0.829              1.313              0.733
 Vibration    39          0.871              1.215              0.619
 Vibration    40          0.897              1.157              0.561
 Vibration    41          0.913              1.123              0.528

 Optimization completed.
    -- Stationary point found.
 Normal termination of Gaussian 16 at Sun Jun 20 08:36:30 2021.

 ----------------------------------------------------------------------
 #p ub3lyp jul-cc-pvdz pop=cm5 scrf=(pcm,solvent=dichloroethane) guess=
 read geom=allcheck
 ----------------------------------------------------------------------

 Structure from the checkpoint file:  "checkpoint.chk"
 -----
 title
 -----
 Charge =  0 Multiplicity = 6

 SCF Done:  E(UB3LYP) =  -3531.45316294     A.U. after   17 cycles
 Normal termination of Gaussian 16 at Sun Jun 20 09:03:53 2021.
 Gaussian 16:  ES64L-G16RevA.03 25-Dec-2016

 ----------------------------------------------------------------------
 #p ub3lyp jul-cc-pvdz pop=cm5 scrf=(pcm,solvent=water) guess=read geom
 =allcheck
 ----------------------------------------------------------------------

 Structure from the checkpoint file:  "checkpoint.chk"
 -----
 title
 -----
 Charge =  0 Multiplicity = 6

                         Standard orientation:
 ---------------------------------------------------------------------
 Center     Atomic      Atomic             Coordinates (Angstroms)
 Number     Number       Type             X           Y           Z
 ---------------------------------------------------------------------
      1          6           0        1.705958   -2.190250    1.654032
      2          6           0        1.160468   -1.061092    1.027605
      3          6           0        1.207025    0.168465    1.703245
      4          6           0        1.755704    0.258119    2.982653
      5          6           0        2.290288   -0.875346    3.602249
      6          6           0        2.270838   -2.098535    2.929894
      7          6           0        0.593379   -1.141299   -0.371400
      8          6           0        1.533895   -0.627546   -1.516164
      9          6           0        2.133842   -1.920943   -2.099683
     10          6           0        0.971392   -2.933725   -2.123757
     11          6           0        0.100966   -2.565572   -0.908966
     12          6           0       -1.338106   -2.036729   -1.097162
     13          6           0       -1.866666   -1.791737   -2.483600
     14          8           0       -0.777566   -0.552032   -0.487679
     15         26           0       -1.948565    0.896305    0.298308
     16         17           0       -3.759543    0.871430   -0.968834
     17          6           0       -2.349204   -2.586958   -0.126635
     18         17           0       -0.927177    2.839232    0.159606
     19         17           0       -2.440261    0.314008    2.360645
     20          1           0        0.813670    1.070137    1.235466
     21          1           0        1.763609    1.220181    3.496350
     22          1           0        2.721411   -0.804038    4.601811
     23          1           0        2.692919   -2.989350    3.397099
     24          1           0        1.711625   -3.156136    1.150041
     25          1           0        0.887793   -0.134361   -2.252829
     26          6           0        2.618775    0.359952   -1.108514
     27          1           0        2.577718   -1.751995   -3.089450
     28          1           0        2.940568   -2.262099   -1.437180
     29          1           0        0.409646   -2.853795   -3.062764
     30          1           0        1.332289   -3.968244   -2.060582
     31          1           0        0.114322   -3.338158   -0.135792
     32          1           0       -2.570961   -3.621408   -0.435945
     33          1           0       -1.958368   -2.610305    0.896547
     34          1           0       -3.284858   -2.016231   -0.146170
     35          1           0       -2.109979   -2.766604   -2.935013
     36          1           0       -2.783529   -1.193967   -2.442519
     37          1           0       -1.141501   -1.285803   -3.129227
     38          8           0        2.230726    1.628450   -1.326180
     39          8           0        3.705078    0.043691   -0.671647
     40          6           0        3.185996    2.667102   -0.968950
     41          6           0        2.613396    3.994806   -1.421323
     42          1           0        3.338943    2.627728    0.118289
     43          1           0        4.143575    2.434900   -1.453666
     44          1           0        3.309739    4.801192   -1.149240
     45          1           0        2.473496    4.012081   -2.511200
     46          1           0        1.645669    4.189833   -0.941245
 ---------------------------------------------------------------------

 SCF Done:  E(UB3LYP) =  -3531.45674714     A.U. after   14 cycles

 The electronic state is 6-A.
 Alpha  occ. eigenvalues -- -256.21746-101.53129-101.53047-101.52916 -30.21101
 Alpha  occ. eigenvalues --  -26.06510 -26.06301 -26.06206 -19.20822 -19.20306
 Alpha  occ. eigenvalues --  -19.15177 -10.32807 -10.29442 -10.28880 -10.24742
 Alpha  occ. eigenvalues --  -10.21928 -10.21809 -10.21584 -10.20553 -10.20324
 Alpha  occ. eigenvalues --  -10.20311 -10.20271 -10.20232 -10.19921 -10.19826
 Alpha  occ. eigenvalues --  -10.19802 -10.19712 -10.18593  -9.44845  -9.44774
 Alpha  occ. eigenvalues --   -9.44643  -7.20713  -7.20645  -7.20516  -7.20409
 Alpha  occ. eigenvalues --   -7.20381  -7.20341  -7.20301  -7.20196  -7.20185
 Alpha  occ. eigenvalues --   -3.68724  -2.46356  -2.46033  -2.45811  -1.12026
 Alpha  occ. eigenvalues --   -1.05613  -1.03571  -0.87811  -0.85767  -0.83068
 Alpha  occ. eigenvalues --   -0.81142  -0.80385  -0.80265  -0.78642  -0.77785
 Alpha  occ. eigenvalues --   -0.76180  -0.74577  -0.72219  -0.71477  -0.66351
 Alpha  occ. eigenvalues --   -0.63995  -0.62207  -0.60909  -0.59475  -0.56978
 Alpha  occ. eigenvalues --   -0.56067  -0.54088  -0.52937  -0.51368  -0.50583
 Alpha  occ. eigenvalues --   -0.50029  -0.49288  -0.48975  -0.48934  -0.48740
 Alpha  occ. eigenvalues --   -0.48270  -0.47767  -0.47043  -0.46306  -0.46104
 Alpha  occ. eigenvalues --   -0.45273  -0.44705  -0.43896  -0.43256  -0.42863
 Alpha  occ. eigenvalues --   -0.41958  -0.40948  -0.40296  -0.40112  -0.39800
 Alpha  occ. eigenvalues --   -0.39532  -0.38559  -0.37904  -0.37362  -0.37160
 Alpha  occ. eigenvalues --   -0.36835  -0.36607  -0.36111  -0.35632  -0.35155
 Alpha  occ. eigenvalues --   -0.35067  -0.34536  -0.34021  -0.33306  -0.32121
 Alpha  occ. eigenvalues --   -0.31729  -0.31580  -0.31494  -0.31387  -0.31143
 Alpha  occ. eigenvalues --   -0.30366  -0.30318  -0.29253  -0.26888  -0.26596
 Alpha virt. eigenvalues --   -0.03813  -0.03034  -0.02652  -0.01456  -0.01321
 Alpha virt. eigenvalues --   -0.00162  -0.00041   0.00118   0.01504   0.01708
 Alpha virt. eigenvalues --    0.01748   0.01854   0.02371   0.03227   0.03761

  Beta  occ. eigenvalues -- -256.21560-101.52930-101.52847-101.52716 -30.12193
  Beta  occ. eigenvalues --  -25.98971 -25.98919 -25.98850 -19.20458 -19.20306
  Beta  occ. eigenvalues --  -19.15175 -10.32806 -10.29428 -10.28855 -10.24742
  Beta  occ. eigenvalues --  -10.21922 -10.21799 -10.21581 -10.20551 -10.20323
  Beta  occ. eigenvalues --  -10.20311 -10.20270 -10.20231 -10.19921 -10.19822
  Beta  occ. eigenvalues --  -10.19801 -10.19710 -10.18591  -9.44651  -9.44578
  Beta  occ. eigenvalues --   -9.44447  -7.20398  -7.20321  -7.20194  -7.20126
  Beta  occ. eigenvalues --   -7.20115  -7.20058  -7.20041  -7.19920  -7.19914
  Beta  occ. eigenvalues --   -3.47939  -2.24227  -2.24162  -2.24087  -1.12025
  Beta  occ. eigenvalues --   -1.04959  -1.03568  -0.87761  -0.85661  -0.83009
  Beta  occ. eigenvalues --   -0.79861  -0.79024  -0.78880  -0.78618  -0.77745
  Beta  occ. eigenvalues --   -0.76172  -0.74556  -0.72175  -0.71356  -0.66322
  Beta  occ. eigenvalues --   -0.63951  -0.62190  -0.60851  -0.59368  -0.56937
  Beta  occ. eigenvalues --   -0.55471  -0.54035  -0.52347  -0.51249  -0.50080
  Beta  occ. eigenvalues --   -0.49601  -0.48997  -0.47467  -0.46866  -0.46381
  Beta  occ. eigenvalues --   -0.45307  -0.44703  -0.43905  -0.43297  -0.42868
  Beta  occ. eigenvalues --   -0.41953  -0.40957  -0.40262  -0.40088  -0.39789
  Beta  occ. eigenvalues --   -0.38982  -0.38569  -0.38021  -0.37359  -0.37231
  Beta  occ. eigenvalues --   -0.36989  -0.36746  -0.36613  -0.36579  -0.36012
  Beta  occ. eigenvalues --   -0.35591  -0.35113  -0.34041  -0.33942  -0.33779
  Beta  occ. eigenvalues --   -0.33328  -0.32987  -0.32631  -0.31845  -0.31341
  Beta  occ. eigenvalues --   -0.30553  -0.30216  -0.29214  -0.26875  -0.26572
  Beta virt. eigenvalues --   -0.15752  -0.15301  -0.14278  -0.14117  -0.13854
  Beta virt. eigenvalues --   -0.03720  -0.02983  -0.02233  -0.01352  -0.01282
  Beta virt. eigenvalues --   -0.00098  -0.00019   0.00143   0.01527   0.01735

 Mulliken charges and spin densities:
               1          2
     1  C   -0.282988   0.005193
     2  C    3.360101  -0.004385
     3  C   -0.395760  -0.016176
     4  C    0.013123   0.000754
     5  C    0.256969  -0.000122
     6  C   -0.186387   0.001496
     7  C   -2.432046   0.027764
     8  C    0.227571  -0.000438
     9  C    0.518580   0.001026
    10  C    0.592163   0.001529
    11  C    0.831060   0.000644
    12  C   -0.862445   0.011470
    13  C    0.429965  -0.002945
    14  O   -0.238983   0.094165
    15  Fe   0.560394   4.057924
    16  Cl  -0.469070   0.274129
    17  C    0.518209   0.001859
    18  Cl  -0.439410   0.274346
    19  Cl  -0.437859   0.267868
    20  H   -0.313763   0.000688
    21  H   -0.164303   0.000005
    22  H   -0.162530   0.000023
    23  H   -0.158022   0.000023
    24  H   -0.191289  -0.000017
    25  H   -0.213787  -0.000026
    26  C    1.032739   0.001528
    27  H   -0.140900   0.000308
    28  H   -0.056279  -0.000004
    29  H   -0.095544  -0.000030
    30  H   -0.123540   0.000352
    31  H   -0.226151   0.001114
    32  H    0.013245   0.000052
    33  H    0.048037  -0.000725
    34  H    0.031646   0.000239
    35  H    0.035259   0.001842
    36  H    0.021421  -0.000298
    37  H    0.037556  -0.000298
    38  O   -0.698877  -0.001032
    39  O   -0.665655   0.000562
    40  C    0.412695  -0.000942
    41  C    0.060231   0.001155
    42  H   -0.040769   0.000025
    43  H   -0.049207  -0.000002
    44  H   -0.003584   0.000067
    45  H    0.021541  -0.000001
    46  H    0.026643  -0.000710
 Sum of Mulliken charges =  -0.00000   5.00000

 Dipole moment (field-independent basis, Debye):
    X=              3.9208    Y=             -8.0329    Z=             -4.5297  Tot=             10.0209
 Quadrupole moment (field-independent basis, Debye-Ang):
   XX=           -199.4006   YY=           -155.4304   ZZ=           -167.0557
   XY=             17.9684   XZ=              7.6146   YZ=              5.8263

 Normal termination of Gaussian 16 at Sun Jun 20 09:26:28 2021.
