 Gaussian 16, Revision A.03,

 -----------------------------------------------------------
 #p opt=modredundant freq=noraman ub3lyp jul-cc-pvdz pop=cm5
 -----------------------------------------------------------

 -----
 title
 -----
 Symbolic Z-matrix:
 Charge =  0 Multiplicity = 6

 SCF Done:  E(UB3LYP) =  -3531.40918545     A.U. after   25 cycles
 SCF Done:  E(UB3LYP) =  -3531.40979834     A.U. after   15 cycles
 SCF Done:  E(UB3LYP) =  -3531.40955618     A.U. after   16 cycles
 SCF Done:  E(UB3LYP) =  -3531.40988904     A.U. after   15 cycles
 SCF Done:  E(UB3LYP) =  -3531.40988291     A.U. after   15 cycles
 SCF Done:  E(UB3LYP) =  -3531.40993971     A.U. after   14 cycles
 SCF Done:  E(UB3LYP) =  -3531.40994868     A.U. after   13 cycles
 SCF Done:  E(UB3LYP) =  -3531.40995350     A.U. after   11 cycles
 SCF Done:  E(UB3LYP) =  -3531.40995543     A.U. after   12 cycles
 SCF Done:  E(UB3LYP) =  -3531.40995700     A.U. after   11 cycles
 SCF Done:  E(UB3LYP) =  -3531.40995856     A.U. after   11 cycles
 SCF Done:  E(UB3LYP) =  -3531.40995953     A.U. after   12 cycles
 SCF Done:  E(UB3LYP) =  -3531.40996082     A.U. after   12 cycles
 SCF Done:  E(UB3LYP) =  -3531.40996173     A.U. after   12 cycles
 SCF Done:  E(UB3LYP) =  -3531.40996202     A.U. after   12 cycles
 SCF Done:  E(UB3LYP) =  -3531.40996249     A.U. after   11 cycles
 SCF Done:  E(UB3LYP) =  -3531.40996261     A.U. after   11 cycles
 Optimization completed.
    -- Stationary point found.
 Normal termination of Gaussian 16 at Sun Jun 20 05:21:10 2021.

 ----------------------------------------------------------------------
 #P Geom=AllCheck Guess=TCheck SCRF=Check GenChk UB3LYP/Jul-CC-pVDZ Fre
 q
 ----------------------------------------------------------------------

 Structure from the checkpoint file:  "checkpoint.chk"
 -----
 title
 -----
 Charge =  0 Multiplicity = 6

 SCF Done:  E(UB3LYP) =  -3531.40996261     A.U. after    1 cycles

  Exact polarizability: 324.890   4.859 288.333  13.779  -7.125 285.389
 Approx polarizability: 477.228  17.375 437.503  10.545 -20.447 471.485

 ******    1 imaginary frequencies (negative Signs) ******

                      1                      2                      3
                      A                      A                      A
 Frequencies --   -172.7017                16.4422                23.2588
 Red. masses --      4.3241                 6.3441                 6.5494
 Frc consts  --      0.0760                 0.0010                 0.0021
 IR Inten    --      7.3318                 1.1029                 0.8830

                      4                      5                      6
                      A                      A                      A
 Frequencies --     29.9884                37.9829                43.3115
 Red. masses --      6.1336                 6.0098                 3.9586
 Frc consts  --      0.0032                 0.0051                 0.0044
 IR Inten    --      2.8554                 0.3613                 0.8180

                      7                      8                      9
                      A                      A                      A
 Frequencies --     53.3590                64.6856                72.5984
 Red. masses --      3.4784                 5.2550                 4.4580
 Frc consts  --      0.0058                 0.0130                 0.0138
 IR Inten    --      1.0163                 1.1031                 2.0504

                     10                     11                     12
                      A                      A                      A
 Frequencies --     83.2226                86.7619                93.3393
 Red. masses --      6.2197                 7.6127                 9.6349
 Frc consts  --      0.0254                 0.0338                 0.0495
 IR Inten    --      1.1398                 0.5421                 0.6843

                     13                     14                     15
                      A                      A                      A
 Frequencies --     99.9433               112.3967               121.6659
 Red. masses --      6.7964                 7.8022                 9.0774
 Frc consts  --      0.0400                 0.0581                 0.0792
 IR Inten    --     12.1530                 1.1669                 4.1867

                     16                     17                     18
                      A                      A                      A
 Frequencies --    125.7262               139.2283               155.5392
 Red. masses --      3.9192                 6.5293                 4.1209
 Frc consts  --      0.0365                 0.0746                 0.0587
 IR Inten    --      5.3242                 0.2548                 0.7712

                     19                     20                     21
                      A                      A                      A
 Frequencies --    168.9962               186.0044               205.3178
 Red. masses --      1.6399                 2.4058                 1.6329
 Frc consts  --      0.0276                 0.0490                 0.0406
 IR Inten    --      5.6389                 1.4317                 1.9751

                     22                     23                     24
                      A                      A                      A
 Frequencies --    225.6603               233.2873               246.4956
 Red. masses --      1.8388                 2.9271                 1.5906
 Frc consts  --      0.0552                 0.0939                 0.0569
 IR Inten    --      9.0487                 0.5477                18.7944

                     25                     26                     27
                      A                      A                      A
 Frequencies --    263.0188               278.5057               299.1420
 Red. masses --      2.4042                 4.8861                 3.1788
 Frc consts  --      0.0980                 0.2233                 0.1676
 IR Inten    --      2.7452                 4.1469                 0.4627

                     28                     29                     30
                      A                      A                      A
 Frequencies --    324.3493               327.0822               341.7817
 Red. masses --      8.3371                 4.2697                 3.1838
 Frc consts  --      0.5168                 0.2691                 0.2191
 IR Inten    --     36.0670                24.8397                 3.0731

                     31                     32                     33
                      A                      A                      A
 Frequencies --    351.2918               369.8568               389.6572
 Red. masses --     25.2249                 6.4438                 2.7992
 Frc consts  --      1.8341                 0.5193                 0.2504
 IR Inten    --     72.0778                15.3878                 7.2637

                     34                     35                     36
                      A                      A                      A
 Frequencies --    396.6669               412.2957               429.3330
 Red. masses --     21.4754                 2.9065                 4.1102
 Frc consts  --      1.9909                 0.2911                 0.4464
 IR Inten    --     83.0976                 0.2182                12.7690

                     37                     38                     39
                      A                      A                      A
 Frequencies --    442.5867               483.7029               498.3481
 Red. masses --      3.2343                 3.1593                 3.0260
 Frc consts  --      0.3733                 0.4355                 0.4428
 IR Inten    --      3.0733                 1.3291                 4.3361

                     40                     41                     42
                      A                      A                      A
 Frequencies --    536.7894               556.4585               601.3030
 Red. masses --      2.8720                 3.2412                 3.4118
 Frc consts  --      0.4876                 0.5913                 0.7268
 IR Inten    --     11.2910                 7.2650                12.6574

                     43                     44                     45
                      A                      A                      A
 Frequencies --    627.7891               640.2459               704.7288
 Red. masses --      6.2329                 3.7805                 2.2434
 Frc consts  --      1.4473                 0.9130                 0.6564
 IR Inten    --      0.5166                 3.8861                19.5435

                     46                     47                     48
                      A                      A                      A
 Frequencies --    710.1197               735.4355               753.8000
 Red. masses --      2.4229                 3.1922                 2.3427
 Frc consts  --      0.7199                 1.0173                 0.7843
 IR Inten    --     34.1236                57.9909                10.7452

                     49                     50                     51
                      A                      A                      A
 Frequencies --    782.1002               804.2864               811.1359
 Red. masses --      3.3025                 1.4464                 1.3973
 Frc consts  --      1.1902                 0.5513                 0.5417
 IR Inten    --     40.0836                14.2782                 3.5984

                     52                     53                     54
                      A                      A                      A
 Frequencies --    828.2686               846.6754               859.6471
 Red. masses --      2.1908                 1.2653                 2.6411
 Frc consts  --      0.8855                 0.5344                 1.1499
 IR Inten    --      3.8464                 1.5145                 3.6805

                     55                     56                     57
                      A                      A                      A
 Frequencies --    875.1281               902.9712               925.3149
 Red. masses --      2.5298                 2.3579                 1.9937
 Frc consts  --      1.1415                 1.1327                 1.0057
 IR Inten    --     36.0094                 9.2069                 3.2503

                     58                     59                     60
                      A                      A                      A
 Frequencies --    935.1486               953.5536               981.5145
 Red. masses --      2.3258                 2.3735                 1.3916
 Frc consts  --      1.1983                 1.2715                 0.7899
 IR Inten    --     15.1227                15.4770                 1.4277

                     61                     62                     63
                      A                      A                      A
 Frequencies --    986.4148               993.8829               998.6231
 Red. masses --      2.1312                 2.3334                 1.4458
 Frc consts  --      1.2218                 1.3580                 0.8495
 IR Inten    --     11.9093                19.6426                15.4797

                     64                     65                     66
                      A                      A                      A
 Frequencies --   1000.1502              1007.0728              1011.9825
 Red. masses --      1.5127                 3.2394                 1.7701
 Frc consts  --      0.8915                 1.9357                 1.0681
 IR Inten    --      3.2990                 9.3269                19.7709

                     67                     68                     69
                      A                      A                      A
 Frequencies --   1025.8384              1041.7826              1047.0012
 Red. masses --      1.7847                 3.3458                 2.4362
 Frc consts  --      1.1066                 2.1395                 1.5735
 IR Inten    --     14.2209                13.2990                22.4179

                     70                     71                     72
                      A                      A                      A
 Frequencies --   1052.9878              1095.7473              1109.7802
 Red. masses --      2.4819                 1.9434                 2.1241
 Frc consts  --      1.6214                 1.3748                 1.5413
 IR Inten    --     32.9732                78.5043                 8.3204

                     73                     74                     75
                      A                      A                      A
 Frequencies --   1113.7044              1119.1025              1156.9303
 Red. masses --      2.3292                 2.8394                 1.9423
 Frc consts  --      1.7021                 2.0952                 1.5317
 IR Inten    --     39.3297                60.6348                93.9043

                     76                     77                     78
                      A                      A                      A
 Frequencies --   1158.9227              1172.3592              1182.7552
 Red. masses --      1.4494                 1.0876                 2.0245
 Frc consts  --      1.1470                 0.8807                 1.6686
 IR Inten    --     18.0405                 0.3369                57.2230

                     79                     80                     81
                      A                      A                      A
 Frequencies --   1191.2306              1198.9541              1232.1685
 Red. masses --      1.8276                 1.2099                 2.3233
 Frc consts  --      1.5280                 1.0247                 2.0782
 IR Inten    --     33.8402                16.2924               149.3706

                     82                     83                     84
                      A                      A                      A
 Frequencies --   1234.9084              1240.9081              1301.6959
 Red. masses --      1.6745                 1.7347                 1.3945
 Frc consts  --      1.5046                 1.5738                 1.3921
 IR Inten    --     99.3552                52.6900                78.8750

                     85                     86                     87
                      A                      A                      A
 Frequencies --   1306.1907              1309.4120              1313.0494
 Red. masses --      1.2544                 1.4288                 1.2690
 Frc consts  --      1.2610                 1.4433                 1.2890
 IR Inten    --     44.1037                33.0732                25.4848

                     88                     89                     90
                      A                      A                      A
 Frequencies --   1319.6684              1329.2177              1339.7658
 Red. masses --      1.2157                 1.6716                 1.2867
 Frc consts  --      1.2474                 1.7401                 1.3608
 IR Inten    --     51.0496                 5.2054                18.6385

                     91                     92                     93
                      A                      A                      A
 Frequencies --   1354.3795              1362.0401              1370.5094
 Red. masses --      3.4884                 1.7073                 1.4704
 Frc consts  --      3.7702                 1.8662                 1.6273
 IR Inten    --      3.3923                72.6714                18.5521

                     94                     95                     96
                      A                      A                      A
 Frequencies --   1389.1513              1402.8583              1411.7121
 Red. masses --      1.4401                 1.6723                 1.3775
 Frc consts  --      1.6374                 1.9390                 1.6175
 IR Inten    --     57.5324                22.0297                12.3935

                     97                     98                     99
                      A                      A                      A
 Frequencies --   1414.1046              1438.9016              1467.9629
 Red. masses --      1.1639                 1.0594                 2.2649
 Frc consts  --      1.3713                 1.2924                 2.8756
 IR Inten    --      1.3552                 5.5132                11.0660

                    100                    101                    102
                      A                      A                      A
 Frequencies --   1476.6011              1477.7919              1484.0968
 Red. masses --      1.0484                 1.0827                 1.1112
 Frc consts  --      1.3468                 1.3931                 1.4420
 IR Inten    --      9.2482                 5.0368                 9.1762

                    103                    104                    105
                      A                      A                      A
 Frequencies --   1487.2329              1492.7799              1494.1942
 Red. masses --      1.3181                 1.2247                 1.0644
 Frc consts  --      1.7177                 1.6080                 1.4001
 IR Inten    --     17.0777                10.2587                 5.6767

                    106                    107                    108
                      A                      A                      A
 Frequencies --   1502.6003              1515.7751              1622.5325
 Red. masses --      1.2092                 2.1581                 5.8430
 Frc consts  --      1.6085                 2.9214                 9.0631
 IR Inten    --      2.0152                 8.8669                 0.1180

                    109                    110                    111
                      A                      A                      A
 Frequencies --   1641.9356              1763.4727              2853.9897
 Red. masses --      5.7792                11.2556                 1.0656
 Frc consts  --      9.1797                20.6232                 5.1138
 IR Inten    --      0.4978               205.0660               268.7995

                    112                    113                    114
                      A                      A                      A
 Frequencies --   2952.1307              3028.5202              3037.6554
 Red. masses --      1.0557                 1.0810                 1.0354
 Frc consts  --      5.4208                 5.8417                 5.6293
 IR Inten    --     72.7060                 5.2342                18.4050

                    115                    116                    117
                      A                      A                      A
 Frequencies --   3038.2839              3053.2626              3053.9647
 Red. masses --      1.0797                 1.0664                 1.0612
 Frc consts  --      5.8725                 5.8574                 5.8314
 IR Inten    --      5.7063                15.2898                13.6648

                    118                    119                    120
                      A                      A                      A
 Frequencies --   3061.7903              3077.8882              3085.5902
 Red. masses --      1.0636                 1.0593                 1.0843
 Frc consts  --      5.8748                 5.9128                 6.0825
 IR Inten    --     14.5770                13.5856                 0.9812

                    121                    122                    123
                      A                      A                      A
 Frequencies --   3105.4205              3112.2793              3118.8843
 Red. masses --      1.1039                 1.0992                 1.1044
 Frc consts  --      6.2720                 6.2731                 6.3297
 IR Inten    --     12.2079                24.0213                14.8489

                    124                    125                    126
                      A                      A                      A
 Frequencies --   3119.3768              3143.9011              3166.1057
 Red. masses --      1.1044                 1.1092                 1.0852
 Frc consts  --      6.3315                 6.4595                 6.4093
 IR Inten    --      3.4500                14.3452                 2.9000

                    127                    128                    129
                      A                      A                      A
 Frequencies --   3166.6654              3173.8054              3178.2438
 Red. masses --      1.1007                 1.0883                 1.0993
 Frc consts  --      6.5030                 6.4592                 6.5428
 IR Inten    --      6.0779                 3.5176                 3.2558

                    130                    131                    132
                      A                      A                      A
 Frequencies --   3183.5673              3194.3352              3222.0907
 Red. masses --      1.0933                 1.0982                 1.0922
 Frc consts  --      6.5284                 6.6024                 6.6805
 IR Inten    --     15.8967                14.9729                 2.8070

 - Thermochemistry -
 -------------------
 Temperature   298.150 Kelvin.  Pressure   1.00000 Atm.
 Atom     1 has atomic number  6 and mass  12.00000

 Molecular mass:   434.99839 amu.
 Principal axes and moments of inertia in atomic units:
                           1         2         3
     Eigenvalues --  8414.70474********************
           X            0.99743  -0.06882   0.01992
           Y            0.06881   0.99763   0.00128
           Z           -0.01996   0.00009   0.99980
 This molecule is an asymmetric top.
 Rotational symmetry number  1.
 Warning -- assumption of classical behavior for rotation
           may cause significant error
 Rotational temperatures (Kelvin)      0.01029     0.00719     0.00631
 Rotational constants (GHZ):           0.21447     0.14987     0.13152
    1 imaginary frequencies ignored.
 Zero-point vibrational energy     938445.5 (Joules/Mol)
                                  224.29386 (Kcal/Mol)
 Warning -- explicit consideration of  41 degrees of freedom as
           vibrations may cause significant error
 Vibrational temperatures:     23.66    33.46    43.15    54.65    62.32
          (Kelvin)             76.77    93.07   104.45   119.74   124.83
                              134.29   143.80   161.71   175.05   180.89
                              200.32   223.79   243.15   267.62   295.41
                              324.67   335.65   354.65   378.43   400.71
                              430.40   466.67   470.60   491.75   505.43
                              532.14   560.63   570.72   593.20   617.71
                              636.78   695.94   717.01   772.32   800.62
                              865.14   903.25   921.17  1013.95  1021.70
                             1058.13  1084.55  1125.27  1157.19  1167.04
                             1191.69  1218.18  1236.84  1259.11  1299.17
                             1331.32  1345.47  1371.95  1412.18  1419.23
                             1429.98  1436.80  1438.99  1448.95  1456.02
                             1475.95  1498.89  1506.40  1515.01  1576.54
                             1596.73  1602.37  1610.14  1664.56  1667.43
                             1686.76  1701.72  1713.92  1725.03  1772.82
                             1776.76  1785.39  1872.85  1879.32  1883.95
                             1889.19  1898.71  1912.45  1927.62  1948.65
                             1959.67  1971.86  1998.68  2018.40  2031.14
                             2034.58  2070.26  2112.07  2124.50  2126.21
                             2135.28  2139.80  2147.78  2149.81  2161.91
                             2180.86  2334.46  2362.38  2537.24  4106.25
                             4247.46  4357.37  4370.51  4371.41  4392.96
                             4393.97  4405.23  4428.39  4439.48  4468.01
                             4477.88  4487.38  4488.09  4523.37  4555.32
                             4556.13  4566.40  4572.78  4580.44  4595.94
                             4635.87

 Zero-point correction=                           0.357435 (Hartree/Particle)
 Thermal correction to Energy=                    0.384623
 Thermal correction to Enthalpy=                  0.385568
 Thermal correction to Gibbs Free Energy=         0.294594
 Sum of electronic and zero-point Energies=          -3531.052528
 Sum of electronic and thermal Energies=             -3531.025339
 Sum of electronic and thermal Enthalpies=           -3531.024395
 Sum of electronic and thermal Free Energies=        -3531.115369

                     E (Thermal)             CV                S
                      KCal/Mol        Cal/Mol-Kelvin    Cal/Mol-Kelvin
 Total                  241.355             97.051            191.470
 Electronic               0.000              0.000              3.561
 Translational            0.889              2.981             44.100
 Rotational               0.889              2.981             35.585
 Vibrational            239.577             91.089            108.225
 Vibration     1          0.593              1.986              7.023
 Vibration     2          0.593              1.985              6.335
 Vibration     3          0.594              1.984              5.830
 Vibration     4          0.594              1.982              5.362
 Vibration     5          0.595              1.980              5.102
 Vibration     6          0.596              1.976              4.689
 Vibration     7          0.597              1.971              4.309
 Vibration     8          0.599              1.967              4.082
 Vibration     9          0.600              1.961              3.813
 Vibration    10          0.601              1.958              3.732
 Vibration    11          0.602              1.954              3.589
 Vibration    12          0.604              1.949              3.455
 Vibration    13          0.607              1.939              3.227
 Vibration    14          0.609              1.931              3.074
 Vibration    15          0.611              1.927              3.010
 Vibration    16          0.615              1.914              2.814
 Vibration    17          0.620              1.896              2.603
 Vibration    18          0.625              1.881              2.447
 Vibration    19          0.632              1.859              2.267
 Vibration    20          0.640              1.832              2.085
 Vibration    21          0.650              1.802              1.913
 Vibration    22          0.654              1.790              1.854
 Vibration    23          0.661              1.769              1.756
 Vibration    24          0.670              1.741              1.642
 Vibration    25          0.679              1.713              1.543
 Vibration    26          0.692              1.675              1.422
 Vibration    27          0.709              1.627              1.288
 Vibration    28          0.711              1.621              1.274
 Vibration    29          0.721              1.592              1.204
 Vibration    30          0.728              1.573              1.160
 Vibration    31          0.742              1.534              1.080
 Vibration    32          0.758              1.492              1.001
 Vibration    33          0.763              1.477              0.975
 Vibration    34          0.776              1.444              0.919
 Vibration    35          0.791              1.406              0.861
 Vibration    36          0.802              1.377              0.819
 Vibration    37          0.840              1.286              0.700
 Vibration    38          0.854              1.254              0.662
 Vibration    39          0.892              1.169              0.572
 Vibration    40          0.912              1.126              0.531
 Vibration    41          0.960              1.029              0.447

                           ! Non-Optimized Parameters !
 Normal termination of Gaussian 16 at Sun Jun 20 10:02:03 2021.

 ----------------------------------------------------------------------
 #p ub3lyp jul-cc-pvdz pop=cm5 scrf=(pcm,solvent=dichloroethane) guess=
 read geom=allcheck
 ----------------------------------------------------------------------

 Structure from the checkpoint file:  "checkpoint.chk"
 -----
 title
 -----
 Charge =  0 Multiplicity = 6

 SCF Done:  E(UB3LYP) =  -3531.43751640     A.U. after   18 cycles
 Normal termination of Gaussian 16 at Sun Jun 20 10:31:40 2021.
 Gaussian 16:  ES64L-G16RevA.03 25-Dec-2016

 ----------------------------------------------------------------------
 #p ub3lyp jul-cc-pvdz pop=cm5 scrf=(pcm,solvent=water) guess=read geom
 =allcheck
 ----------------------------------------------------------------------

 Structure from the checkpoint file:  "checkpoint.chk"
 -----
 title
 -----
 Charge =  0 Multiplicity = 6

                         Standard orientation:
 ---------------------------------------------------------------------
 Center     Atomic      Atomic             Coordinates (Angstroms)
 Number     Number       Type             X           Y           Z
 ---------------------------------------------------------------------
      1          6           0       -2.620365   -2.024232   -0.129768
      2          6           0       -1.509753   -1.275265   -0.554000
      3          6           0       -1.409025   -0.934776   -1.910053
      4          6           0       -2.387966   -1.344290   -2.821737
      5          6           0       -3.483271   -2.097533   -2.392358
      6          6           0       -3.598242   -2.432802   -1.038778
      7          6           0       -0.437689   -0.801872    0.437404
      8          6           0       -0.993407    0.211287    1.536989
      9          6           0       -1.067118   -0.560242    2.858013
     10          6           0        0.151036   -1.487162    2.788782
     11          6           0        0.112022   -2.001428    1.342326
     12          6           0        1.365444   -2.463265    0.711653
     13          6           0        2.654584   -2.289445    1.375022
     14          8           0        0.648036   -0.273164   -0.257253
     15         26           0        2.030722    0.935478   -0.498523
     16         17           0        2.860064    1.285047    1.580374
     17          6           0        1.343153   -3.104427   -0.607621
     18         17           0        1.413946    2.791439   -1.511452
     19         17           0        3.515166   -0.283565   -1.680021
     20          1           0       -0.561012   -0.342017   -2.245310
     21          1           0       -2.289503   -1.070011   -3.873159
     22          1           0       -4.245073   -2.419075   -3.104185
     23          1           0       -4.454934   -3.009104   -0.686587
     24          1           0       -2.748112   -2.280473    0.922811
     25          1           0       -0.216907    0.982781    1.606278
     26          6           0       -2.292318    0.903246    1.160381
     27          1           0       -1.039350    0.110544    3.725530
     28          1           0       -2.006710   -1.126640    2.915607
     29          1           0        1.060220   -0.900414    2.971853
     30          1           0        0.117825   -2.305614    3.520791
     31          1           0       -0.608746   -2.829399    1.251072
     32          1           0        0.347760   -3.201794   -1.045834
     33          1           0        2.004377   -2.500277   -1.262145
     34          1           0        1.841178   -4.086546   -0.528291
     35          1           0        3.491589   -2.736018    0.831391
     36          1           0        2.827463   -1.191681    1.479178
     37          1           0        2.604276   -2.646701    2.415588
     38          8           0       -2.080954    1.815011    0.198664
     39          8           0       -3.371202    0.667949    1.666668
     40          6           0       -3.232481    2.556684   -0.291000
     41          6           0       -3.466855    3.810602    0.534101
     42          1           0       -2.965568    2.799268   -1.326464
     43          1           0       -4.105472    1.893368   -0.280634
     44          1           0       -4.293037    4.387147    0.091852
     45          1           0       -3.739036    3.557646    1.567295
     46          1           0       -2.569514    4.444093    0.542853
 ---------------------------------------------------------------------

 SCF Done:  E(UB3LYP) =  -3531.44258784     A.U. after   15 cycles

 The electronic state is 6-A.
 Alpha  occ. eigenvalues -- -256.19589-101.51846-101.51829-101.51534 -30.18999
 Alpha  occ. eigenvalues --  -26.04328 -26.04230 -26.04127 -19.20108 -19.15699
 Alpha  occ. eigenvalues --  -19.15104 -10.33007 -10.32758 -10.29300 -10.24650
 Alpha  occ. eigenvalues --  -10.23310 -10.22301 -10.22196 -10.21622 -10.21106
 Alpha  occ. eigenvalues --  -10.20305 -10.20273 -10.20168 -10.20069 -10.20004
 Alpha  occ. eigenvalues --  -10.19845 -10.19783 -10.18572  -9.43590  -9.43515
 Alpha  occ. eigenvalues --   -9.43243  -7.19439  -7.19382  -7.19150  -7.19120
 Alpha  occ. eigenvalues --   -7.19111  -7.19073  -7.19038  -7.18795  -7.18766
 Alpha  occ. eigenvalues --   -3.66742  -2.44281  -2.44082  -2.43926  -1.11892
 Alpha  occ. eigenvalues --   -1.03468  -1.03235  -0.89443  -0.87028  -0.84755
 Alpha  occ. eigenvalues --   -0.79724  -0.79087  -0.78819  -0.78724  -0.77594
 Alpha  occ. eigenvalues --   -0.75784  -0.75454  -0.74961  -0.71804  -0.67008
 Alpha  occ. eigenvalues --   -0.64332  -0.61810  -0.61364  -0.59612  -0.56928
 Alpha  occ. eigenvalues --   -0.56171  -0.54497  -0.53489  -0.51375  -0.51052
 Alpha  occ. eigenvalues --   -0.49666  -0.49334  -0.48789  -0.47530  -0.47225
 Alpha  occ. eigenvalues --   -0.47087  -0.46947  -0.46628  -0.46416  -0.46028
 Alpha  occ. eigenvalues --   -0.45302  -0.44515  -0.44399  -0.43813  -0.43068
 Alpha  occ. eigenvalues --   -0.42850  -0.42123  -0.41314  -0.41008  -0.40585
 Alpha  occ. eigenvalues --   -0.39795  -0.38846  -0.38268  -0.37540  -0.37156
 Alpha  occ. eigenvalues --   -0.36520  -0.36049  -0.36012  -0.35261  -0.34983
 Alpha  occ. eigenvalues --   -0.34669  -0.34103  -0.33871  -0.31703  -0.31303
 Alpha  occ. eigenvalues --   -0.30795  -0.30607  -0.30505  -0.30272  -0.29691
 Alpha  occ. eigenvalues --   -0.29464  -0.28622  -0.28320  -0.26602  -0.26101
 Alpha virt. eigenvalues --   -0.14175  -0.02948  -0.02690  -0.01620  -0.01215
 Alpha virt. eigenvalues --   -0.00139  -0.00053   0.00014   0.01436   0.01533
 Alpha virt. eigenvalues --    0.01826   0.02097   0.02308   0.03149   0.03526

  Beta  occ. eigenvalues -- -256.19405-101.51681-101.51674-101.51381 -30.10067
  Beta  occ. eigenvalues --  -25.96852 -25.96801 -25.96699 -19.20108 -19.15100
  Beta  occ. eigenvalues --  -19.14835 -10.33006 -10.32758 -10.29276 -10.24650
  Beta  occ. eigenvalues --  -10.23283 -10.22303 -10.22193 -10.21602 -10.21081
  Beta  occ. eigenvalues --  -10.20302 -10.20272 -10.20165 -10.20070 -10.20004
  Beta  occ. eigenvalues --  -10.19846 -10.19782 -10.18572  -9.43428  -9.43363
  Beta  occ. eigenvalues --   -9.43093  -7.19174  -7.19098  -7.18914  -7.18905
  Beta  occ. eigenvalues --   -7.18878  -7.18848  -7.18836  -7.18589  -7.18584
  Beta  occ. eigenvalues --   -3.45926  -2.22247  -2.22203  -2.22038  -1.11889
  Beta  occ. eigenvalues --   -1.03462  -1.01578  -0.89240  -0.86975  -0.84676
  Beta  occ. eigenvalues --   -0.78777  -0.78672  -0.77991  -0.77723  -0.77438
  Beta  occ. eigenvalues --   -0.75772  -0.75422  -0.74949  -0.71662  -0.66893
  Beta  occ. eigenvalues --   -0.64204  -0.61746  -0.61321  -0.59397  -0.56627
  Beta  occ. eigenvalues --   -0.55850  -0.54385  -0.52732  -0.51154  -0.50676
  Beta  occ. eigenvalues --   -0.49576  -0.49200  -0.48061  -0.47177  -0.46464
  Beta  occ. eigenvalues --   -0.45972  -0.45001  -0.44467  -0.44300  -0.43171
  Beta  occ. eigenvalues --   -0.42907  -0.42238  -0.41315  -0.40950  -0.40531
  Beta  occ. eigenvalues --   -0.39784  -0.38824  -0.38244  -0.37501  -0.37455
  Beta  occ. eigenvalues --   -0.37009  -0.36074  -0.35950  -0.35387  -0.35336
  Beta  occ. eigenvalues --   -0.35099  -0.34915  -0.34665  -0.32777  -0.32617
  Beta  occ. eigenvalues --   -0.32222  -0.31948  -0.31728  -0.31581  -0.29858
  Beta  occ. eigenvalues --   -0.29498  -0.28626  -0.28277  -0.26607  -0.26068
  Beta virt. eigenvalues --   -0.14292  -0.13380  -0.13210  -0.12417  -0.12061
  Beta virt. eigenvalues --   -0.11062  -0.02916  -0.02654  -0.01515  -0.01166
  Beta virt. eigenvalues --   -0.00098  -0.00017   0.00044   0.01450   0.01563

 Mulliken charges and spin densities:
               1          2
     1  C   -0.079181   0.001512
     2  C    2.637826  -0.003952
     3  C   -0.496654  -0.008857
     4  C   -0.034054   0.002986
     5  C    0.211766  -0.001006
     6  C   -0.117667   0.001694
     7  C   -1.915414   0.031107
     8  C    0.262325   0.011095
     9  C    0.735510   0.000497
    10  C    0.654650   0.000992
    11  C    0.610573   0.013420
    12  C   -0.359764   0.000472
    13  C    0.288682  -0.002701
    14  O   -0.532392   0.282138
    15  Fe   0.661003   4.039018
    16  Cl  -0.568149   0.199712
    17  C    0.281839  -0.001016
    18  Cl  -0.498666   0.230129
    19  Cl  -0.559052   0.204865
    20  H   -0.196623   0.000907
    21  H   -0.156591   0.000008
    22  H   -0.166561   0.000020
    23  H   -0.159653   0.000225
    24  H   -0.168849  -0.000085
    25  H   -0.237255   0.000635
    26  C    0.966404  -0.005291
    27  H   -0.158411   0.000487
    28  H   -0.069442  -0.000154
    29  H   -0.074131  -0.000439
    30  H   -0.152480   0.000327
    31  H   -0.160130   0.000076
    32  H    0.059404   0.000037
    33  H    0.136487  -0.000528
    34  H    0.043410   0.000059
    35  H   -0.005219   0.000005
    36  H    0.195847   0.001991
    37  H    0.081600  -0.000172
    38  O   -0.751877  -0.001647
    39  O   -0.696699   0.001519
    40  C    0.506335  -0.000119
    41  C    0.043421   0.000029
    42  H   -0.058252   0.000034
    43  H   -0.033778  -0.000023
    44  H   -0.001510  -0.000002
    45  H    0.016659  -0.000002
    46  H    0.014708  -0.000003
 Sum of Mulliken charges =  -0.00000   5.00000

 Dipole moment (field-independent basis, Debye):
    X=             -4.6926    Y=            -12.9638    Z=              4.1461  Tot=             14.3969
 Quadrupole moment (field-independent basis, Debye-Ang):
   XX=           -195.1846   YY=           -154.6412   ZZ=           -174.0144
   XY=            -23.2498   XZ=             19.2385   YZ=             -6.4400

 Normal termination of Gaussian 16 at Sun Jun 20 10:56:27 2021.
