 Gaussian 16, Revision A.03,

 -----------------------------------------------------------
 #p opt=modredundant freq=noraman ub3lyp jul-cc-pvdz pop=cm5
 -----------------------------------------------------------

 -----
 title
 -----
 Symbolic Z-matrix:
 Charge =  0 Multiplicity = 6

 SCF Done:  E(UB3LYP) =  -3531.40305354     A.U. after   26 cycles
 SCF Done:  E(UB3LYP) =  -3531.40318293     A.U. after   16 cycles
 SCF Done:  E(UB3LYP) =  -3531.40254461     A.U. after   17 cycles
 SCF Done:  E(UB3LYP) =  -3531.40355383     A.U. after   15 cycles
 SCF Done:  E(UB3LYP) =  -3531.40380658     A.U. after   15 cycles
 SCF Done:  E(UB3LYP) =  -3531.40376188     A.U. after   15 cycles
 SCF Done:  E(UB3LYP) =  -3531.40385629     A.U. after   15 cycles
 SCF Done:  E(UB3LYP) =  -3531.40390142     A.U. after   14 cycles
 SCF Done:  E(UB3LYP) =  -3531.40390969     A.U. after   13 cycles
 SCF Done:  E(UB3LYP) =  -3531.40391274     A.U. after   13 cycles
 SCF Done:  E(UB3LYP) =  -3531.40391378     A.U. after   12 cycles
 SCF Done:  E(UB3LYP) =  -3531.40391452     A.U. after   11 cycles
 SCF Done:  E(UB3LYP) =  -3531.40391467     A.U. after   11 cycles
 SCF Done:  E(UB3LYP) =  -3531.40391466     A.U. after    9 cycles
 SCF Done:  E(UB3LYP) =  -3531.40391461     A.U. after   11 cycles
 Optimization completed.
    -- Stationary point found.
 Normal termination of Gaussian 16 at Sun Jun 20 02:35:43 2021.

 ----------------------------------------------------------------------
 #P Geom=AllCheck Guess=TCheck SCRF=Check GenChk UB3LYP/Jul-CC-pVDZ Fre
 q
 ----------------------------------------------------------------------

 Structure from the checkpoint file:  "checkpoint.chk"
 -----
 title
 -----
 Charge =  0 Multiplicity = 6

 SCF Done:  E(UB3LYP) =  -3531.40391461     A.U. after    2 cycles

  Exact polarizability: 306.084  -1.651 318.352  31.136   7.044 278.243
 Approx polarizability: 451.146 -11.340 508.906  52.068   6.709 444.559

                      1                      2                      3
                      A                      A                      A
 Frequencies --     11.5123                25.6476                27.7738
 Red. masses --      6.1798                 4.0625                 9.5524
 Frc consts  --      0.0005                 0.0016                 0.0043
 IR Inten    --      0.5429                 1.5923                 0.6099

                      4                      5                      6
                      A                      A                      A
 Frequencies --     42.4689                53.0382                61.9416
 Red. masses --      4.8942                 3.8907                 4.7916
 Frc consts  --      0.0052                 0.0064                 0.0108
 IR Inten    --      1.5614                 1.0606                 0.2564

                      7                      8                      9
                      A                      A                      A
 Frequencies --     64.4454                74.6429                76.3433
 Red. masses --      4.6361                 4.5877                 4.4881
 Frc consts  --      0.0113                 0.0151                 0.0154
 IR Inten    --      1.0405                 0.8467                 0.9059

                     10                     11                     12
                      A                      A                      A
 Frequencies --     83.3071                99.5438               108.7704
 Red. masses --      5.8038                 6.5988                 7.8122
 Frc consts  --      0.0237                 0.0385                 0.0545
 IR Inten    --      0.8902                 0.8034                 0.3979

                     13                     14                     15
                      A                      A                      A
 Frequencies --    109.7974               116.2481               130.4957
 Red. masses --      8.9670                 3.7986                 5.7626
 Frc consts  --      0.0637                 0.0302                 0.0578
 IR Inten    --      0.9976                 3.3832                13.2888

                     16                     17                     18
                      A                      A                      A
 Frequencies --    133.7133               157.5553               165.8616
 Red. masses --      7.5495                 3.7019                 2.9884
 Frc consts  --      0.0795                 0.0541                 0.0484
 IR Inten    --     11.9392                 3.5858                 1.3689

                     19                     20                     21
                      A                      A                      A
 Frequencies --    182.4324               198.7676               212.5500
 Red. masses --      3.8432                 1.6184                 2.1153
 Frc consts  --      0.0754                 0.0377                 0.0563
 IR Inten    --      0.3963                 6.3030                 8.8601

                     22                     23                     24
                      A                      A                      A
 Frequencies --    226.3086               247.7625               256.4106
 Red. masses --      2.7017                 3.4179                 1.5347
 Frc consts  --      0.0815                 0.1236                 0.0594
 IR Inten    --      5.7800                 5.8477                 2.8381

                     25                     26                     27
                      A                      A                      A
 Frequencies --    272.7208               288.3288               298.2614
 Red. masses --      2.8667                 1.5677                 4.4895
 Frc consts  --      0.1256                 0.0768                 0.2353
 IR Inten    --      1.3297                 9.3372                 0.4004

                     28                     29                     30
                      A                      A                      A
 Frequencies --    306.7703               324.5840               331.5544
 Red. masses --      3.1259                10.8025                 3.7222
 Frc consts  --      0.1733                 0.6705                 0.2411
 IR Inten    --      2.8971                25.7947                24.2055

                     31                     32                     33
                      A                      A                      A
 Frequencies --    346.5061               367.1343               387.0217
 Red. masses --     24.7292                 4.8341                 8.3112
 Frc consts  --      1.7494                 0.3839                 0.7335
 IR Inten    --     60.1532                11.6330                38.2778

                     34                     35                     36
                      A                      A                      A
 Frequencies --    395.6603               415.8323               421.6563
 Red. masses --     12.1454                 2.9822                 4.1295
 Frc consts  --      1.1202                 0.3038                 0.4326
 IR Inten    --     60.3223                 0.5926                 5.6264

                     37                     38                     39
                      A                      A                      A
 Frequencies --    444.1930               481.6025               514.8301
 Red. masses --      3.3481                 2.8978                 2.3472
 Frc consts  --      0.3892                 0.3960                 0.3666
 IR Inten    --      3.7641                 1.1900                 2.7939

                     40                     41                     42
                      A                      A                      A
 Frequencies --    554.0350               584.3009               627.6149
 Red. masses --      3.7402                 2.5365                 6.3043
 Frc consts  --      0.6764                 0.5102                 1.4631
 IR Inten    --     25.8110                 3.6979                 0.4736

                     43                     44                     45
                      A                      A                      A
 Frequencies --    644.2147               672.2620               705.9797
 Red. masses --      5.6048                 3.2561                 2.5094
 Frc consts  --      1.3705                 0.8670                 0.7369
 IR Inten    --     18.0139                11.6910                44.7770

                     46                     47                     48
                      A                      A                      A
 Frequencies --    711.2870               739.1889               754.5045
 Red. masses --      2.3711                 1.4463                 2.5689
 Frc consts  --      0.7068                 0.4656                 0.8616
 IR Inten    --     16.1319                29.4444                19.9024

                     49                     50                     51
                      A                      A                      A
 Frequencies --    773.0482               786.0769               806.7011
 Red. masses --      3.2475                 3.4619                 1.1227
 Frc consts  --      1.1434                 1.2604                 0.4305
 IR Inten    --     22.4329                 5.9954                 0.3285

                     52                     53                     54
                      A                      A                      A
 Frequencies --    826.8875               833.0185               845.2937
 Red. masses --      2.6393                 3.0254                 1.2555
 Frc consts  --      1.0632                 1.2369                 0.5286
 IR Inten    --     26.6909                 2.2074                 2.5433

                     55                     56                     57
                      A                      A                      A
 Frequencies --    867.8649               876.9511               913.7207
 Red. masses --      3.0337                 2.6116                 1.9675
 Frc consts  --      1.3463                 1.1833                 0.9678
 IR Inten    --      8.3073                 7.0174                48.4989

                     58                     59                     60
                      A                      A                      A
 Frequencies --    930.2648               946.1505               968.9493
 Red. masses --      1.8517                 3.3220                 2.3918
 Frc consts  --      0.9441                 1.7521                 1.3231
 IR Inten    --      6.6126                23.4732                67.8971

                     61                     62                     63
                      A                      A                      A
 Frequencies --    981.5738               989.2255              1000.9460
 Red. masses --      1.3780                 2.8872                 1.8104
 Frc consts  --      0.7823                 1.6646                 1.0687
 IR Inten    --      1.5933                 3.0624                 1.0527

                     64                     65                     66
                      A                      A                      A
 Frequencies --   1003.5420              1014.7422              1019.1801
 Red. masses --      2.6374                 1.5421                 2.5058
 Frc consts  --      1.5650                 0.9356                 1.5335
 IR Inten    --      2.0176                 0.5098                29.8941

                     67                     68                     69
                      A                      A                      A
 Frequencies --   1025.4590              1044.5356              1053.9565
 Red. masses --      1.9967                 3.1310                 2.2814
 Frc consts  --      1.2371                 2.0127                 1.4931
 IR Inten    --      2.7639                26.2129                 3.9197

                     70                     71                     72
                      A                      A                      A
 Frequencies --   1078.2976              1096.5079              1103.7165
 Red. masses --      2.0378                 1.9361                 2.1545
 Frc consts  --      1.3960                 1.3715                 1.5464
 IR Inten    --     11.1247                13.5274                80.1729

                     73                     74                     75
                      A                      A                      A
 Frequencies --   1129.7162              1132.7666              1156.9774
 Red. masses --      2.7685                 2.3096                 2.2018
 Frc consts  --      2.0818                 1.7461                 1.7365
 IR Inten    --    151.6999                11.2360                25.6189

                     76                     77                     78
                      A                      A                      A
 Frequencies --   1168.6925              1174.2689              1180.4667
 Red. masses --      1.5505                 1.1031                 1.8844
 Frc consts  --      1.2478                 0.8962                 1.5471
 IR Inten    --      2.2753                 0.9791                45.3397

                     79                     80                     81
                      A                      A                      A
 Frequencies --   1207.9227              1209.2715              1221.4899
 Red. masses --      1.1344                 1.4851                 2.3181
 Frc consts  --      0.9752                 1.2795                 2.0378
 IR Inten    --      1.3626                80.7683               155.3585

                     82                     83                     84
                      A                      A                      A
 Frequencies --   1252.2228              1256.7939              1281.3095
 Red. masses --      1.6897                 1.3228                 1.1132
 Frc consts  --      1.5611                 1.2310                 1.0768
 IR Inten    --     62.0247                 5.1202                 2.6532

                     85                     86                     87
                      A                      A                      A
 Frequencies --   1286.8230              1301.1906              1313.1876
 Red. masses --      1.5007                 1.4719                 1.2252
 Frc consts  --      1.4642                 1.4683                 1.2449
 IR Inten    --     67.5826                78.5100                 0.7871

                     88                     89                     90
                      A                      A                      A
 Frequencies --   1316.5832              1324.7123              1336.4869
 Red. masses --      1.1982                 1.8279                 1.3339
 Frc consts  --      1.2237                 1.8899                 1.4038
 IR Inten    --     63.9433                20.6126                14.5262

                     91                     92                     93
                      A                      A                      A
 Frequencies --   1346.3124              1357.3532              1367.4808
 Red. masses --      1.3846                 2.5326                 1.3631
 Frc consts  --      1.4786                 2.7491                 1.5018
 IR Inten    --     87.9008                 1.2260                19.3609

                     94                     95                     96
                      A                      A                      A
 Frequencies --   1383.4166              1394.2514              1417.2211
 Red. masses --      1.3149                 1.5441                 1.4687
 Frc consts  --      1.4826                 1.7685                 1.7380
 IR Inten    --     24.9338                62.3903                13.4907

                     97                     98                     99
                      A                      A                      A
 Frequencies --   1421.4431              1432.6526              1467.3443
 Red. masses --      1.1709                 1.4916                 2.2660
 Frc consts  --      1.3938                 1.8038                 2.8746
 IR Inten    --      4.3312                59.1258                11.1131

                    100                    101                    102
                      A                      A                      A
 Frequencies --   1474.6314              1484.7909              1487.4060
 Red. masses --      1.0396                 1.1039                 1.0518
 Frc consts  --      1.3319                 1.4339                 1.3710
 IR Inten    --      4.6685                 2.7381                 1.6071

                    103                    104                    105
                      A                      A                      A
 Frequencies --   1493.1073              1500.5530              1506.9465
 Red. masses --      1.2210                 1.1460                 1.3071
 Frc consts  --      1.6038                 1.5204                 1.7488
 IR Inten    --     13.5054                17.2277                24.0948

                    106                    107                    108
                      A                      A                      A
 Frequencies --   1507.9110              1518.4980              1622.8659
 Red. masses --      1.1031                 2.1001                 5.6419
 Frc consts  --      1.4778                 2.8531                 8.7547
 IR Inten    --     10.0723                 8.4383                 0.4607

                    109                    110                    111
                      A                      A                      A
 Frequencies --   1642.8127              1767.1550              2623.4825
 Red. masses --      5.8039                11.7923                 1.0703
 Frc consts  --      9.2288                21.6969                 4.3403
 IR Inten    --      0.3560               215.4236               762.9939

                    112                    113                    114
                      A                      A                      A
 Frequencies --   2885.0205              3039.1092              3051.4183
 Red. masses --      1.0631                 1.0352                 1.0646
 Frc consts  --      5.2136                 5.6335                 5.8406
 IR Inten    --    115.8290                15.7359                15.5417

                    115                    116                    117
                      A                      A                      A
 Frequencies --   3056.7334              3071.9299              3074.9008
 Red. masses --      1.0584                 1.0824                 1.0632
 Frc consts  --      5.8264                 6.0183                 5.9229
 IR Inten    --     17.4545                11.4345                16.9805

                    118                    119                    120
                      A                      A                      A
 Frequencies --   3078.9866              3091.2016              3100.4051
 Red. masses --      1.0667                 1.0626                 1.1072
 Frc consts  --      5.9579                 5.9822                 6.2706
 IR Inten    --      1.1029                 2.5640                 4.3477

                    121                    122                    123
                      A                      A                      A
 Frequencies --   3100.9511              3115.7456              3123.5084
 Red. masses --      1.0993                 1.1014                 1.0896
 Frc consts  --      6.2279                 6.2996                 6.2631
 IR Inten    --      8.4001                20.5404                 2.2982

                    124                    125                    126
                      A                      A                      A
 Frequencies --   3128.8093              3129.0093              3162.5573
 Red. masses --      1.1039                 1.1030                 1.1052
 Frc consts  --      6.3670                 6.3626                 6.5129
 IR Inten    --      4.1406                39.0122                 8.9112

                    127                    128                    129
                      A                      A                      A
 Frequencies --   3166.7897              3177.1421              3186.4707
 Red. masses --      1.0845                 1.0884                 1.0926
 Frc consts  --      6.4078                 6.4729                 6.5364
 IR Inten    --      1.1601                 5.4146                22.3345

                    130                    131                    132
                      A                      A                      A
 Frequencies --   3190.5392              3195.5429              3218.6300
 Red. masses --      1.1033                 1.0979                 1.0925
 Frc consts  --      6.6169                 6.6056                 6.6681
 IR Inten    --      0.8578                14.3153                 3.5088

 - Thermochemistry -
 -------------------
 Temperature   298.150 Kelvin.  Pressure   1.00000 Atm.
 Atom     1 has atomic number  6 and mass  12.00000

 Molecular mass:   434.99839 amu.
 Principal axes and moments of inertia in atomic units:
                           1         2         3
     Eigenvalues --  8999.22863********************
           X            0.99498   0.09916   0.01333
           Y           -0.09895   0.99497  -0.01529
           Z           -0.01478   0.01390   0.99979
 This molecule is an asymmetric top.
 Rotational symmetry number  1.
 Warning -- assumption of classical behavior for rotation
           may cause significant error
 Rotational temperatures (Kelvin)      0.00962     0.00746     0.00669
 Rotational constants (GHZ):           0.20054     0.15534     0.13931
 Zero-point vibrational energy     939414.9 (Joules/Mol)
                                  224.52556 (Kcal/Mol)
 Warning -- explicit consideration of  41 degrees of freedom as
           vibrations may cause significant error
 Vibrational temperatures:     16.56    36.90    39.96    61.10    76.31
          (Kelvin)             89.12    92.72   107.39   109.84   119.86
                              143.22   156.50   157.97   167.26   187.75
                              192.38   226.69   238.64   262.48   285.98
                              305.81   325.61   356.47   368.92   392.38
                              414.84   429.13   441.37   467.00   477.03
                              498.55   528.22   556.84   569.27   598.29
                              606.67   639.09   692.92   740.73   797.13
                              840.68   903.00   926.88   967.24  1015.75
                             1023.38  1063.53  1085.56  1112.24  1130.99
                             1160.66  1189.71  1198.53  1216.19  1248.66
                             1261.74  1314.64  1338.44  1361.30  1394.10
                             1412.27  1423.27  1440.14  1443.87  1459.99
                             1466.37  1475.41  1502.85  1516.41  1551.43
                             1577.63  1588.00  1625.41  1629.80  1664.63
                             1681.49  1689.51  1698.43  1737.93  1739.87
                             1757.45  1801.67  1808.25  1843.52  1851.45
                             1872.12  1889.38  1894.27  1905.97  1922.91
                             1937.04  1952.93  1967.50  1990.43  2006.02
                             2039.07  2045.14  2061.27  2111.18  2121.67
                             2136.28  2140.05  2148.25  2158.96  2168.16
                             2169.55  2184.78  2334.94  2363.64  2542.54
                             3774.61  4150.90  4372.60  4390.31  4397.96
                             4419.82  4424.10  4429.97  4447.55  4460.79
                             4461.58  4482.86  4494.03  4501.66  4501.95
                             4550.21  4556.30  4571.20  4584.62  4590.47
                             4597.67  4630.89

 Zero-point correction=                           0.357804 (Hartree/Particle)
 Thermal correction to Energy=                    0.385452
 Thermal correction to Enthalpy=                  0.386396
 Thermal correction to Gibbs Free Energy=         0.294649
 Sum of electronic and zero-point Energies=          -3531.046110
 Sum of electronic and thermal Energies=             -3531.018462
 Sum of electronic and thermal Enthalpies=           -3531.017518
 Sum of electronic and thermal Free Energies=        -3531.109266

                     E (Thermal)             CV                S
                      KCal/Mol        Cal/Mol-Kelvin    Cal/Mol-Kelvin
 Total                  241.875             98.716            193.099
 Electronic               0.000              0.000              3.561
 Translational            0.889              2.981             44.100
 Rotational               0.889              2.981             35.559
 Vibrational            240.097             92.754            109.879
 Vibration     1          0.593              1.987              7.731
 Vibration     2          0.593              1.985              6.140
 Vibration     3          0.593              1.984              5.982
 Vibration     4          0.595              1.980              5.140
 Vibration     5          0.596              1.976              4.701
 Vibration     6          0.597              1.972              4.394
 Vibration     7          0.597              1.971              4.316
 Vibration     8          0.599              1.966              4.027
 Vibration     9          0.599              1.965              3.983
 Vibration    10          0.600              1.961              3.811
 Vibration    11          0.604              1.949              3.463
 Vibration    12          0.606              1.942              3.291
 Vibration    13          0.606              1.941              3.272
 Vibration    14          0.608              1.936              3.162
 Vibration    15          0.612              1.923              2.939
 Vibration    16          0.613              1.920              2.892
 Vibration    17          0.621              1.894              2.579
 Vibration    18          0.624              1.884              2.482
 Vibration    19          0.630              1.864              2.303
 Vibration    20          0.637              1.842              2.144
 Vibration    21          0.644              1.822              2.022
 Vibration    22          0.650              1.801              1.908
 Vibration    23          0.661              1.766              1.746
 Vibration    24          0.666              1.752              1.686
 Vibration    25          0.676              1.724              1.579
 Vibration    26          0.685              1.695              1.484
 Vibration    27          0.691              1.677              1.427
 Vibration    28          0.697              1.661              1.380
 Vibration    29          0.709              1.626              1.287
 Vibration    30          0.714              1.612              1.252
 Vibration    31          0.725              1.582              1.182
 Vibration    32          0.740              1.540              1.092
 Vibration    33          0.755              1.498              1.012
 Vibration    34          0.762              1.479              0.979
 Vibration    35          0.779              1.436              0.906
 Vibration    36          0.784              1.423              0.886
 Vibration    37          0.804              1.374              0.814
 Vibration    38          0.838              1.291              0.706
 Vibration    39          0.870              1.217              0.622
 Vibration    40          0.909              1.131              0.536
 Vibration    41          0.941              1.065              0.477

                           ! Non-Optimized Parameters !
 Normal termination of Gaussian 16 at Sun Jun 20 06:05:40 2021.

 ----------------------------------------------------------------------
 #p ub3lyp jul-cc-pvdz pop=cm5 scrf=(pcm,solvent=dichloroethane) guess=
 read geom=allcheck
 ----------------------------------------------------------------------

 Structure from the checkpoint file:  "checkpoint.chk"
 -----
 title
 -----
 Charge =  0 Multiplicity = 6

 SCF Done:  E(UB3LYP) =  -3531.43352563     A.U. after   18 cycles
 Normal termination of Gaussian 16 at Sun Jun 20 06:27:17 2021.
 Gaussian 16:  ES64L-G16RevA.03 25-Dec-2016

 ----------------------------------------------------------------------
 #p ub3lyp jul-cc-pvdz pop=cm5 scrf=(pcm,solvent=water) guess=read geom
 =allcheck
 ----------------------------------------------------------------------

 Structure from the checkpoint file:  "checkpoint.chk"
 -----
 title
 -----
 Charge =  0 Multiplicity = 6

                         Standard orientation:
 ---------------------------------------------------------------------
 Center     Atomic      Atomic             Coordinates (Angstroms)
 Number     Number       Type             X           Y           Z
 ---------------------------------------------------------------------
      1          6           0        1.739918   -1.846570    1.754900
      2          6           0        1.206064   -0.743849    1.067979
      3          6           0        1.428773    0.536107    1.599442
      4          6           0        2.150218    0.706022    2.782882
      5          6           0        2.670416   -0.399433    3.460418
      6          6           0        2.463226   -1.678095    2.938959
      7          6           0        0.447745   -0.863259   -0.272578
      8          6           0        1.473307   -0.975332   -1.476317
      9          6           0        1.903856   -2.438891   -1.509830
     10          6           0        0.649295   -3.259314   -1.140673
     11          6           0       -0.299599   -2.277244   -0.318698
     12          6           0       -1.600785   -2.372350   -0.997377
     13          6           0       -1.881960   -1.733855   -2.268783
     14          8           0       -0.395204    0.212743   -0.474062
     15         26           0       -1.841434    1.083730    0.303345
     16         17           0       -3.419094    1.124076   -1.333802
     17          6           0       -2.687291   -3.081254   -0.306236
     18         17           0       -1.325699    3.118011    0.994260
     19         17           0       -2.605963   -0.270236    1.933030
     20          1           0        1.026098    1.407971    1.088804
     21          1           0        2.296340    1.711778    3.179226
     22          1           0        3.229073   -0.266801    4.388006
     23          1           0        2.861527   -2.552996    3.454942
     24          1           0        1.603968   -2.862966    1.386630
     25          1           0        0.902735   -0.701050   -2.373667
     26          6           0        2.649062   -0.013378   -1.390044
     27          1           0        2.300929   -2.730777   -2.490153
     28          1           0        2.703641   -2.597573   -0.777437
     29          1           0        0.152799   -3.631009   -2.047739
     30          1           0        0.873041   -4.141021   -0.528189
     31          1           0       -0.421865   -2.639184    0.705107
     32          1           0       -2.321589   -3.934126    0.281289
     33          1           0       -3.037107   -2.337596    0.449049
     34          1           0       -3.525630   -3.357131   -0.953458
     35          1           0       -2.617009   -2.279755   -2.872752
     36          1           0       -2.405596   -0.774261   -1.964209
     37          1           0       -1.006076   -1.425652   -2.842516
     38          8           0        2.277747    1.236220   -1.710604
     39          8           0        3.779714   -0.334877   -1.087226
     40          6           0        3.302713    2.263380   -1.610963
     41          6           0        2.653943    3.588258   -1.957075
     42          1           0        3.703904    2.248744   -0.588761
     43          1           0        4.119347    2.003518   -2.298702
     44          1           0        3.402329    4.390472   -1.882731
     45          1           0        2.258395    3.577884   -2.982162
     46          1           0        1.829425    3.814742   -1.267766
 ---------------------------------------------------------------------

 SCF Done:  E(UB3LYP) =  -3531.43931083     A.U. after   14 cycles

 The electronic state is 6-A.
 Alpha  occ. eigenvalues -- -256.19615-101.51902-101.51838-101.51826 -30.19015
 Alpha  occ. eigenvalues --  -26.04382 -26.04261 -26.04097 -19.20137 -19.15623
 Alpha  occ. eigenvalues --  -19.15100 -10.32708 -10.32307 -10.28748 -10.24737
 Alpha  occ. eigenvalues --  -10.23514 -10.22493 -10.22350 -10.22075 -10.21713
 Alpha  occ. eigenvalues --  -10.21147 -10.20292 -10.20190 -10.20073 -10.19980
 Alpha  occ. eigenvalues --  -10.19927 -10.19719 -10.18652  -9.43595  -9.43568
 Alpha  occ. eigenvalues --   -9.43545  -7.19462  -7.19419  -7.19402  -7.19148
 Alpha  occ. eigenvalues --   -7.19128  -7.19127  -7.19103  -7.19093  -7.19064
 Alpha  occ. eigenvalues --   -3.66740  -2.44354  -2.44110  -2.43816  -1.11956
 Alpha  occ. eigenvalues --   -1.03469  -1.02950  -0.89820  -0.87037  -0.84459
 Alpha  occ. eigenvalues --   -0.79801  -0.79147  -0.79114  -0.78883  -0.77176
 Alpha  occ. eigenvalues --   -0.76024  -0.75589  -0.74804  -0.71966  -0.66693
 Alpha  occ. eigenvalues --   -0.64009  -0.61982  -0.61063  -0.59666  -0.57328
 Alpha  occ. eigenvalues --   -0.56584  -0.54812  -0.53108  -0.51297  -0.50694
 Alpha  occ. eigenvalues --   -0.50032  -0.49138  -0.48518  -0.48152  -0.48044
 Alpha  occ. eigenvalues --   -0.47236  -0.47053  -0.46870  -0.46520  -0.45978
 Alpha  occ. eigenvalues --   -0.44899  -0.44511  -0.43783  -0.43191  -0.42820
 Alpha  occ. eigenvalues --   -0.42655  -0.42295  -0.41362  -0.40961  -0.40525
 Alpha  occ. eigenvalues --   -0.39969  -0.39078  -0.37710  -0.37654  -0.37303
 Alpha  occ. eigenvalues --   -0.37120  -0.36439  -0.35967  -0.35887  -0.35297
 Alpha  occ. eigenvalues --   -0.35088  -0.34074  -0.33741  -0.31707  -0.31560
 Alpha  occ. eigenvalues --   -0.30871  -0.30658  -0.30440  -0.30247  -0.29717
 Alpha  occ. eigenvalues --   -0.29433  -0.28677  -0.27924  -0.26583  -0.26115
 Alpha virt. eigenvalues --   -0.13628  -0.02865  -0.02709  -0.01573  -0.01275
 Alpha virt. eigenvalues --   -0.00262  -0.00089   0.00094   0.01437   0.01614
 Alpha virt. eigenvalues --    0.01710   0.01818   0.02357   0.03221   0.03753

  Beta  occ. eigenvalues -- -256.19429-101.51739-101.51694-101.51666 -30.10102
  Beta  occ. eigenvalues --  -25.96900 -25.96843 -25.96709 -19.20137 -19.15096
  Beta  occ. eigenvalues --  -19.14760 -10.32710 -10.32300 -10.28736 -10.24737
  Beta  occ. eigenvalues --  -10.23491 -10.22494 -10.22349 -10.22075 -10.21684
  Beta  occ. eigenvalues --  -10.21126 -10.20290 -10.20186 -10.20072 -10.19981
  Beta  occ. eigenvalues --  -10.19927 -10.19722 -10.18652  -9.43434  -9.43411
  Beta  occ. eigenvalues --   -9.43403  -7.19174  -7.19160  -7.19133  -7.18938
  Beta  occ. eigenvalues --   -7.18933  -7.18918  -7.18897  -7.18890  -7.18881
  Beta  occ. eigenvalues --   -3.45958  -2.22313  -2.22252  -2.22016  -1.11952
  Beta  occ. eigenvalues --   -1.03462  -1.01262  -0.89672  -0.86979  -0.84367
  Beta  occ. eigenvalues --   -0.78948  -0.78762  -0.78080  -0.78006  -0.77066
  Beta  occ. eigenvalues --   -0.75995  -0.75570  -0.74781  -0.71802  -0.66583
  Beta  occ. eigenvalues --   -0.63932  -0.61932  -0.60998  -0.59529  -0.57242
  Beta  occ. eigenvalues --   -0.56151  -0.54706  -0.51760  -0.51224  -0.50651
  Beta  occ. eigenvalues --   -0.49889  -0.48823  -0.48231  -0.47811  -0.47483
  Beta  occ. eigenvalues --   -0.46057  -0.44531  -0.44219  -0.43224  -0.42928
  Beta  occ. eigenvalues --   -0.42797  -0.42290  -0.41328  -0.40990  -0.40536
  Beta  occ. eigenvalues --   -0.39957  -0.38922  -0.37692  -0.37630  -0.37489
  Beta  occ. eigenvalues --   -0.37272  -0.36394  -0.36336  -0.35881  -0.35467
  Beta  occ. eigenvalues --   -0.35335  -0.35223  -0.35004  -0.32833  -0.32646
  Beta  occ. eigenvalues --   -0.32268  -0.31853  -0.31590  -0.31342  -0.29564
  Beta  occ. eigenvalues --   -0.29489  -0.28772  -0.28462  -0.26587  -0.26108
  Beta virt. eigenvalues --   -0.13947  -0.13556  -0.13287  -0.12454  -0.11795
  Beta virt. eigenvalues --   -0.11105  -0.02825  -0.02675  -0.01473  -0.01223
  Beta virt. eigenvalues --   -0.00220  -0.00050   0.00122   0.01463   0.01627

 Mulliken charges and spin densities:
               1          2
     1  C   -0.292891   0.000171
     2  C    2.629515   0.009338
     3  C   -0.631068  -0.000319
     4  C    0.079561   0.007196
     5  C    0.199468   0.001023
     6  C   -0.142799   0.001536
     7  C   -1.588012  -0.023346
     8  C    0.501450   0.016151
     9  C    0.606088   0.003660
    10  C    0.398331  -0.001774
    11  C    1.698560   0.012533
    12  C   -0.961511   0.011179
    13  C    0.041139  -0.005076
    14  O   -0.542790   0.299636
    15  Fe   0.616024   4.049068
    16  Cl  -0.575081   0.189955
    17  C    0.321271  -0.002557
    18  Cl  -0.510007   0.223406
    19  Cl  -0.563301   0.207735
    20  H   -0.249249  -0.000867
    21  H   -0.168888  -0.000052
    22  H   -0.164003   0.000002
    23  H   -0.160545   0.000144
    24  H   -0.241133  -0.000010
    25  H   -0.186780  -0.000385
    26  C    0.909496  -0.001746
    27  H   -0.146863   0.000660
    28  H   -0.055213   0.000064
    29  H   -0.094496   0.000215
    30  H   -0.088598   0.000058
    31  H   -0.218531   0.000155
    32  H    0.050110   0.000277
    33  H    0.146451   0.000844
    34  H    0.007537  -0.000004
    35  H    0.014473   0.000004
    36  H    0.215039   0.001473
    37  H    0.060710   0.000208
    38  O   -0.704131  -0.002170
    39  O   -0.647245   0.001455
    40  C    0.439741  -0.000115
    41  C    0.052843   0.000346
    42  H   -0.039941   0.000014
    43  H   -0.051139   0.000010
    44  H   -0.004910   0.000004
    45  H    0.020415  -0.000007
    46  H    0.020904  -0.000093
 Sum of Mulliken charges =  -0.00000   5.00000

 Dipole moment (field-independent basis, Debye):
    X=              2.6916    Y=            -13.5484    Z=             -5.7301  Tot=             14.9545
 Quadrupole moment (field-independent basis, Debye-Ang):
   XX=           -196.9550   YY=           -150.5272   ZZ=           -169.3479
   XY=             31.3794   XZ=             11.1582   YZ=              6.0405

 Normal termination of Gaussian 16 at Sun Jun 20 06:44:16 2021.
