 Gaussian 16, Revision A.03,

 -----------------------------------------------------------
 #p opt=modredundant freq=noraman ub3lyp jul-cc-pvdz pop=cm5
 -----------------------------------------------------------

 -----
 title
 -----
 Symbolic Z-matrix:
 Charge =  0 Multiplicity = 6

 SCF Done:  E(UB3LYP) =  -3531.40203843     A.U. after   26 cycles
 SCF Done:  E(UB3LYP) =  -3531.40218056     A.U. after   16 cycles
 SCF Done:  E(UB3LYP) =  -3531.40149105     A.U. after   17 cycles
 SCF Done:  E(UB3LYP) =  -3531.40252817     A.U. after   15 cycles
 SCF Done:  E(UB3LYP) =  -3531.40273372     A.U. after   15 cycles
 SCF Done:  E(UB3LYP) =  -3531.40273931     A.U. after   14 cycles
 SCF Done:  E(UB3LYP) =  -3531.40279193     A.U. after   14 cycles
 SCF Done:  E(UB3LYP) =  -3531.40281347     A.U. after   13 cycles
 SCF Done:  E(UB3LYP) =  -3531.40282079     A.U. after   13 cycles
 SCF Done:  E(UB3LYP) =  -3531.40282401     A.U. after   14 cycles
 SCF Done:  E(UB3LYP) =  -3531.40282579     A.U. after   13 cycles
 SCF Done:  E(UB3LYP) =  -3531.40282713     A.U. after   12 cycles
 SCF Done:  E(UB3LYP) =  -3531.40282801     A.U. after   11 cycles
 SCF Done:  E(UB3LYP) =  -3531.40282820     A.U. after   10 cycles
 SCF Done:  E(UB3LYP) =  -3531.40282823     A.U. after    9 cycles
 Optimization completed.
    -- Stationary point found.
 Normal termination of Gaussian 16 at Sun Jun 20 02:37:57 2021.

 ----------------------------------------------------------------------
 #P Geom=AllCheck Guess=TCheck SCRF=Check GenChk UB3LYP/Jul-CC-pVDZ Fre
 q
 ----------------------------------------------------------------------

 Structure from the checkpoint file:  "checkpoint.chk"
 -----
 title
 -----
 Charge =  0 Multiplicity = 6

 SCF Done:  E(UB3LYP) =  -3531.40282823     A.U. after    2 cycles

  Exact polarizability: 305.117  -1.944 320.443 -31.421  -6.679 277.143
 Approx polarizability: 449.134 -12.421 512.526 -52.017  -5.162 441.061

                      1                      2                      3
                      A                      A                      A
 Frequencies --     21.1986                25.9464                31.2830
 Red. masses --      5.9792                 6.1250                 6.1130
 Frc consts  --      0.0016                 0.0024                 0.0035
 IR Inten    --      0.9517                 1.7078                 0.5219

                      4                      5                      6
                      A                      A                      A
 Frequencies --     41.9767                53.2855                62.0482
 Red. masses --      4.9129                 4.2368                 4.2637
 Frc consts  --      0.0051                 0.0071                 0.0097
 IR Inten    --      1.1758                 1.1002                 0.3734

                      7                      8                      9
                      A                      A                      A
 Frequencies --     70.4590                74.7350                78.2033
 Red. masses --      6.2506                 4.5549                 4.5500
 Frc consts  --      0.0183                 0.0150                 0.0164
 IR Inten    --      0.3778                 1.1165                 1.1021

                     10                     11                     12
                      A                      A                      A
 Frequencies --     83.1376               102.5067               108.4131
 Red. masses --      5.4045                 6.7070                 5.4730
 Frc consts  --      0.0220                 0.0415                 0.0379
 IR Inten    --      0.8694                 0.8067                 0.4822

                     13                     14                     15
                      A                      A                      A
 Frequencies --    111.4319               117.8583               131.3371
 Red. masses --      6.9852                 4.2450                 4.4659
 Frc consts  --      0.0511                 0.0347                 0.0454
 IR Inten    --      0.9164                 3.5956                23.1033

                     16                     17                     18
                      A                      A                      A
 Frequencies --    133.0041               157.6521               162.9750
 Red. masses --      8.8969                 3.6009                 2.7124
 Frc consts  --      0.0927                 0.0527                 0.0424
 IR Inten    --      3.5162                 3.6387                 1.9426

                     19                     20                     21
                      A                      A                      A
 Frequencies --    176.8145               184.0663               205.1851
 Red. masses --      1.7326                 2.0504                 3.8526
 Frc consts  --      0.0319                 0.0409                 0.0956
 IR Inten    --      0.8718                 0.2377                17.0830

                     22                     23                     24
                      A                      A                      A
 Frequencies --    224.3282               245.2465               255.0170
 Red. masses --      2.7783                 3.8489                 1.4778
 Frc consts  --      0.0824                 0.1364                 0.0566
 IR Inten    --      3.5754                 8.4133                 2.2084

                     25                     26                     27
                      A                      A                      A
 Frequencies --    272.0385               289.7295               298.6870
 Red. masses --      2.7397                 2.0696                 3.2942
 Frc consts  --      0.1195                 0.1024                 0.1732
 IR Inten    --      1.1691                 7.1821                 2.3787

                     28                     29                     30
                      A                      A                      A
 Frequencies --    307.6450               325.1338               331.5347
 Red. masses --      2.1470                13.8095                 5.0963
 Frc consts  --      0.1197                 0.8601                 0.3300
 IR Inten    --      1.1623                29.0076                22.4777

                     31                     32                     33
                      A                      A                      A
 Frequencies --    345.0366               369.2538               386.8137
 Red. masses --     28.9577                 5.0762                 7.5276
 Frc consts  --      2.0312                 0.4078                 0.6636
 IR Inten    --     63.0967                11.8182                29.5626

                     34                     35                     36
                      A                      A                      A
 Frequencies --    396.4672               415.6225               421.9538
 Red. masses --     13.8828                 2.9672                 4.1654
 Frc consts  --      1.2857                 0.3020                 0.4370
 IR Inten    --     67.9792                 0.6404                 5.3591

                     37                     38                     39
                      A                      A                      A
 Frequencies --    446.6687               480.4761               506.7487
 Red. masses --      3.2499                 2.9255                 2.3408
 Frc consts  --      0.3820                 0.3979                 0.3542
 IR Inten    --      3.5183                 2.0384                 1.2719

                     40                     41                     42
                      A                      A                      A
 Frequencies --    554.1722               585.5207               627.8011
 Red. masses --      3.7586                 2.6743                 6.3069
 Frc consts  --      0.6801                 0.5402                 1.4646
 IR Inten    --     26.8692                 3.0683                 0.4882

                     43                     44                     45
                      A                      A                      A
 Frequencies --    643.1879               673.3834               705.4587
 Red. masses --      5.5208                 3.4239                 2.6907
 Frc consts  --      1.3456                 0.9147                 0.7890
 IR Inten    --     18.0299                16.9338                46.9072

                     46                     47                     48
                      A                      A                      A
 Frequencies --    709.8313               743.0568               754.8978
 Red. masses --      2.2416                 1.4736                 2.4361
 Frc consts  --      0.6655                 0.4794                 0.8179
 IR Inten    --     16.4101                22.7450                17.6192

                     49                     50                     51
                      A                      A                      A
 Frequencies --    770.9948               785.2763               806.5001
 Red. masses --      3.2116                 3.1555                 1.1226
 Frc consts  --      1.1248                 1.1465                 0.4302
 IR Inten    --     21.3283                 0.2689                 0.4311

                     52                     53                     54
                      A                      A                      A
 Frequencies --    816.0414               834.8877               844.4977
 Red. masses --      3.2254                 3.2321                 1.2508
 Frc consts  --      1.2655                 1.3274                 0.5256
 IR Inten    --     44.6867                 4.7854                 2.0801

                     55                     56                     57
                      A                      A                      A
 Frequencies --    861.4553               875.5227               912.7881
 Red. masses --      2.8332                 2.5487                 1.8833
 Frc consts  --      1.2388                 1.1511                 0.9245
 IR Inten    --      3.0108                12.9973                37.5456

                     58                     59                     60
                      A                      A                      A
 Frequencies --    924.9020               946.4759               974.6753
 Red. masses --      1.8564                 2.9509                 2.4196
 Frc consts  --      0.9357                 1.5575                 1.3543
 IR Inten    --      2.8987                11.7371                57.7425

                     61                     62                     63
                      A                      A                      A
 Frequencies --    981.0347               987.0554              1000.6064
 Red. masses --      1.3977                 2.7793                 1.6959
 Frc consts  --      0.7925                 1.5954                 1.0004
 IR Inten    --      2.6982                 1.6101                 1.0138

                     64                     65                     66
                      A                      A                      A
 Frequencies --   1003.4509              1015.3588              1021.2122
 Red. masses --      2.8833                 1.7213                 2.0230
 Frc consts  --      1.7106                 1.0456                 1.2430
 IR Inten    --      2.1073                 1.6602                21.4077

                     67                     68                     69
                      A                      A                      A
 Frequencies --   1025.8902              1045.2915              1054.0539
 Red. masses --      2.1100                 3.2523                 2.2851
 Frc consts  --      1.3084                 2.0937                 1.4958
 IR Inten    --     21.6141                21.5515                 4.5650

                     70                     71                     72
                      A                      A                      A
 Frequencies --   1078.9831              1094.1787              1102.2479
 Red. masses --      2.0088                 1.8749                 2.2128
 Frc consts  --      1.3779                 1.3225                 1.5840
 IR Inten    --     10.1356                11.1077                90.0776

                     73                     74                     75
                      A                      A                      A
 Frequencies --   1129.3887              1132.5882              1153.7424
 Red. masses --      2.6991                 2.3107                 2.1702
 Frc consts  --      2.0284                 1.7464                 1.7020
 IR Inten    --    150.6564                10.2635                27.9107

                     76                     77                     78
                      A                      A                      A
 Frequencies --   1168.7014              1173.7907              1177.9550
 Red. masses --      1.5508                 1.1636                 1.8126
 Frc consts  --      1.2480                 0.9446                 1.4819
 IR Inten    --      2.3886                 3.8111                34.0300

                     79                     80                     81
                      A                      A                      A
 Frequencies --   1207.7207              1210.0121              1218.8604
 Red. masses --      1.1530                 1.5877                 1.9748
 Frc consts  --      0.9908                 1.3696                 1.7285
 IR Inten    --      8.2317               115.4683                84.7628

                     82                     83                     84
                      A                      A                      A
 Frequencies --   1247.0148              1253.6322              1281.4437
 Red. masses --      1.6071                 1.4503                 1.1257
 Frc consts  --      1.4724                 1.3429                 1.0892
 IR Inten    --    100.5834                16.4684                 6.3040

                     85                     86                     87
                      A                      A                      A
 Frequencies --   1285.8255              1299.5497              1311.2635
 Red. masses --      1.4946                 1.4500                 1.1442
 Frc consts  --      1.4560                 1.4428                 1.1592
 IR Inten    --     77.9415                41.3768                44.7609

                     88                     89                     90
                      A                      A                      A
 Frequencies --   1314.0427              1327.4906              1341.3191
 Red. masses --      1.2537                 1.9812                 1.3009
 Frc consts  --      1.2755                 2.0571                 1.3790
 IR Inten    --     38.9910                 9.7465                18.5861

                     91                     92                     93
                      A                      A                      A
 Frequencies --   1353.8327              1357.5003              1366.4176
 Red. masses --      1.3125                 2.4310                 1.4029
 Frc consts  --      1.4174                 2.6395                 1.5432
 IR Inten    --     56.8009                13.6740                33.5763

                     94                     95                     96
                      A                      A                      A
 Frequencies --   1378.5488              1394.0635              1417.4049
 Red. masses --      1.3994                 1.5804                 1.5157
 Frc consts  --      1.5669                 1.8096                 1.7942
 IR Inten    --     38.3015                63.1477                 8.8659

                     97                     98                     99
                      A                      A                      A
 Frequencies --   1426.1805              1434.7387              1467.2728
 Red. masses --      1.1104                 1.5407                 2.2593
 Frc consts  --      1.3307                 1.8686                 2.8659
 IR Inten    --      3.1883                58.6312                10.6557

                    100                    101                    102
                      A                      A                      A
 Frequencies --   1474.5445              1482.9504              1487.1665
 Red. masses --      1.0397                 1.1111                 1.0516
 Frc consts  --      1.3319                 1.4397                 1.3703
 IR Inten    --      4.7833                 3.5615                 1.6746

                    103                    104                    105
                      A                      A                      A
 Frequencies --   1491.8795              1499.4294              1505.3620
 Red. masses --      1.2182                 1.1410                 1.2858
 Frc consts  --      1.5975                 1.5115                 1.7167
 IR Inten    --     12.7918                15.9500                29.0432

                    106                    107                    108
                      A                      A                      A
 Frequencies --   1507.8037              1518.3088              1622.9158
 Red. masses --      1.0876                 2.1100                 5.6534
 Frc consts  --      1.4569                 2.8658                 8.7730
 IR Inten    --      6.5539                 8.4576                 0.5651

                    109                    110                    111
                      A                      A                      A
 Frequencies --   1643.1537              1766.3768              2629.0754
 Red. masses --      5.8147                11.7833                 1.0705
 Frc consts  --      9.2499                21.6612                 4.3597
 IR Inten    --      0.1356               212.7270               815.3601

                    112                    113                    114
                      A                      A                      A
 Frequencies --   2934.1824              3039.3349              3043.3840
 Red. masses --      1.0593                 1.0352                 1.0667
 Frc consts  --      5.3733                 5.6344                 5.8208
 IR Inten    --     57.0520                15.6922                14.1852

                    115                    116                    117
                      A                      A                      A
 Frequencies --   3056.8700              3070.7258              3074.8142
 Red. masses --      1.0584                 1.0830                 1.0625
 Frc consts  --      5.8270                 6.0169                 5.9185
 IR Inten    --     17.3129                11.8812                15.7613

                    118                    119                    120
                      A                      A                      A
 Frequencies --   3084.5632              3094.6513              3100.5586
 Red. masses --      1.0696                 1.0619                 1.1072
 Frc consts  --      5.9962                 5.9916                 6.2712
 IR Inten    --      0.8776                 3.3460                 4.0087

                    121                    122                    123
                      A                      A                      A
 Frequencies --   3101.3095              3115.8784              3124.0786
 Red. masses --      1.0967                 1.1013                 1.0893
 Frc consts  --      6.2150                 6.2999                 6.2636
 IR Inten    --      9.3219                20.8546                 3.1685

                    124                    125                    126
                      A                      A                      A
 Frequencies --   3128.9299              3129.1378              3160.8025
 Red. masses --      1.1042                 1.1028                 1.1057
 Frc consts  --      6.3690                 6.3622                 6.5086
 IR Inten    --      6.4626                35.5047                 8.6879

                    127                    128                    129
                      A                      A                      A
 Frequencies --   3166.5855              3177.0258              3186.6608
 Red. masses --      1.0845                 1.0885                 1.0925
 Frc consts  --      6.4069                 6.4730                 6.5365
 IR Inten    --      1.1870                 5.6672                23.2880

                    130                    131                    132
                      A                      A                      A
 Frequencies --   3188.0128              3195.4394              3219.9642
 Red. masses --      1.1043                 1.0979                 1.0924
 Frc consts  --      6.6130                 6.6049                 6.6731
 IR Inten    --      0.5786                14.2947                 3.1070

 - Thermochemistry -
 -------------------
 Temperature   298.150 Kelvin.  Pressure   1.00000 Atm.
 Atom     1 has atomic number  6 and mass  12.00000

 Molecular mass:   434.99839 amu.
 Principal axes and moments of inertia in atomic units:
                           1         2         3
     Eigenvalues --  9049.09662********************
           X            0.99458   0.10313  -0.01308
           Y           -0.10290   0.99454   0.01732
           Z            0.01479  -0.01589   0.99976
 This molecule is an asymmetric top.
 Rotational symmetry number  1.
 Warning -- assumption of classical behavior for rotation
           may cause significant error
 Rotational temperatures (Kelvin)      0.00957     0.00740     0.00663
 Rotational constants (GHZ):           0.19944     0.15421     0.13813
 Zero-point vibrational energy     939456.1 (Joules/Mol)
                                  224.53539 (Kcal/Mol)
 Warning -- explicit consideration of  41 degrees of freedom as
           vibrations may cause significant error
 Vibrational temperatures:     30.50    37.33    45.01    60.40    76.67
          (Kelvin)             89.27   101.37   107.53   112.52   119.62
                              147.48   155.98   160.33   169.57   188.96
                              191.36   226.83   234.48   254.40   264.83
                              295.22   322.76   352.86   366.91   391.40
                              416.86   429.74   442.63   467.80   477.00
                              496.43   531.27   556.54   570.43   597.99
                              607.10   642.66   691.30   729.10   797.33
                              842.43   903.27   925.40   968.85  1015.00
                             1021.29  1069.09  1086.13  1109.29  1129.84
                             1160.37  1174.10  1201.22  1215.04  1239.44
                             1259.68  1313.30  1330.73  1361.77  1402.34
                             1411.49  1420.15  1439.65  1443.74  1460.87
                             1469.30  1476.03  1503.94  1516.55  1552.42
                             1574.28  1585.89  1624.94  1629.54  1659.98
                             1681.50  1688.82  1694.81  1737.64  1740.94
                             1753.67  1794.18  1803.70  1843.71  1850.02
                             1869.76  1886.62  1890.61  1909.96  1929.86
                             1947.86  1953.14  1965.97  1983.42  2005.75
                             2039.33  2051.96  2064.27  2111.08  2121.54
                             2133.63  2139.70  2146.48  2157.34  2165.88
                             2169.39  2184.51  2335.01  2364.13  2541.42
                             3782.65  4221.63  4372.92  4378.75  4398.15
                             4418.09  4423.97  4438.00  4452.51  4461.01
                             4462.09  4483.05  4494.85  4501.83  4502.13
                             4547.69  4556.01  4571.03  4584.89  4586.84
                             4597.52  4632.81

 Zero-point correction=                           0.357820 (Hartree/Particle)
 Thermal correction to Energy=                    0.385474
 Thermal correction to Enthalpy=                  0.386418
 Thermal correction to Gibbs Free Energy=         0.295345
 Sum of electronic and zero-point Energies=          -3531.045008
 Sum of electronic and thermal Energies=             -3531.017354
 Sum of electronic and thermal Enthalpies=           -3531.016410
 Sum of electronic and thermal Free Energies=        -3531.107484

                     E (Thermal)             CV                S
                      KCal/Mol        Cal/Mol-Kelvin    Cal/Mol-Kelvin
 Total                  241.889             98.800            191.680
 Electronic               0.000              0.000              3.561
 Translational            0.889              2.981             44.100
 Rotational               0.889              2.981             35.580
 Vibrational            240.111             92.838            108.439
 Vibration     1          0.593              1.985              6.519
 Vibration     2          0.593              1.985              6.117
 Vibration     3          0.594              1.983              5.746
 Vibration     4          0.595              1.980              5.164
 Vibration     5          0.596              1.976              4.692
 Vibration     6          0.597              1.972              4.391
 Vibration     7          0.598              1.968              4.140
 Vibration     8          0.599              1.966              4.025
 Vibration     9          0.600              1.964              3.935
 Vibration    10          0.600              1.961              3.815
 Vibration    11          0.605              1.947              3.406
 Vibration    12          0.606              1.942              3.297
 Vibration    13          0.607              1.940              3.244
 Vibration    14          0.608              1.934              3.135
 Vibration    15          0.612              1.922              2.926
 Vibration    16          0.613              1.920              2.902
 Vibration    17          0.621              1.894              2.578
 Vibration    18          0.623              1.888              2.515
 Vibration    19          0.628              1.871              2.362
 Vibration    20          0.631              1.862              2.287
 Vibration    21          0.640              1.833              2.086
 Vibration    22          0.649              1.804              1.924
 Vibration    23          0.660              1.771              1.764
 Vibration    24          0.665              1.754              1.696
 Vibration    25          0.675              1.725              1.583
 Vibration    26          0.686              1.693              1.476
 Vibration    27          0.692              1.676              1.424
 Vibration    28          0.698              1.659              1.375
 Vibration    29          0.709              1.625              1.284
 Vibration    30          0.714              1.613              1.253
 Vibration    31          0.723              1.585              1.189
 Vibration    32          0.742              1.535              1.083
 Vibration    33          0.755              1.498              1.012
 Vibration    34          0.763              1.478              0.976
 Vibration    35          0.779              1.436              0.907
 Vibration    36          0.784              1.423              0.885
 Vibration    37          0.806              1.368              0.806
 Vibration    38          0.837              1.293              0.709
 Vibration    39          0.862              1.235              0.641
 Vibration    40          0.910              1.131              0.536
 Vibration    41          0.943              1.063              0.475

                           ! Non-Optimized Parameters !
 Normal termination of Gaussian 16 at Sun Jun 20 06:09:18 2021.

 ----------------------------------------------------------------------
 #p ub3lyp jul-cc-pvdz pop=cm5 scrf=(pcm,solvent=dichloroethane) guess=
 read geom=allcheck
 ----------------------------------------------------------------------

 Structure from the checkpoint file:  "checkpoint.chk"
 -----
 title
 -----
 Charge =  0 Multiplicity = 6

 SCF Done:  E(UB3LYP) =  -3531.43295835     A.U. after   17 cycles
 Normal termination of Gaussian 16 at Sun Jun 20 06:30:02 2021.
 Gaussian 16:  ES64L-G16RevA.03 25-Dec-2016

 ----------------------------------------------------------------------
 #p ub3lyp jul-cc-pvdz pop=cm5 scrf=(pcm,solvent=water) guess=read geom
 =allcheck
 ----------------------------------------------------------------------

 Structure from the checkpoint file:  "checkpoint.chk"
 -----
 title
 -----
 Charge =  0 Multiplicity = 6

                         Standard orientation:
 ---------------------------------------------------------------------
 Center     Atomic      Atomic             Coordinates (Angstroms)
 Number     Number       Type             X           Y           Z
 ---------------------------------------------------------------------
      1          6           0       -1.703929    1.860715    1.757595
      2          6           0       -1.202563    0.739041    1.076528
      3          6           0       -1.468556   -0.530897    1.612316
      4          6           0       -2.201044   -0.673224    2.792640
      5          6           0       -2.689393    0.450728    3.463488
      6          6           0       -2.438162    1.719974    2.938693
      7          6           0       -0.429456    0.826720   -0.260294
      8          6           0       -1.442133    0.978647   -1.469939
      9          6           0       -1.825705    2.455786   -1.499947
     10          6           0       -0.555133    3.240299   -1.109475
     11          6           0        0.366877    2.214034   -0.295235
     12          6           0        1.647867    2.353714   -1.001610
     13          6           0        1.953077    1.658141   -2.238004
     14          8           0        0.355356   -0.296971   -0.450904
     15         26           0        1.834127   -1.127165    0.311452
     16         17           0        3.359652   -1.279789   -1.366399
     17          6           0        2.684698    3.198316   -0.381949
     18         17           0        1.337569   -3.106638    1.154789
     19         17           0        2.659516    0.338863    1.812254
     20          1           0       -1.087661   -1.415997    1.107903
     21          1           0       -2.380782   -1.672247    3.192233
     22          1           0       -3.256977    0.339553    4.388490
     23          1           0       -2.810500    2.609229    3.449550
     24          1           0       -1.534054    2.871289    1.387693
     25          1           0       -0.875734    0.689254   -2.365288
     26          6           0       -2.652505    0.059464   -1.396787
     27          1           0       -2.201184    2.765274   -2.483292
     28          1           0       -2.628738    2.634562   -0.775805
     29          1           0       -0.048057    3.618560   -2.008982
     30          1           0       -0.756110    4.115545   -0.480362
     31          1           0        0.500515    2.569074    0.729609
     32          1           0        2.257452    4.033654    0.188138
     33          1           0        3.146882    2.526020    0.374530
     34          1           0        3.457350    3.534519   -1.080775
     35          1           0        2.666949    2.193133   -2.875135
     36          1           0        2.491568    0.720754   -1.893943
     37          1           0        1.084764    1.290061   -2.788435
     38          8           0       -2.327935   -1.200149   -1.727864
     39          8           0       -3.771684    0.420483   -1.095241
     40          6           0       -3.393011   -2.186937   -1.643241
     41          6           0       -2.796372   -3.532492   -2.003010
     42          1           0       -3.796931   -2.168298   -0.622197
     43          1           0       -4.196372   -1.887184   -2.330378
     44          1           0       -3.576847   -4.304720   -1.942549
     45          1           0       -2.394946   -3.525330   -3.025827
     46          1           0       -1.985643   -3.800910   -1.312432
 ---------------------------------------------------------------------

 SCF Done:  E(UB3LYP) =  -3531.43872146     A.U. after   14 cycles

 The electronic state is 6-A.
 Alpha  occ. eigenvalues -- -256.19582-101.51862-101.51829-101.51810 -30.18985
 Alpha  occ. eigenvalues --  -26.04362 -26.04227 -26.04060 -19.20142 -19.15597
 Alpha  occ. eigenvalues --  -19.15096 -10.32709 -10.32430 -10.28681 -10.24737
 Alpha  occ. eigenvalues --  -10.23727 -10.22880 -10.22392 -10.22099 -10.21746
 Alpha  occ. eigenvalues --  -10.21102 -10.20332 -10.20264 -10.20044 -10.19949
 Alpha  occ. eigenvalues --  -10.19895 -10.19665 -10.18658  -9.43557  -9.43555
 Alpha  occ. eigenvalues --   -9.43539  -7.19424  -7.19405  -7.19396  -7.19115
 Alpha  occ. eigenvalues --   -7.19108  -7.19102  -7.19089  -7.19080  -7.19052
 Alpha  occ. eigenvalues --   -3.66707  -2.44341  -2.44071  -2.43770  -1.11964
 Alpha  occ. eigenvalues --   -1.03465  -1.02784  -0.89965  -0.86986  -0.84432
 Alpha  occ. eigenvalues --   -0.79787  -0.79145  -0.79085  -0.78890  -0.77142
 Alpha  occ. eigenvalues --   -0.76049  -0.75593  -0.74807  -0.72023  -0.66745
 Alpha  occ. eigenvalues --   -0.64014  -0.61977  -0.61061  -0.59675  -0.57421
 Alpha  occ. eigenvalues --   -0.56561  -0.54793  -0.53076  -0.51264  -0.50705
 Alpha  occ. eigenvalues --   -0.50050  -0.49046  -0.48481  -0.48233  -0.48025
 Alpha  occ. eigenvalues --   -0.47213  -0.47033  -0.46873  -0.46515  -0.45923
 Alpha  occ. eigenvalues --   -0.44919  -0.44548  -0.43766  -0.43195  -0.42872
 Alpha  occ. eigenvalues --   -0.42641  -0.42311  -0.41386  -0.41008  -0.40517
 Alpha  occ. eigenvalues --   -0.39996  -0.39122  -0.37787  -0.37627  -0.37425
 Alpha  occ. eigenvalues --   -0.37113  -0.36468  -0.35990  -0.35909  -0.35223
 Alpha  occ. eigenvalues --   -0.35113  -0.34023  -0.33722  -0.31685  -0.31615
 Alpha  occ. eigenvalues --   -0.30859  -0.30671  -0.30455  -0.30223  -0.29702
 Alpha  occ. eigenvalues --   -0.29434  -0.28617  -0.27889  -0.26549  -0.26099
 Alpha virt. eigenvalues --   -0.13365  -0.02833  -0.02685  -0.01596  -0.01289
 Alpha virt. eigenvalues --   -0.00292  -0.00093   0.00087   0.01442   0.01583
 Alpha virt. eigenvalues --    0.01676   0.01811   0.02345   0.03180   0.03712

  Beta  occ. eigenvalues -- -256.19396-101.51699-101.51685-101.51650 -30.10073
  Beta  occ. eigenvalues --  -25.96875 -25.96812 -25.96676 -19.20141 -19.15093
  Beta  occ. eigenvalues --  -19.14734 -10.32710 -10.32425 -10.28669 -10.24737
  Beta  occ. eigenvalues --  -10.23705 -10.22880 -10.22390 -10.22099 -10.21718
  Beta  occ. eigenvalues --  -10.21081 -10.20328 -10.20262 -10.20042 -10.19949
  Beta  occ. eigenvalues --  -10.19895 -10.19668 -10.18658  -9.43398  -9.43397
  Beta  occ. eigenvalues --   -9.43396  -7.19146  -7.19137  -7.19128  -7.18928
  Beta  occ. eigenvalues --   -7.18897  -7.18884  -7.18880  -7.18876  -7.18874
  Beta  occ. eigenvalues --   -3.45927  -2.22290  -2.22221  -2.21978  -1.11960
  Beta  occ. eigenvalues --   -1.03458  -1.01092  -0.89827  -0.86926  -0.84342
  Beta  occ. eigenvalues --   -0.78953  -0.78756  -0.78073  -0.77976  -0.77029
  Beta  occ. eigenvalues --   -0.76015  -0.75578  -0.74785  -0.71867  -0.66638
  Beta  occ. eigenvalues --   -0.63934  -0.61923  -0.60999  -0.59557  -0.57326
  Beta  occ. eigenvalues --   -0.56165  -0.54698  -0.51685  -0.51203  -0.50658
  Beta  occ. eigenvalues --   -0.49915  -0.48757  -0.48239  -0.47949  -0.47391
  Beta  occ. eigenvalues --   -0.46016  -0.44564  -0.44182  -0.43229  -0.42987
  Beta  occ. eigenvalues --   -0.42765  -0.42305  -0.41394  -0.40999  -0.40544
  Beta  occ. eigenvalues --   -0.39986  -0.38948  -0.37771  -0.37605  -0.37477
  Beta  occ. eigenvalues --   -0.37420  -0.36435  -0.36341  -0.35901  -0.35434
  Beta  occ. eigenvalues --   -0.35303  -0.35206  -0.35038  -0.32850  -0.32620
  Beta  occ. eigenvalues --   -0.32265  -0.31823  -0.31583  -0.31312  -0.29580
  Beta  occ. eigenvalues --   -0.29492  -0.28671  -0.28514  -0.26555  -0.26101
  Beta virt. eigenvalues --   -0.13746  -0.13530  -0.13237  -0.12371  -0.11778
  Beta virt. eigenvalues --   -0.11079  -0.02796  -0.02655  -0.01497  -0.01238
  Beta virt. eigenvalues --   -0.00251  -0.00052   0.00115   0.01469   0.01596

 Mulliken charges and spin densities:
               1          2
     1  C   -0.297005  -0.000070
     2  C    2.598133   0.012015
     3  C   -0.618174   0.001744
     4  C    0.076010   0.006856
     5  C    0.210250   0.000983
     6  C   -0.151795   0.001347
     7  C   -1.478644  -0.025658
     8  C    0.461512   0.016748
     9  C    0.595008   0.003600
    10  C    0.398351  -0.001532
    11  C    1.856811   0.010243
    12  C   -1.179887   0.006430
    13  C    0.035237  -0.004245
    14  O   -0.547886   0.298478
    15  Fe   0.596549   4.052169
    16  Cl  -0.573340   0.189082
    17  C    0.390456  -0.000433
    18  Cl  -0.509469   0.224133
    19  Cl  -0.559767   0.207990
    20  H   -0.244718  -0.001208
    21  H   -0.168412  -0.000033
    22  H   -0.164741  -0.000001
    23  H   -0.160728   0.000146
    24  H   -0.243770  -0.000005
    25  H   -0.186532  -0.000426
    26  C    0.905708  -0.002186
    27  H   -0.144677   0.000601
    28  H   -0.053773   0.000061
    29  H   -0.096275   0.000243
    30  H   -0.086055   0.000058
    31  H   -0.216840   0.000180
    32  H    0.049153   0.000189
    33  H    0.130217   0.000561
    34  H    0.008151   0.000003
    35  H    0.009125   0.000012
    36  H    0.207729   0.001659
    37  H    0.062434   0.000152
    38  O   -0.700610  -0.001651
    39  O   -0.646129   0.001409
    40  C    0.442011   0.000131
    41  C    0.053735   0.000257
    42  H   -0.041535   0.000014
    43  H   -0.051209   0.000008
    44  H   -0.005262   0.000001
    45  H    0.020670  -0.000005
    46  H    0.019981  -0.000052
 Sum of Mulliken charges =  -0.00000   5.00000

 Dipole moment (field-independent basis, Debye):
    X=             -2.6229    Y=             13.7857    Z=             -5.8802  Tot=             15.2152
 Quadrupole moment (field-independent basis, Debye-Ang):
   XX=           -195.9535   YY=           -150.6912   ZZ=           -169.4786
   XY=             32.9188   XZ=            -11.2788   YZ=             -5.8779

 Normal termination of Gaussian 16 at Sun Jun 20 06:47:11 2021.
