 Gaussian 16, Revision A.03,

 -----------------------------------------------------------
 #p opt=modredundant freq=noraman ub3lyp jul-cc-pvdz pop=cm5
 -----------------------------------------------------------

 -----
 title
 -----
 Symbolic Z-matrix:
 Charge =  0 Multiplicity = 6

 SCF Done:  E(UB3LYP) =  -3531.42259627     A.U. after   27 cycles
 SCF Done:  E(UB3LYP) =  -3531.42266636     A.U. after   18 cycles
 SCF Done:  E(UB3LYP) =  -3531.40372494     A.U. after   23 cycles
 SCF Done:  E(UB3LYP) =  -3531.42009557     A.U. after   19 cycles
 SCF Done:  E(UB3LYP) =  -3531.42288180     A.U. after   14 cycles
 SCF Done:  E(UB3LYP) =  -3531.42287586     A.U. after   17 cycles
 SCF Done:  E(UB3LYP) =  -3531.42317973     A.U. after   15 cycles
 SCF Done:  E(UB3LYP) =  -3531.42319797     A.U. after   14 cycles
 SCF Done:  E(UB3LYP) =  -3531.42321766     A.U. after   14 cycles
 SCF Done:  E(UB3LYP) =  -3531.42322099     A.U. after   12 cycles
 SCF Done:  E(UB3LYP) =  -3531.42322803     A.U. after   11 cycles
 SCF Done:  E(UB3LYP) =  -3531.42322842     A.U. after   11 cycles
 SCF Done:  E(UB3LYP) =  -3531.42322854     A.U. after   11 cycles
 SCF Done:  E(UB3LYP) =  -3531.42322860     A.U. after   11 cycles
 SCF Done:  E(UB3LYP) =  -3531.42322869     A.U. after   12 cycles
 SCF Done:  E(UB3LYP) =  -3531.42322873     A.U. after   12 cycles
 SCF Done:  E(UB3LYP) =  -3531.42322876     A.U. after   10 cycles
 Optimization completed.
    -- Stationary point found.
 Normal termination of Gaussian 16 at Sun Jun 20 03:38:48 2021.

 ----------------------------------------------------------------------
 #P Geom=AllCheck Guess=TCheck SCRF=Check GenChk UB3LYP/Jul-CC-pVDZ Fre
 q
 ----------------------------------------------------------------------

 Structure from the checkpoint file:  "checkpoint.chk"
 -----
 title
 -----
 Charge =  0 Multiplicity = 6

 SCF Done:  E(UB3LYP) =  -3531.42322876     A.U. after    2 cycles

  Exact polarizability: 317.675  15.355 304.941  10.145   8.269 291.557
 Approx polarizability: 491.277  33.813 462.204  -0.670  14.823 487.177

 ******    2 imaginary frequencies (negative Signs) ******

                      1                      2                      3
                      A                      A                      A
 Frequencies --   -176.8893                -2.8004                17.1710
 Red. masses --      6.5765                11.5256                 3.6687
 Frc consts  --      0.1212                 0.0001                 0.0006
 IR Inten    --    299.1080                 0.1675                 1.9284

                      4                      5                      6
                      A                      A                      A
 Frequencies --     30.1591                37.8876                45.3295
 Red. masses --      4.0075                 6.4525                 5.5779
 Frc consts  --      0.0021                 0.0055                 0.0068
 IR Inten    --      1.7743                 0.4056                 3.2210

                      7                      8                      9
                      A                      A                      A
 Frequencies --     59.5039                68.7550                72.0336
 Red. masses --      3.6570                 4.1976                 5.0050
 Frc consts  --      0.0076                 0.0117                 0.0153
 IR Inten    --      0.5567                 2.3810                 0.1136

                     10                     11                     12
                      A                      A                      A
 Frequencies --     84.1562                90.4873                95.9976
 Red. masses --      8.9881                 7.5464                 6.1764
 Frc consts  --      0.0375                 0.0364                 0.0335
 IR Inten    --      0.3986                 0.4558                 1.8494

                     13                     14                     15
                      A                      A                      A
 Frequencies --    100.7067               107.5837               116.2031
 Red. masses --      2.3744                 5.5044                 8.3648
 Frc consts  --      0.0142                 0.0375                 0.0665
 IR Inten    --      1.8777                13.7951                 7.9957

                     16                     17                     18
                      A                      A                      A
 Frequencies --    122.9944               125.5967               138.9360
 Red. masses --      3.0366                 3.2434                 2.2110
 Frc consts  --      0.0271                 0.0301                 0.0251
 IR Inten    --      2.6622                 0.7481                 5.5580

                     19                     20                     21
                      A                      A                      A
 Frequencies --    149.4282               158.1399               177.3681
 Red. masses --      3.8633                 1.6961                 2.2051
 Frc consts  --      0.0508                 0.0250                 0.0409
 IR Inten    --      2.4437                 2.7429                 7.6869

                     22                     23                     24
                      A                      A                      A
 Frequencies --    193.4223               208.1068               220.8094
 Red. masses --      2.6583                 3.4865                 3.1188
 Frc consts  --      0.0586                 0.0890                 0.0896
 IR Inten    --      4.5288                 5.8815                12.2301

                     25                     26                     27
                      A                      A                      A
 Frequencies --    244.8090               255.7905               283.2885
 Red. masses --      3.3624                 1.8584                 3.1320
 Frc consts  --      0.1187                 0.0716                 0.1481
 IR Inten    --      3.5770                 3.5697                 0.9232

                     28                     29                     30
                      A                      A                      A
 Frequencies --    299.9259               321.5570               344.8453
 Red. masses --      3.0819                 6.3129                18.1880
 Frc consts  --      0.1633                 0.3846                 1.2743
 IR Inten    --      6.3802                 1.5263                52.9654

                     31                     32                     33
                      A                      A                      A
 Frequencies --    356.0204               370.8686               387.1810
 Red. masses --      4.3293                 5.6260                33.1783
 Frc consts  --      0.3233                 0.4559                 2.9304
 IR Inten    --      7.4399                14.1112                87.2262

                     34                     35                     36
                      A                      A                      A
 Frequencies --    393.6107               401.2585               415.3793
 Red. masses --     27.4392                 2.9810                 2.9398
 Frc consts  --      2.5047                 0.2828                 0.2989
 IR Inten    --     76.2010                 2.2315                 0.4523

                     37                     38                     39
                      A                      A                      A
 Frequencies --    436.5165               451.3992               481.4894
 Red. masses --      3.8757                 4.6106                 2.1371
 Frc consts  --      0.4351                 0.5535                 0.2919
 IR Inten    --     28.9934                 8.7487                 2.4296

                     40                     41                     42
                      A                      A                      A
 Frequencies --    504.9191               533.1721               537.2460
 Red. masses --      2.7379                 3.7301                 3.2177
 Frc consts  --      0.4112                 0.6248                 0.5472
 IR Inten    --      3.6280                26.4754                 2.0993

                     43                     44                     45
                      A                      A                      A
 Frequencies --    604.0715               626.2602               646.4290
 Red. masses --      5.2937                 6.3341                 4.0533
 Frc consts  --      1.1381                 1.4637                 0.9979
 IR Inten    --     33.8694                 3.7534               134.7931

                     46                     47                     48
                      A                      A                      A
 Frequencies --    697.0037               703.8761               757.4803
 Red. masses --      5.8446                 1.6410                 3.9299
 Frc consts  --      1.6729                 0.4790                 1.3285
 IR Inten    --     13.9143                74.3104                 9.6961

                     49                     50                     51
                      A                      A                      A
 Frequencies --    769.4151               801.7589               813.7931
 Red. masses --      2.3499                 1.4422                 2.5054
 Frc consts  --      0.8196                 0.5462                 0.9776
 IR Inten    --      5.9966                12.1463                25.2115

                     52                     53                     54
                      A                      A                      A
 Frequencies --    830.7018               849.1353               863.3612
 Red. masses --      2.6138                 1.2568                 1.6971
 Frc consts  --      1.0627                 0.5339                 0.7453
 IR Inten    --      3.6478                 2.5151                10.6765

                     55                     56                     57
                      A                      A                      A
 Frequencies --    871.4744               903.3997               923.2347
 Red. masses --      2.0527                 1.6746                 2.3685
 Frc consts  --      0.9185                 0.8052                 1.1894
 IR Inten    --     10.6779                 3.0775                14.5127

                     58                     59                     60
                      A                      A                      A
 Frequencies --    938.5444               963.5302               976.2773
 Red. masses --      1.4263                 2.6896                 1.4024
 Frc consts  --      0.7403                 1.4712                 0.7875
 IR Inten    --      2.8960                15.0354                 1.5999

                     61                     62                     63
                      A                      A                      A
 Frequencies --    986.4944               991.2103              1001.2173
 Red. masses --      1.3739                 2.2753                 1.6251
 Frc consts  --      0.7878                 1.3171                 0.9598
 IR Inten    --     15.8606                71.1282                 0.2078

                     64                     65                     66
                      A                      A                      A
 Frequencies --   1004.1193              1007.9918              1008.5897
 Red. masses --      1.5797                 2.1243                 2.5838
 Frc consts  --      0.9384                 1.2717                 1.5486
 IR Inten    --     20.5860                 3.3094                15.2490

                     67                     68                     69
                      A                      A                      A
 Frequencies --   1039.9499              1047.5541              1064.3196
 Red. masses --      2.9065                 2.2895                 2.1202
 Frc consts  --      1.8520                 1.4803                 1.4150
 IR Inten    --     39.9414                 6.5502                 3.0947

                     70                     71                     72
                      A                      A                      A
 Frequencies --   1076.5530              1099.4368              1108.4121
 Red. masses --      1.8899                 1.6966                 1.5807
 Frc consts  --      1.2905                 1.2083                 1.1442
 IR Inten    --      2.4337                 9.3049                10.9130

                     73                     74                     75
                      A                      A                      A
 Frequencies --   1132.9800              1136.2700              1162.8714
 Red. masses --      2.2275                 2.4225                 1.7103
 Frc consts  --      1.6847                 1.8428                 1.3626
 IR Inten    --      9.5600                 9.0748                21.2389

                     76                     77                     78
                      A                      A                      A
 Frequencies --   1168.3227              1174.8549              1198.7833
 Red. masses --      1.5654                 1.0877                 1.4109
 Frc consts  --      1.2589                 0.8845                 1.1946
 IR Inten    --      1.0781                 0.3322                52.3460

                     79                     80                     81
                      A                      A                      A
 Frequencies --   1203.4627              1212.6266              1230.2827
 Red. masses --      1.4278                 2.7379                 2.1279
 Frc consts  --      1.2184                 2.3720                 1.8976
 IR Inten    --     34.0498                21.0863               196.9606

                     82                     83                     84
                      A                      A                      A
 Frequencies --   1263.4461              1282.6171              1293.5765
 Red. masses --      1.8175                 1.1252                 1.9169
 Frc consts  --      1.7094                 1.0906                 1.8899
 IR Inten    --     27.4518                16.8635               275.5817

                     85                     86                     87
                      A                      A                      A
 Frequencies --   1320.0456              1327.1860              1332.6673
 Red. masses --      1.4752                 1.4708                 1.7403
 Frc consts  --      1.5146                 1.5264                 1.8210
 IR Inten    --     37.4295                37.0160                18.3203

                     88                     89                     90
                      A                      A                      A
 Frequencies --   1351.2126              1358.9956              1366.0307
 Red. masses --      1.2853                 3.1150                 1.4313
 Frc consts  --      1.3826                 3.3895                 1.5736
 IR Inten    --    101.9742                 0.7719                22.2112

                     91                     92                     93
                      A                      A                      A
 Frequencies --   1376.0406              1382.1744              1386.4298
 Red. masses --      1.5556                 1.4888                 1.4949
 Frc consts  --      1.7355                 1.6757                 1.6930
 IR Inten    --     65.1835               115.4264                36.6329

                     94                     95                     96
                      A                      A                      A
 Frequencies --   1405.3050              1417.4596              1432.6622
 Red. masses --      1.7992                 1.4379                 1.0601
 Frc consts  --      2.0935                 1.7022                 1.2820
 IR Inten    --    165.0586                 1.9058                 2.4693

                     97                     98                     99
                      A                      A                      A
 Frequencies --   1461.3463              1465.7692              1472.9616
 Red. masses --      1.0663                 1.2411                 1.0437
 Frc consts  --      1.3416                 1.5711                 1.3341
 IR Inten    --      7.7422                20.5428                 6.5729

                    100                    101                    102
                      A                      A                      A
 Frequencies --   1473.3720              1478.2073              1484.6444
 Red. masses --      1.8773                 1.0920                 1.0531
 Frc consts  --      2.4011                 1.4058                 1.3677
 IR Inten    --     42.8675                 8.6672                 6.9794

                    103                    104                    105
                      A                      A                      A
 Frequencies --   1495.3535              1501.1124              1505.7388
 Red. masses --      1.1416                 1.1481                 1.0870
 Frc consts  --      1.5040                 1.5242                 1.4520
 IR Inten    --     11.0821                 3.1593                 8.6072

                    106                    107                    108
                      A                      A                      A
 Frequencies --   1515.8721              1603.0455              1621.7011
 Red. masses --      2.0884                 4.4392                 5.6643
 Frc consts  --      2.8273                 6.7212                 8.7769
 IR Inten    --      2.6961               138.2566                 4.1277

                    109                    110                    111
                      A                      A                      A
 Frequencies --   1639.7469              1764.2157              2966.1935
 Red. masses --      5.6526                11.8325                 1.0564
 Frc consts  --      8.9548                21.6986                 5.4763
 IR Inten    --      6.5583               234.6974                77.8014

                    112                    113                    114
                      A                      A                      A
 Frequencies --   3018.4248              3042.4937              3043.9072
 Red. masses --      1.0402                 1.0361                 1.0631
 Frc consts  --      5.5840                 5.6506                 5.8037
 IR Inten    --      1.5472                15.2113                19.1174

                    115                    116                    117
                      A                      A                      A
 Frequencies --   3057.8395              3060.4177              3071.3212
 Red. masses --      1.0587                 1.0651                 1.0960
 Frc consts  --      5.8324                 5.8774                 6.0913
 IR Inten    --     16.6791                20.3718                 0.9630

                    118                    119                    120
                      A                      A                      A
 Frequencies --   3073.0813              3089.9691              3098.8257
 Red. masses --      1.0819                 1.0762                 1.0989
 Frc consts  --      6.0198                 6.0540                 6.2173
 IR Inten    --      8.7915                 9.1152                15.2001

                    121                    122                    123
                      A                      A                      A
 Frequencies --   3105.0515              3114.7661              3118.8246
 Red. masses --      1.1073                 1.1037                 1.1008
 Frc consts  --      6.2899                 6.3091                 6.3089
 IR Inten    --      7.0546                12.6191                21.7045

                    124                    125                    126
                      A                      A                      A
 Frequencies --   3136.9735              3150.6076              3152.3631
 Red. masses --      1.1047                 1.0998                 1.1023
 Frc consts  --      6.4048                 6.4322                 6.4538
 IR Inten    --     19.5709                 6.1063                 3.3829

                    127                    128                    129
                      A                      A                      A
 Frequencies --   3159.6785              3171.8099              3183.0059
 Red. masses --      1.0870                 1.0856                 1.0901
 Frc consts  --      6.3941                 6.4346                 6.5070
 IR Inten    --     10.6372                 0.1492                 6.8531

                    130                    131                    132
                      A                      A                      A
 Frequencies --   3193.3432              3203.4225              3221.9900
 Red. masses --      1.0950                 1.0951                 1.0926
 Frc consts  --      6.5790                 6.6214                 6.6827
 IR Inten    --     13.6037                 3.4723                 2.6965

 - Thermochemistry -
 -------------------
 Temperature   298.150 Kelvin.  Pressure   1.00000 Atm.
 Atom     1 has atomic number  6 and mass  12.00000

 Molecular mass:   434.99839 amu.
 Principal axes and moments of inertia in atomic units:
                           1         2         3
     Eigenvalues --  9106.90268********************
           X            0.99866   0.04803   0.01951
           Y           -0.04833   0.99871   0.01536
           Z           -0.01875  -0.01628   0.99969
 This molecule is an asymmetric top.
 Rotational symmetry number  1.
 Warning -- assumption of classical behavior for rotation
           may cause significant error
 Rotational temperatures (Kelvin)      0.00951     0.00781     0.00661
 Rotational constants (GHZ):           0.19817     0.16277     0.13767
    2 imaginary frequencies ignored.
 Zero-point vibrational energy     940560.0 (Joules/Mol)
                                  224.79923 (Kcal/Mol)
 Warning -- explicit consideration of  41 degrees of freedom as
           vibrations may cause significant error
 Vibrational temperatures:     24.71    43.39    54.51    65.22    85.61
          (Kelvin)             98.92   103.64   121.08   130.19   138.12
                              144.89   154.79   167.19   176.96   180.71
                              199.90   214.99   227.53   255.19   278.29
                              299.42   317.70   352.23   368.03   407.59
                              431.53   462.65   496.16   512.23   533.60
                              557.07   566.32   577.32   597.64   628.05
                              649.46   692.76   726.47   767.12   772.98
                              869.12   901.05   930.07  1002.83  1012.72
                             1089.85  1107.02  1153.55  1170.87  1195.19
                             1221.72  1242.18  1253.86  1299.79  1328.33
                             1350.36  1386.31  1404.65  1419.35  1426.13
                             1440.53  1444.70  1450.28  1451.14  1496.26
                             1507.20  1531.32  1548.92  1581.84  1594.76
                             1630.11  1634.84  1673.11  1680.96  1690.35
                             1724.78  1731.51  1744.70  1770.10  1817.82
                             1845.40  1861.17  1899.25  1909.52  1917.41
                             1944.09  1955.29  1965.41  1979.82  1988.64
                             1994.76  2021.92  2039.41  2061.28  2102.55
                             2108.91  2119.26  2119.85  2126.81  2136.07
                             2151.48  2159.77  2166.42  2181.00  2306.42
                             2333.27  2359.23  2538.31  4267.69  4342.84
                             4377.47  4379.50  4399.55  4403.26  4418.95
                             4421.48  4445.78  4458.52  4467.48  4481.45
                             4487.29  4513.41  4533.02  4535.55  4546.07
                             4563.53  4579.64  4594.51  4609.01  4635.72

 Zero-point correction=                           0.358240 (Hartree/Particle)
 Thermal correction to Energy=                    0.385104
 Thermal correction to Enthalpy=                  0.386048
 Thermal correction to Gibbs Free Energy=         0.296898
 Sum of electronic and zero-point Energies=          -3531.064988
 Sum of electronic and thermal Energies=             -3531.038125
 Sum of electronic and thermal Enthalpies=           -3531.037180
 Sum of electronic and thermal Free Energies=        -3531.126330

                     E (Thermal)             CV                S
                      KCal/Mol        Cal/Mol-Kelvin    Cal/Mol-Kelvin
 Total                  241.657             95.862            187.632
 Electronic               0.000              0.000              3.561
 Translational            0.889              2.981             44.100
 Rotational               0.889              2.981             35.536
 Vibrational            239.879             89.901            104.435
 Vibration     1          0.593              1.986              6.937
 Vibration     2          0.594              1.984              5.819
 Vibration     3          0.594              1.982              5.367
 Vibration     4          0.595              1.979              5.011
 Vibration     5          0.597              1.974              4.474
 Vibration     6          0.598              1.969              4.189
 Vibration     7          0.598              1.967              4.097
 Vibration     8          0.601              1.960              3.792
 Vibration     9          0.602              1.956              3.650
 Vibration    10          0.603              1.952              3.534
 Vibration    11          0.604              1.949              3.441
 Vibration    12          0.606              1.943              3.312
 Vibration    13          0.608              1.936              3.163
 Vibration    14          0.610              1.930              3.053
 Vibration    15          0.611              1.927              3.012
 Vibration    16          0.615              1.914              2.818
 Vibration    17          0.618              1.903              2.679
 Vibration    18          0.621              1.894              2.572
 Vibration    19          0.628              1.870              2.356
 Vibration    20          0.635              1.849              2.195
 Vibration    21          0.641              1.828              2.060
 Vibration    22          0.648              1.809              1.952
 Vibration    23          0.660              1.771              1.768
 Vibration    24          0.666              1.753              1.690
 Vibration    25          0.682              1.705              1.514
 Vibration    26          0.692              1.674              1.417
 Vibration    27          0.707              1.632              1.302
 Vibration    28          0.723              1.586              1.190
 Vibration    29          0.732              1.563              1.139
 Vibration    30          0.743              1.532              1.076
 Vibration    31          0.756              1.498              1.011
 Vibration    32          0.761              1.484              0.986
 Vibration    33          0.767              1.467              0.958
 Vibration    34          0.779              1.437              0.908
 Vibration    35          0.797              1.391              0.838
 Vibration    36          0.810              1.358              0.792
 Vibration    37          0.838              1.291              0.706
 Vibration    38          0.860              1.239              0.646
 Vibration    39          0.888              1.177              0.580
 Vibration    40          0.892              1.168              0.571
 Vibration    41          0.963              1.023              0.443

                           ! Non-Optimized Parameters !
 Normal termination of Gaussian 16 at Sun Jun 20 06:55:19 2021.

 ----------------------------------------------------------------------
 #p ub3lyp jul-cc-pvdz pop=cm5 scrf=(pcm,solvent=dichloroethane) guess=
 read geom=allcheck
 ----------------------------------------------------------------------

 Structure from the checkpoint file:  "checkpoint.chk"
 -----
 title
 -----
 Charge =  0 Multiplicity = 6

 SCF Done:  E(UB3LYP) =  -3531.44484303     A.U. after   19 cycles
 Normal termination of Gaussian 16 at Sun Jun 20 07:16:45 2021.
 Gaussian 16:  ES64L-G16RevA.03 25-Dec-2016

 ----------------------------------------------------------------------
 #p ub3lyp jul-cc-pvdz pop=cm5 scrf=(pcm,solvent=water) guess=read geom
 =allcheck
 ----------------------------------------------------------------------

 Structure from the checkpoint file:  "checkpoint.chk"
 -----
 title
 -----
 Charge =  0 Multiplicity = 6

                         Standard orientation:
 ---------------------------------------------------------------------
 Center     Atomic      Atomic             Coordinates (Angstroms)
 Number     Number       Type             X           Y           Z
 ---------------------------------------------------------------------
      1          6           0        3.057836   -0.713945    0.322326
      2          6           0        1.693155   -0.657867    0.662632
      3          6           0        1.337959   -0.518491    2.014268
      4          6           0        2.322523   -0.448169    3.003042
      5          6           0        3.674395   -0.515622    2.656849
      6          6           0        4.038712   -0.643593    1.310700
      7          6           0        0.601586   -0.696117   -0.381968
      8          6           0        0.819178    0.089089   -1.732207
      9          6           0        1.263369   -0.816517   -2.882769
     10          6           0        0.548917   -2.146369   -2.645960
     11          6           0        0.848035   -2.501250   -1.207048
     12          6           0        0.030557   -3.228624   -0.358832
     13          6           0       -1.417113   -3.416652   -0.598069
     14          8           0       -0.612468   -0.644008    0.084204
     15         26           0       -2.175382    0.471831    0.332675
     16         17           0       -2.678807    1.410738   -1.610797
     17          6           0        0.560480   -3.748684    0.935060
     18         17           0       -1.714831    1.926240    1.928936
     19         17           0       -3.747028   -0.956196    0.981533
     20          1           0        0.287700   -0.433514    2.284199
     21          1           0        2.027971   -0.329667    4.046534
     22          1           0        4.443213   -0.459187    3.428974
     23          1           0        5.091580   -0.682136    1.028602
     24          1           0        3.367381   -0.796878   -0.718427
     25          1           0       -0.184246    0.474173   -1.954520
     26          6           0        1.719884    1.312367   -1.561705
     27          1           0        1.009504   -0.365171   -3.850157
     28          1           0        2.353831   -0.948492   -2.867839
     29          1           0       -0.529343   -2.036655   -2.818177
     30          1           0        0.916503   -2.933965   -3.320422
     31          1           0        1.914942   -2.592038   -0.999333
     32          1           0        1.614108   -3.502567    1.098712
     33          1           0       -0.042791   -3.354513    1.769516
     34          1           0        0.440195   -4.843735    0.961247
     35          1           0       -1.792785   -4.320745   -0.102024
     36          1           0       -1.943103   -2.560923   -0.129294
     37          1           0       -1.691357   -3.428346   -1.657651
     38          8           0        1.136736    2.226155   -0.777364
     39          8           0        2.803254    1.448323   -2.092456
     40          6           0        1.879470    3.457533   -0.540075
     41          6           0        0.985974    4.387815    0.253323
     42          1           0        2.800065    3.197057    0.000382
     43          1           0        2.163707    3.876477   -1.514253
     44          1           0        1.530919    5.320309    0.460448
     45          1           0        0.075685    4.633206   -0.309760
     46          1           0        0.687917    3.933240    1.206799
 ---------------------------------------------------------------------

 SCF Done:  E(UB3LYP) =  -3531.44880981     A.U. after   17 cycles

 The electronic state is 6-A.
 Alpha  occ. eigenvalues -- -256.20767-101.52386-101.52240-101.52225 -30.20175
 Alpha  occ. eigenvalues --  -26.05517 -26.05401 -26.05297 -19.20532 -19.17281
 Alpha  occ. eigenvalues --  -19.15534 -10.33264 -10.32208 -10.26572 -10.24921
 Alpha  occ. eigenvalues --  -10.22358 -10.21874 -10.21860 -10.20900 -10.20742
 Alpha  occ. eigenvalues --  -10.20624 -10.20589 -10.20456 -10.20441 -10.20274
 Alpha  occ. eigenvalues --  -10.20031 -10.19973 -10.18599  -9.44110  -9.43969
 Alpha  occ. eigenvalues --   -9.43958  -7.19974  -7.19838  -7.19826  -7.19662
 Alpha  occ. eigenvalues --   -7.19649  -7.19512  -7.19507  -7.19505  -7.19498
 Alpha  occ. eigenvalues --   -3.67850  -2.45409  -2.45180  -2.44984  -1.12427
 Alpha  occ. eigenvalues --   -1.06819  -1.03899  -0.88000  -0.86859  -0.83639
 Alpha  occ. eigenvalues --   -0.80341  -0.79617  -0.79526  -0.78937  -0.78066
 Alpha  occ. eigenvalues --   -0.76380  -0.75070  -0.72334  -0.70829  -0.66530
 Alpha  occ. eigenvalues --   -0.64468  -0.62341  -0.61574  -0.59523  -0.57357
 Alpha  occ. eigenvalues --   -0.56152  -0.54577  -0.52956  -0.51427  -0.50512
 Alpha  occ. eigenvalues --   -0.49841  -0.49324  -0.48804  -0.48229  -0.48011
 Alpha  occ. eigenvalues --   -0.47771  -0.47710  -0.47013  -0.46826  -0.45951
 Alpha  occ. eigenvalues --   -0.45171  -0.44721  -0.44065  -0.43409  -0.42509
 Alpha  occ. eigenvalues --   -0.42482  -0.41307  -0.40754  -0.40248  -0.40046
 Alpha  occ. eigenvalues --   -0.39335  -0.38674  -0.37788  -0.37589  -0.37381
 Alpha  occ. eigenvalues --   -0.37196  -0.36894  -0.36221  -0.35983  -0.35760
 Alpha  occ. eigenvalues --   -0.34980  -0.34542  -0.34055  -0.32152  -0.32001
 Alpha  occ. eigenvalues --   -0.31148  -0.31131  -0.30861  -0.30411  -0.30014
 Alpha  occ. eigenvalues --   -0.29812  -0.29090  -0.28454  -0.27143  -0.26181
 Alpha virt. eigenvalues --   -0.11411  -0.03569  -0.02918  -0.01542  -0.01173
 Alpha virt. eigenvalues --   -0.00179  -0.00044   0.00047   0.01456   0.01644
 Alpha virt. eigenvalues --    0.01839   0.01973   0.02374   0.03591   0.03728

  Beta  occ. eigenvalues -- -256.20583-101.52204-101.52065-101.52041 -30.11226
  Beta  occ. eigenvalues --  -25.97970 -25.97962 -25.97906 -19.20533 -19.16751
  Beta  occ. eigenvalues --  -19.15532 -10.33264 -10.32205 -10.26529 -10.24921
  Beta  occ. eigenvalues --  -10.22345 -10.21853 -10.21833 -10.20902 -10.20744
  Beta  occ. eigenvalues --  -10.20628 -10.20586 -10.20455 -10.20443 -10.20275
  Beta  occ. eigenvalues --  -10.20030 -10.19976 -10.18598  -9.43932  -9.43797
  Beta  occ. eigenvalues --   -9.43778  -7.19674  -7.19539  -7.19525  -7.19419
  Beta  occ. eigenvalues --   -7.19407  -7.19284  -7.19274  -7.19259  -7.19250
  Beta  occ. eigenvalues --   -3.46984  -2.23257  -2.23199  -2.23149  -1.12425
  Beta  occ. eigenvalues --   -1.05790  -1.03896  -0.87919  -0.86800  -0.83582
  Beta  occ. eigenvalues --   -0.79181  -0.78934  -0.78366  -0.78277  -0.77987
  Beta  occ. eigenvalues --   -0.76375  -0.75044  -0.72321  -0.70733  -0.66378
  Beta  occ. eigenvalues --   -0.64390  -0.62305  -0.61510  -0.59183  -0.57121
  Beta  occ. eigenvalues --   -0.55738  -0.54449  -0.52032  -0.51401  -0.50214
  Beta  occ. eigenvalues --   -0.49740  -0.48826  -0.48197  -0.47475  -0.46969
  Beta  occ. eigenvalues --   -0.45776  -0.44797  -0.44051  -0.43429  -0.42506
  Beta  occ. eigenvalues --   -0.42447  -0.41381  -0.40730  -0.40199  -0.40050
  Beta  occ. eigenvalues --   -0.39320  -0.38545  -0.38146  -0.37625  -0.37367
  Beta  occ. eigenvalues --   -0.37180  -0.36942  -0.36249  -0.36017  -0.35950
  Beta  occ. eigenvalues --   -0.35848  -0.35838  -0.34894  -0.33263  -0.33205
  Beta  occ. eigenvalues --   -0.32559  -0.32324  -0.31962  -0.31495  -0.30266
  Beta  occ. eigenvalues --   -0.29696  -0.29060  -0.28567  -0.27151  -0.26117
  Beta virt. eigenvalues --   -0.14692  -0.14320  -0.13403  -0.13212  -0.12865
  Beta virt. eigenvalues --   -0.10488  -0.03526  -0.02896  -0.01443  -0.01134
  Beta virt. eigenvalues --   -0.00137  -0.00017   0.00077   0.01471   0.01667

 Mulliken charges and spin densities:
               1          2
     1  C   -0.183438  -0.002495
     2  C    3.126654   0.012587
     3  C   -0.753745  -0.009274
     4  C    0.033342   0.005125
     5  C    0.234872  -0.002584
     6  C    0.002493   0.002980
     7  C   -2.677667  -0.007058
     8  C    0.844638   0.004706
     9  C    0.654271   0.000924
    10  C    0.738558   0.001707
    11  C    0.706144   0.008828
    12  C   -0.302276   0.033393
    13  C    0.056692  -0.006669
    14  O   -0.458973   0.155705
    15  Fe   0.614305   4.066543
    16  Cl  -0.517752   0.238774
    17  C    0.346453  -0.001206
    18  Cl  -0.479628   0.247249
    19  Cl  -0.496404   0.239431
    20  H   -0.207827   0.002207
    21  H   -0.156238   0.000001
    22  H   -0.157548   0.000039
    23  H   -0.158333   0.000140
    24  H   -0.186111  -0.000058
    25  H   -0.212020   0.000433
    26  C    0.826135  -0.003746
    27  H   -0.170466   0.000329
    28  H   -0.045612  -0.000108
    29  H   -0.081925  -0.000009
    30  H   -0.138637   0.000668
    31  H   -0.213756  -0.000880
    32  H    0.023692   0.000029
    33  H    0.087593   0.001680
    34  H    0.008771   0.001623
    35  H    0.010361   0.000316
    36  H    0.137238   0.005344
    37  H    0.027498   0.000358
    38  O   -0.695988   0.001905
    39  O   -0.638667   0.000967
    40  C    0.440678   0.001006
    41  C    0.042951  -0.000765
    42  H   -0.029676   0.000020
    43  H   -0.035550   0.000022
    44  H   -0.008446   0.000015
    45  H    0.021648   0.000007
    46  H    0.021695  -0.000210
 Sum of Mulliken charges =  -0.00000   5.00000

 Dipole moment (field-independent basis, Debye):
    X=              9.5534    Y=             -8.9689    Z=             -1.1405  Tot=             13.1533
 Quadrupole moment (field-independent basis, Debye-Ang):
   XX=           -198.8879   YY=           -150.0036   ZZ=           -174.4466
   XY=              3.1090   XZ=             13.3222   YZ=              4.5707

 Normal termination of Gaussian 16 at Sun Jun 20 07:35:46 2021.
