 Gaussian 16, Revision A.03,

 -----------------------------------------------------------
 #p opt=modredundant freq=noraman ub3lyp jul-cc-pvdz pop=cm5
 -----------------------------------------------------------

 -----
 title
 -----
 Symbolic Z-matrix:
 Charge =  0 Multiplicity = 6

 SCF Done:  E(UB3LYP) =  -3531.42158479     A.U. after   22 cycles
 SCF Done:  E(UB3LYP) =  -3531.42129577     A.U. after   16 cycles
 SCF Done:  E(UB3LYP) =  -3531.41833233     A.U. after   15 cycles
 SCF Done:  E(UB3LYP) =  -3531.41769365     A.U. after   15 cycles
 SCF Done:  E(UB3LYP) =  -3531.42173160     A.U. after   11 cycles
 SCF Done:  E(UB3LYP) =  -3531.42156743     A.U. after   15 cycles
 SCF Done:  E(UB3LYP) =  -3531.42208373     A.U. after   14 cycles
 SCF Done:  E(UB3LYP) =  -3531.42213890     A.U. after   13 cycles
 SCF Done:  E(UB3LYP) =  -3531.42214863     A.U. after   14 cycles
 SCF Done:  E(UB3LYP) =  -3531.42216038     A.U. after   14 cycles
 SCF Done:  E(UB3LYP) =  -3531.42216427     A.U. after   13 cycles
 SCF Done:  E(UB3LYP) =  -3531.42216647     A.U. after   11 cycles
 SCF Done:  E(UB3LYP) =  -3531.42216841     A.U. after   12 cycles
 SCF Done:  E(UB3LYP) =  -3531.42216908     A.U. after   11 cycles
 SCF Done:  E(UB3LYP) =  -3531.42216933     A.U. after   11 cycles
 SCF Done:  E(UB3LYP) =  -3531.42216937     A.U. after    9 cycles
 SCF Done:  E(UB3LYP) =  -3531.42216944     A.U. after    9 cycles
 Optimization completed.
    -- Stationary point found.
 Normal termination of Gaussian 16 at Sun Jun 20 04:01:28 2021.

 ----------------------------------------------------------------------
 #P Geom=AllCheck Guess=TCheck SCRF=Check GenChk UB3LYP/Jul-CC-pVDZ Fre
 q
 ----------------------------------------------------------------------

 Structure from the checkpoint file:  "checkpoint.chk"
 -----
 title
 -----
 Charge =  0 Multiplicity = 6

 SCF Done:  E(UB3LYP) =  -3531.42216944     A.U. after    1 cycles

  Exact polarizability: 283.529   5.173 298.043  23.397   4.192 284.872
 Approx polarizability: 414.632   5.873 471.477  43.282   2.617 450.652

 ******    1 imaginary frequencies (negative Signs) ******

                      1                      2                      3
                      A                      A                      A
 Frequencies --    -26.7666                23.5078                27.8857
 Red. masses --      8.0287                 4.7480                 5.7909
 Frc consts  --      0.0034                 0.0015                 0.0027
 IR Inten    --     44.8886                 1.0828                 3.1045

                      4                      5                      6
                      A                      A                      A
 Frequencies --     38.7660                47.6625                48.3598
 Red. masses --      8.4516                 4.5385                 4.8096
 Frc consts  --      0.0075                 0.0061                 0.0066
 IR Inten    --      9.4203                10.0721                 3.7727

                      7                      8                      9
                      A                      A                      A
 Frequencies --     62.6907                71.8921                78.1299
 Red. masses --      2.4820                 5.2738                10.5956
 Frc consts  --      0.0057                 0.0161                 0.0381
 IR Inten    --      0.3923                 4.9470                 0.7464

                     10                     11                     12
                      A                      A                      A
 Frequencies --     85.6363               102.1173               103.8893
 Red. masses --      8.0764                11.9514                 6.8905
 Frc consts  --      0.0349                 0.0734                 0.0438
 IR Inten    --      3.7683                12.5134                 2.8846

                     13                     14                     15
                      A                      A                      A
 Frequencies --    114.8111               121.6777               123.1295
 Red. masses --     15.9674                 4.4808                 5.6778
 Frc consts  --      0.1240                 0.0391                 0.0507
 IR Inten    --      1.8054                 2.9900                17.9834

                     16                     17                     18
                      A                      A                      A
 Frequencies --    133.8847               165.8969               170.8166
 Red. masses --      4.1285                 4.4733                 2.4237
 Frc consts  --      0.0436                 0.0725                 0.0417
 IR Inten    --     11.4645                28.9870                 1.1352

                     19                     20                     21
                      A                      A                      A
 Frequencies --    194.2747               195.1447               209.8862
 Red. masses --      2.2979                 4.7661                 1.5923
 Frc consts  --      0.0511                 0.1069                 0.0413
 IR Inten    --     21.0986                14.2089                24.7470

                     22                     23                     24
                      A                      A                      A
 Frequencies --    224.3074               239.1339               254.0286
 Red. masses --      4.1920                 2.4217                 2.2909
 Frc consts  --      0.1243                 0.0816                 0.0871
 IR Inten    --      3.1522                 0.5484                10.8326

                     25                     26                     27
                      A                      A                      A
 Frequencies --    257.0985               259.4986               295.8670
 Red. masses --      1.3999                 1.6776                 3.5684
 Frc consts  --      0.0545                 0.0666                 0.1840
 IR Inten    --      7.0545                 1.1792                 2.2678

                     28                     29                     30
                      A                      A                      A
 Frequencies --    314.0822               341.2045               347.6406
 Red. masses --      2.8052                 4.7601                10.4088
 Frc consts  --      0.1630                 0.3265                 0.7412
 IR Inten    --      1.9506                 8.0680                20.4638

                     31                     32                     33
                      A                      A                      A
 Frequencies --    365.3228               375.8273               391.8553
 Red. masses --      3.5022                 3.1848                28.8981
 Frc consts  --      0.2754                 0.2650                 2.6144
 IR Inten    --      8.4966                 4.0058                87.0972

                     34                     35                     36
                      A                      A                      A
 Frequencies --    400.3508               402.2000               410.1634
 Red. masses --      3.6915                28.5312                 2.9776
 Frc consts  --      0.3486                 2.7193                 0.2951
 IR Inten    --      0.9394                92.9715                 2.8354

                     37                     38                     39
                      A                      A                      A
 Frequencies --    415.0263               468.0224               513.7577
 Red. masses --      4.9206                 3.7580                 3.3379
 Frc consts  --      0.4994                 0.4850                 0.5191
 IR Inten    --     19.9278                 2.8956                11.8232

                     40                     41                     42
                      A                      A                      A
 Frequencies --    524.8189               545.4550               623.6317
 Red. masses --      2.6987                 2.9553                 4.7098
 Frc consts  --      0.4380                 0.5181                 1.0792
 IR Inten    --      3.5026                 9.6160                 8.5123

                     43                     44                     45
                      A                      A                      A
 Frequencies --    629.2296               663.0405               685.1534
 Red. masses --      5.7538                 4.4921                 3.8360
 Frc consts  --      1.3422                 1.1635                 1.0610
 IR Inten    --      5.4291                10.7994                 9.0801

                     46                     47                     48
                      A                      A                      A
 Frequencies --    706.4485               743.3042               758.2037
 Red. masses --      1.6049                 4.4666                 3.0550
 Frc consts  --      0.4719                 1.4540                 1.0347
 IR Inten    --     43.1565                28.0909                 6.9889

                     49                     50                     51
                      A                      A                      A
 Frequencies --    783.7630               793.2361               806.6718
 Red. masses --      3.0109                 3.2800                 1.1739
 Frc consts  --      1.0897                 1.2160                 0.4501
 IR Inten    --     12.9775                 8.6270                 0.3187

                     52                     53                     54
                      A                      A                      A
 Frequencies --    844.8404               845.8977               872.0271
 Red. masses --      1.2665                 2.5651                 2.7132
 Frc consts  --      0.5326                 1.0814                 1.2156
 IR Inten    --      1.3731                35.8703                10.5605

                     55                     56                     57
                      A                      A                      A
 Frequencies --    876.9558               912.3890               924.2403
 Red. masses --      3.1809                 1.4405                 1.5833
 Frc consts  --      1.4413                 0.7065                 0.7968
 IR Inten    --      3.6586                11.0152                45.0661

                     58                     59                     60
                      A                      A                      A
 Frequencies --    935.0731               940.3001               961.2458
 Red. masses --      2.1543                 2.4752                 3.4648
 Frc consts  --      1.1098                 1.2894                 1.8862
 IR Inten    --     16.7793                41.2317                48.5359

                     61                     62                     63
                      A                      A                      A
 Frequencies --    979.8862               981.2657              1001.4721
 Red. masses --      2.0877                 1.4246                 1.3177
 Frc consts  --      1.1810                 0.8082                 0.7786
 IR Inten    --     15.2025                 5.1809                 1.0543

                     64                     65                     66
                      A                      A                      A
 Frequencies --   1005.4333              1007.8439              1016.8699
 Red. masses --      4.8950                 1.5174                 2.4086
 Frc consts  --      2.9155                 0.9081                 1.4674
 IR Inten    --      1.6110                 2.9151                28.5079

                     67                     68                     69
                      A                      A                      A
 Frequencies --   1037.4697              1047.9970              1052.7814
 Red. masses --      2.5930                 2.9002                 1.9599
 Frc consts  --      1.6444                 1.8767                 1.2799
 IR Inten    --     20.9603                20.0570                10.9728

                     70                     71                     72
                      A                      A                      A
 Frequencies --   1060.8114              1096.2274              1102.3075
 Red. masses --      1.9825                 2.0245                 1.8000
 Frc consts  --      1.3145                 1.4334                 1.2886
 IR Inten    --      4.1439                34.4748                 1.2992

                     73                     74                     75
                      A                      A                      A
 Frequencies --   1116.0660              1132.7501              1141.5873
 Red. masses --      1.8002                 2.1791                 1.6074
 Frc consts  --      1.3211                 1.6474                 1.2342
 IR Inten    --      3.8442                 8.2004                12.1200

                     76                     77                     78
                      A                      A                      A
 Frequencies --   1160.2583              1169.3618              1175.4118
 Red. masses --      1.6357                 1.5595                 1.0865
 Frc consts  --      1.2974                 1.2564                 0.8844
 IR Inten    --     33.1953                 1.8966                 0.1051

                     79                     80                     81
                      A                      A                      A
 Frequencies --   1198.2461              1209.0963              1223.8270
 Red. masses --      1.9424                 1.1610                 1.8686
 Frc consts  --      1.6432                 1.0000                 1.6490
 IR Inten    --    145.4194                 8.1279                86.4060

                     82                     83                     84
                      A                      A                      A
 Frequencies --   1250.1436              1262.7930              1283.2201
 Red. masses --      1.7534                 2.3691                 1.1085
 Frc consts  --      1.6145                 2.2259                 1.0755
 IR Inten    --     28.1976                48.6187                 1.4432

                     85                     86                     87
                      A                      A                      A
 Frequencies --   1297.8073              1305.4029              1316.7437
 Red. masses --      1.7966                 2.0497                 1.3582
 Frc consts  --      1.7829                 2.0580                 1.3875
 IR Inten    --     59.7546                 3.6368                 1.7206

                     88                     89                     90
                      A                      A                      A
 Frequencies --   1325.5168              1334.3004              1359.7762
 Red. masses --      1.6964                 1.9846                 2.1830
 Frc consts  --      1.7561                 2.0817                 2.3781
 IR Inten    --     35.1798                18.6398                 0.0551

                     91                     92                     93
                      A                      A                      A
 Frequencies --   1364.2732              1376.7618              1390.1034
 Red. masses --      1.3958                 1.4327                 1.5447
 Frc consts  --      1.5306                 1.6000                 1.7587
 IR Inten    --     27.0725                 9.8201                62.3106

                     94                     95                     96
                      A                      A                      A
 Frequencies --   1405.1986              1408.8019              1416.5300
 Red. masses --      1.3598                 1.3397                 1.5039
 Frc consts  --      1.5820                 1.5665                 1.7780
 IR Inten    --     29.7039                22.1484                 5.0387

                     97                     98                     99
                      A                      A                      A
 Frequencies --   1454.4840              1467.8832              1473.5788
 Red. masses --      1.0846                 2.2283                 1.0393
 Frc consts  --      1.3518                 2.8289                 1.3297
 IR Inten    --      0.7153                 8.4363                 3.8468

                    100                    101                    102
                      A                      A                      A
 Frequencies --   1475.9312              1476.7650              1487.6484
 Red. masses --      1.1005                 1.0804                 1.0537
 Frc consts  --      1.4125                 1.3882                 1.3739
 IR Inten    --      0.6235                 0.6964                 2.7969

                    103                    104                    105
                      A                      A                      A
 Frequencies --   1487.9871              1498.8371              1507.2766
 Red. masses --      1.0760                 1.0907                 1.0844
 Frc consts  --      1.4037                 1.4436                 1.4515
 IR Inten    --      3.0355                12.1234                 5.9834

                    106                    107                    108
                      A                      A                      A
 Frequencies --   1510.9374              1524.2507              1624.8413
 Red. masses --      1.0766                 2.2478                 5.6344
 Frc consts  --      1.4481                 3.0769                 8.7644
 IR Inten    --      3.3289                 3.3927                 0.5390

                    109                    110                    111
                      A                      A                      A
 Frequencies --   1647.8059              1772.4482              3018.6815
 Red. masses --      5.7557                11.5955                 1.0468
 Frc consts  --      9.2079                21.4628                 5.6203
 IR Inten    --      0.0364               204.9806                 1.4075

                    112                    113                    114
                      A                      A                      A
 Frequencies --   3028.9134              3039.9921              3058.4385
 Red. masses --      1.0471                 1.0355                 1.0584
 Frc consts  --      5.6600                 5.6384                 5.8333
 IR Inten    --     10.5529                19.8002                 8.6245

                    115                    116                    117
                      A                      A                      A
 Frequencies --   3058.9051              3065.1732              3082.4632
 Red. masses --      1.0602                 1.0616                 1.0859
 Frc consts  --      5.8447                 5.8768                 6.0791
 IR Inten    --     17.3712                37.2892                 7.5916

                    118                    119                    120
                      A                      A                      A
 Frequencies --   3097.1358              3102.3829              3111.0171
 Red. masses --      1.1033                 1.1067                 1.0861
 Frc consts  --      6.2352                 6.2760                 6.1935
 IR Inten    --      7.8681                 6.9498                 2.5016

                    121                    122                    123
                      A                      A                      A
 Frequencies --   3114.8172              3115.6277              3120.2742
 Red. masses --      1.1032                 1.1022                 1.0867
 Frc consts  --      6.3061                 6.3037                 6.2334
 IR Inten    --     12.5105                23.1301                 4.7664

                    124                    125                    126
                      A                      A                      A
 Frequencies --   3132.4916              3133.4091              3157.6799
 Red. masses --      1.0887                 1.1044                 1.1056
 Frc consts  --      6.2944                 6.3889                 6.4951
 IR Inten    --     11.7534                23.5156                 2.8043

                    127                    128                    129
                      A                      A                      A
 Frequencies --   3162.6073              3169.6506              3179.6000
 Red. masses --      1.1046                 1.0848                 1.0882
 Frc consts  --      6.5094                 6.4212                 6.4821
 IR Inten    --      4.7905                 0.1526                 6.7727

                    130                    131                    132
                      A                      A                      A
 Frequencies --   3188.6072              3194.9318              3199.8511
 Red. masses --      1.0916                 1.0940                 1.0987
 Frc consts  --      6.5391                 6.5795                 6.6283
 IR Inten    --     14.1538                 6.4892                10.8679

 - Thermochemistry -
 -------------------
 Temperature   298.150 Kelvin.  Pressure   1.00000 Atm.
 Atom     1 has atomic number  6 and mass  12.00000

 Molecular mass:   434.99839 amu.
 Principal axes and moments of inertia in atomic units:
                           1         2         3
     Eigenvalues --  9015.28703********************
           X            0.99585   0.08978   0.01481
           Y           -0.09005   0.99576   0.01861
           Z           -0.01308  -0.01986   0.99972
 This molecule is an asymmetric top.
 Rotational symmetry number  1.
 Warning -- assumption of classical behavior for rotation
           may cause significant error
 Rotational temperatures (Kelvin)      0.00961     0.00747     0.00685
 Rotational constants (GHZ):           0.20019     0.15564     0.14272
    1 imaginary frequencies ignored.
 Zero-point vibrational energy     943429.2 (Joules/Mol)
                                  225.48498 (Kcal/Mol)
 Warning -- explicit consideration of  40 degrees of freedom as
           vibrations may cause significant error
 Vibrational temperatures:     33.82    40.12    55.78    68.58    69.58
          (Kelvin)             90.20   103.44   112.41   123.21   146.92
                              149.47   165.19   175.07   177.16   192.63
                              238.69   245.77   279.52   280.77   301.98
                              322.73   344.06   365.49   369.91   373.36
                              425.69   451.89   490.92   500.18   525.62
                              540.73   563.79   576.02   578.68   590.13
                              597.13   673.38   739.18   755.10   784.79
                              897.27   905.32   953.97   985.78  1016.42
                             1069.45  1090.89  1127.66  1141.29  1160.62
                             1215.54  1217.06  1254.65  1261.74  1312.72
                             1329.78  1345.36  1352.88  1383.02  1409.84
                             1411.82  1440.90  1446.59  1450.06  1463.05
                             1492.69  1507.83  1514.72  1526.27  1577.23
                             1585.97  1605.77  1629.77  1642.49  1669.35
                             1682.45  1691.16  1724.01  1739.62  1760.81
                             1798.68  1816.88  1846.27  1867.26  1878.18
                             1894.50  1907.12  1919.76  1956.41  1962.88
                             1980.85  2000.05  2021.77  2026.95  2038.07
                             2092.68  2111.96  2120.15  2123.54  2124.74
                             2140.39  2140.88  2156.49  2168.63  2173.90
                             2193.06  2337.78  2370.83  2550.16  4343.21
                             4357.93  4373.87  4400.41  4401.08  4410.10
                             4434.98  4456.09  4463.64  4476.06  4481.53
                             4482.69  4489.38  4506.96  4508.28  4543.20
                             4550.29  4560.42  4574.74  4587.69  4596.79
                             4603.87

 Zero-point correction=                           0.359333 (Hartree/Particle)
 Thermal correction to Energy=                    0.386173
 Thermal correction to Enthalpy=                  0.387117
 Thermal correction to Gibbs Free Energy=         0.298474
 Sum of electronic and zero-point Energies=          -3531.062836
 Sum of electronic and thermal Energies=             -3531.035996
 Sum of electronic and thermal Enthalpies=           -3531.035052
 Sum of electronic and thermal Free Energies=        -3531.123696

                     E (Thermal)             CV                S
                      KCal/Mol        Cal/Mol-Kelvin    Cal/Mol-Kelvin
 Total                  242.327             96.841            186.566
 Electronic               0.000              0.000              3.561
 Translational            0.889              2.981             44.100
 Rotational               0.889              2.981             35.534
 Vibrational            240.550             90.880            103.371
 Vibration     1          0.593              1.985              6.313
 Vibration     2          0.593              1.984              5.974
 Vibration     3          0.594              1.981              5.321
 Vibration     4          0.595              1.978              4.912
 Vibration     5          0.595              1.978              4.883
 Vibration     6          0.597              1.972              4.371
 Vibration     7          0.598              1.967              4.101
 Vibration     8          0.599              1.964              3.937
 Vibration     9          0.601              1.959              3.757
 Vibration    10          0.604              1.947              3.413
 Vibration    11          0.605              1.946              3.380
 Vibration    12          0.608              1.937              3.186
 Vibration    13          0.609              1.931              3.074
 Vibration    14          0.610              1.930              3.051
 Vibration    15          0.613              1.919              2.889
 Vibration    16          0.624              1.884              2.481
 Vibration    17          0.626              1.878              2.426
 Vibration    18          0.635              1.848              2.187
 Vibration    19          0.636              1.847              2.178
 Vibration    20          0.642              1.826              2.045
 Vibration    21          0.649              1.804              1.924
 Vibration    22          0.657              1.781              1.809
 Vibration    23          0.665              1.756              1.702
 Vibration    24          0.667              1.751              1.681
 Vibration    25          0.668              1.747              1.665
 Vibration    26          0.690              1.681              1.440
 Vibration    27          0.702              1.647              1.341
 Vibration    28          0.721              1.593              1.207
 Vibration    29          0.725              1.580              1.177
 Vibration    30          0.739              1.544              1.099
 Vibration    31          0.747              1.522              1.056
 Vibration    32          0.759              1.488              0.993
 Vibration    33          0.766              1.469              0.961
 Vibration    34          0.768              1.465              0.955
 Vibration    35          0.774              1.448              0.926
 Vibration    36          0.778              1.438              0.909
 Vibration    37          0.825              1.321              0.743
 Vibration    38          0.869              1.220              0.625
 Vibration    39          0.880              1.195              0.599
 Vibration    40          0.901              1.150              0.554

                           ! Non-Optimized Parameters !
 Normal termination of Gaussian 16 at Sun Jun 20 08:10:30 2021.

 ----------------------------------------------------------------------
 #p ub3lyp jul-cc-pvdz pop=cm5 scrf=(pcm,solvent=dichloroethane) guess=
 read geom=allcheck
 ----------------------------------------------------------------------

 Structure from the checkpoint file:  "checkpoint.chk"
 -----
 title
 -----
 Charge =  0 Multiplicity = 6

 SCF Done:  E(UB3LYP) =  -3531.44206503     A.U. after   17 cycles
 Normal termination of Gaussian 16 at Sun Jun 20 08:35:04 2021.
 Gaussian 16:  ES64L-G16RevA.03 25-Dec-2016

 ----------------------------------------------------------------------
 #p ub3lyp jul-cc-pvdz pop=cm5 scrf=(pcm,solvent=water) guess=read geom
 =allcheck
 ----------------------------------------------------------------------

 Structure from the checkpoint file:  "checkpoint.chk"
 -----
 title
 -----
 Charge =  0 Multiplicity = 6

                         Standard orientation:
 ---------------------------------------------------------------------
 Center     Atomic      Atomic             Coordinates (Angstroms)
 Number     Number       Type             X           Y           Z
 ---------------------------------------------------------------------
      1          6           0        1.750238   -2.130050    1.672025
      2          6           0        1.168001   -1.016292    1.050440
      3          6           0        1.199149    0.217389    1.719776
      4          6           0        1.770986    0.325247    2.987986
      5          6           0        2.340846   -0.793106    3.603181
      6          6           0        2.335112   -2.020074    2.937071
      7          6           0        0.583217   -1.112048   -0.337689
      8          6           0        1.516055   -0.670095   -1.511549
      9          6           0        2.098159   -1.986122   -2.061044
     10          6           0        0.923690   -2.985383   -2.088590
     11          6           0        0.064682   -2.642718   -0.865100
     12          6           0       -1.374796   -2.130275   -1.024431
     13          6           0       -1.949760   -1.906733   -2.388831
     14          8           0       -0.772691   -0.529690   -0.462646
     15         26           0       -1.934160    0.921108    0.277386
     16         17           0       -3.744766    0.859350   -0.996758
     17          6           0       -2.343353   -2.599489    0.019273
     18         17           0       -0.924969    2.870276    0.109084
     19         17           0       -2.446729    0.387187    2.351995
     20          1           0        0.779117    1.108481    1.255169
     21          1           0        1.768323    1.290252    3.496237
     22          1           0        2.788417   -0.707434    4.594343
     23          1           0        2.784103   -2.899405    3.400956
     24          1           0        1.767336   -3.097135    1.170826
     25          1           0        0.869590   -0.192661   -2.258600
     26          6           0        2.616664    0.317125   -1.144513
     27          1           0        2.559618   -1.843477   -3.047195
     28          1           0        2.889827   -2.329699   -1.381655
     29          1           0        0.358028   -2.881315   -3.023158
     30          1           0        1.277911   -4.023775   -2.050084
     31          1           0        0.115819   -3.393361   -0.072561
     32          1           0       -2.591100   -3.646492   -0.226805
     33          1           0       -1.904531   -2.579646    1.022518
     34          1           0       -3.271580   -2.017297    0.009971
     35          1           0       -2.204972   -2.895264   -2.806173
     36          1           0       -2.866405   -1.310786   -2.329810
     37          1           0       -1.246078   -1.420291   -3.071215
     38          8           0        2.230868    1.583775   -1.374677
     39          8           0        3.708638    0.001395   -0.721449
     40          6           0        3.196118    2.623427   -1.047849
     41          6           0        2.621299    3.946875   -1.509547
     42          1           0        3.366436    2.598491    0.037206
     43          1           0        4.144672    2.380374   -1.544857
     44          1           0        3.324988    4.754154   -1.259832
     45          1           0        2.464142    3.949588   -2.597201
     46          1           0        1.662014    4.152178   -1.017051
 ---------------------------------------------------------------------

 SCF Done:  E(UB3LYP) =  -3531.44584200     A.U. after   14 cycles

 The electronic state is 6-A.
 Alpha  occ. eigenvalues -- -256.21483-101.52976-101.52857-101.52722 -30.20848
 Alpha  occ. eigenvalues --  -26.06226 -26.06066 -26.05963 -19.20287 -19.20161
 Alpha  occ. eigenvalues --  -19.15159 -10.32795 -10.30365 -10.29168 -10.24733
 Alpha  occ. eigenvalues --  -10.22450 -10.21893 -10.21567 -10.20505 -10.20337
 Alpha  occ. eigenvalues --  -10.20303 -10.20277 -10.20243 -10.20213 -10.20198
 Alpha  occ. eigenvalues --  -10.19859 -10.19841 -10.18580  -9.44695  -9.44585
 Alpha  occ. eigenvalues --   -9.44451  -7.20561  -7.20455  -7.20323  -7.20254
 Alpha  occ. eigenvalues --   -7.20233  -7.20146  -7.20114  -7.19998  -7.19994
 Alpha  occ. eigenvalues --   -3.68481  -2.46057  -2.45826  -2.45589  -1.12010
 Alpha  occ. eigenvalues --   -1.04427  -1.03553  -0.87633  -0.85716  -0.83573
 Alpha  occ. eigenvalues --   -0.80962  -0.80219  -0.80073  -0.78594  -0.77763
 Alpha  occ. eigenvalues --   -0.76124  -0.74606  -0.72552  -0.71123  -0.66393
 Alpha  occ. eigenvalues --   -0.63970  -0.62130  -0.60893  -0.59384  -0.56874
 Alpha  occ. eigenvalues --   -0.55969  -0.54100  -0.52597  -0.51306  -0.50512
 Alpha  occ. eigenvalues --   -0.49975  -0.49254  -0.48961  -0.48744  -0.48550
 Alpha  occ. eigenvalues --   -0.48145  -0.47635  -0.47073  -0.46308  -0.45985
 Alpha  occ. eigenvalues --   -0.45468  -0.44653  -0.43898  -0.43235  -0.42836
 Alpha  occ. eigenvalues --   -0.42019  -0.41210  -0.40437  -0.40038  -0.39692
 Alpha  occ. eigenvalues --   -0.39310  -0.38912  -0.37929  -0.37561  -0.37169
 Alpha  occ. eigenvalues --   -0.36844  -0.36604  -0.36112  -0.35692  -0.35428
 Alpha  occ. eigenvalues --   -0.34938  -0.34390  -0.34044  -0.32888  -0.31995
 Alpha  occ. eigenvalues --   -0.31569  -0.31433  -0.31365  -0.31261  -0.30503
 Alpha  occ. eigenvalues --   -0.30209  -0.30149  -0.29053  -0.26839  -0.26453
 Alpha virt. eigenvalues --   -0.05734  -0.03593  -0.02978  -0.01476  -0.01286
 Alpha virt. eigenvalues --   -0.00166  -0.00049   0.00116   0.01489   0.01657
 Alpha virt. eigenvalues --    0.01749   0.01859   0.02374   0.03228   0.03783

  Beta  occ. eigenvalues -- -256.21298-101.52781-101.52662-101.52526 -30.11937
  Beta  occ. eigenvalues --  -25.98699 -25.98672 -25.98601 -19.20287 -19.19754
  Beta  occ. eigenvalues --  -19.15157 -10.32795 -10.30354 -10.29141 -10.24733
  Beta  occ. eigenvalues --  -10.22436 -10.21885 -10.21563 -10.20504 -10.20337
  Beta  occ. eigenvalues --  -10.20303 -10.20277 -10.20242 -10.20210 -10.20198
  Beta  occ. eigenvalues --  -10.19858 -10.19839 -10.18579  -9.44504  -9.44394
  Beta  occ. eigenvalues --   -9.44258  -7.20251  -7.20136  -7.20005  -7.19981
  Beta  occ. eigenvalues --   -7.19970  -7.19874  -7.19860  -7.19732  -7.19728
  Beta  occ. eigenvalues --   -3.47691  -2.23993  -2.23889  -2.23853  -1.12009
  Beta  occ. eigenvalues --   -1.03679  -1.03537  -0.87587  -0.85591  -0.83536
  Beta  occ. eigenvalues --   -0.79706  -0.78891  -0.78717  -0.78569  -0.77717
  Beta  occ. eigenvalues --   -0.76116  -0.74586  -0.72532  -0.70968  -0.66351
  Beta  occ. eigenvalues --   -0.63934  -0.62112  -0.60852  -0.59237  -0.56812
  Beta  occ. eigenvalues --   -0.55405  -0.54072  -0.51926  -0.51211  -0.50042
  Beta  occ. eigenvalues --   -0.49614  -0.48872  -0.47525  -0.47109  -0.46383
  Beta  occ. eigenvalues --   -0.45570  -0.44656  -0.43900  -0.43278  -0.42842
  Beta  occ. eigenvalues --   -0.42034  -0.41201  -0.40417  -0.40038  -0.39663
  Beta  occ. eigenvalues --   -0.38953  -0.38793  -0.38003  -0.37583  -0.37217
  Beta  occ. eigenvalues --   -0.36910  -0.36817  -0.36486  -0.36454  -0.35991
  Beta  occ. eigenvalues --   -0.35605  -0.35392  -0.34108  -0.33771  -0.33630
  Beta  occ. eigenvalues --   -0.33037  -0.32847  -0.32003  -0.31684  -0.31133
  Beta  occ. eigenvalues --   -0.30384  -0.30108  -0.29028  -0.26827  -0.26422
  Beta virt. eigenvalues --   -0.15484  -0.15038  -0.14091  -0.13877  -0.13554
  Beta virt. eigenvalues --   -0.05271  -0.03507  -0.02945  -0.01366  -0.01247
  Beta virt. eigenvalues --   -0.00102  -0.00026   0.00140   0.01512   0.01682

 Mulliken charges and spin densities:
               1          2
     1  C   -0.248318   0.005337
     2  C    3.274056  -0.004493
     3  C   -0.390854  -0.015495
     4  C    0.032690   0.000203
     5  C    0.240140  -0.000304
     6  C   -0.177658   0.001473
     7  C   -2.340822   0.029599
     8  C    0.223034  -0.000036
     9  C    0.493549   0.001316
    10  C    0.565345   0.001227
    11  C    0.833669   0.003189
    12  C   -0.829675   0.011437
    13  C    0.432481  -0.003341
    14  O   -0.253748   0.111025
    15  Fe   0.574306   4.055279
    16  Cl  -0.479942   0.266964
    17  C    0.476526   0.001169
    18  Cl  -0.445119   0.268855
    19  Cl  -0.448057   0.261995
    20  H   -0.314241   0.000840
    21  H   -0.163105   0.000013
    22  H   -0.162812   0.000029
    23  H   -0.158773   0.000032
    24  H   -0.196800   0.000005
    25  H   -0.210535   0.000000
    26  C    1.021871   0.001609
    27  H   -0.141237   0.000377
    28  H   -0.051488   0.000001
    29  H   -0.096337  -0.000030
    30  H   -0.122621   0.000413
    31  H   -0.234045   0.001207
    32  H    0.025283   0.000140
    33  H    0.052437  -0.000687
    34  H    0.034547   0.000105
    35  H    0.046870   0.002118
    36  H    0.026987  -0.000441
    37  H    0.044238  -0.000273
    38  O   -0.697441  -0.000986
    39  O   -0.660758   0.000654
    40  C    0.411832  -0.001010
    41  C    0.060087   0.001101
    42  H   -0.041170   0.000022
    43  H   -0.049039  -0.000005
    44  H   -0.003641   0.000070
    45  H    0.021464  -0.000004
    46  H    0.026821  -0.000698
 Sum of Mulliken charges =  -0.00000   5.00000

 Dipole moment (field-independent basis, Debye):
    X=              3.7404    Y=             -8.9753    Z=             -4.5966  Tot=             10.7552
 Quadrupole moment (field-independent basis, Debye-Ang):
   XX=           -199.1862   YY=           -153.9734   ZZ=           -167.3749
   XY=             19.9853   XZ=              7.9632   YZ=              6.2088

 Normal termination of Gaussian 16 at Sun Jun 20 08:56:20 2021.
