 Gaussian 16, Revision A.03,

 -----------------------------------------------------------
 #p opt=modredundant freq=noraman ub3lyp jul-cc-pvdz pop=cm5
 -----------------------------------------------------------

 -----
 title
 -----
 Symbolic Z-matrix:
 Charge =  0 Multiplicity = 6

 SCF Done:  E(UB3LYP) =  -3531.41174259     A.U. after   26 cycles
 SCF Done:  E(UB3LYP) =  -3531.41177922     A.U. after   16 cycles
 SCF Done:  E(UB3LYP) =  -3531.41110439     A.U. after   18 cycles
 SCF Done:  E(UB3LYP) =  -3531.41079721     A.U. after   15 cycles
 SCF Done:  E(UB3LYP) =  -3531.40989533     A.U. after   15 cycles
 SCF Done:  E(UB3LYP) =  -3531.41179433     A.U. after   11 cycles
 SCF Done:  E(UB3LYP) =  -3531.41229242     A.U. after   16 cycles
 SCF Done:  E(UB3LYP) =  -3531.41224182     A.U. after   15 cycles
 SCF Done:  E(UB3LYP) =  -3531.41232125     A.U. after   15 cycles
 SCF Done:  E(UB3LYP) =  -3531.41233560     A.U. after   13 cycles
 SCF Done:  E(UB3LYP) =  -3531.41233864     A.U. after   11 cycles
 SCF Done:  E(UB3LYP) =  -3531.41233883     A.U. after    9 cycles
 SCF Done:  E(UB3LYP) =  -3531.41233893     A.U. after   11 cycles
 SCF Done:  E(UB3LYP) =  -3531.41233899     A.U. after   10 cycles
 SCF Done:  E(UB3LYP) =  -3531.41233904     A.U. after   11 cycles
 SCF Done:  E(UB3LYP) =  -3531.41233908     A.U. after   11 cycles
 SCF Done:  E(UB3LYP) =  -3531.41233911     A.U. after    9 cycles
 Optimization completed.
    -- Stationary point found.
 Normal termination of Gaussian 16 at Sun Jun 20 04:53:52 2021.

 ----------------------------------------------------------------------
 #P Geom=AllCheck Guess=TCheck SCRF=Check GenChk UB3LYP/Jul-CC-pVDZ Fre
 q
 ----------------------------------------------------------------------

 Structure from the checkpoint file:  "checkpoint.chk"
 -----
 title
 -----
 Charge =  0 Multiplicity = 6

 SCF Done:  E(UB3LYP) =  -3531.41233911     A.U. after    1 cycles

  Exact polarizability: 287.646  -0.331 307.598  23.266   9.564 282.770
 Approx polarizability: 421.574  -1.773 487.307  43.227  13.304 446.779

 ******    1 imaginary frequencies (negative Signs) ******

                      1                      2                      3
                      A                      A                      A
 Frequencies --   -265.8796                25.4961                28.5863
 Red. masses --      9.2530                 8.1125                 5.2142
 Frc consts  --      0.3854                 0.0031                 0.0025
 IR Inten    --    212.4265                 0.0553                 1.2892

                      4                      5                      6
                      A                      A                      A
 Frequencies --     32.3919                50.4041                55.0073
 Red. masses --      5.8347                 5.8041                 3.9236
 Frc consts  --      0.0036                 0.0087                 0.0070
 IR Inten    --      0.7143                 2.2712                 0.9658

                      7                      8                      9
                      A                      A                      A
 Frequencies --     65.8641                69.4574                77.3676
 Red. masses --      2.8643                 4.3600                 7.4116
 Frc consts  --      0.0073                 0.0124                 0.0261
 IR Inten    --      0.0974                 1.0055                 0.7846

                     10                     11                     12
                      A                      A                      A
 Frequencies --     84.7618                92.6412               103.4860
 Red. masses --      8.4622                12.0063                 6.7804
 Frc consts  --      0.0358                 0.0607                 0.0428
 IR Inten    --      1.7046                 0.5268                 0.9851

                     13                     14                     15
                      A                      A                      A
 Frequencies --    113.4032               119.3829               123.0715
 Red. masses --     11.7025                 4.7846                 5.6171
 Frc consts  --      0.0887                 0.0402                 0.0501
 IR Inten    --      1.1257                 5.2864                 7.7915

                     16                     17                     18
                      A                      A                      A
 Frequencies --    130.6459               145.1705               162.5421
 Red. masses --      6.5330                 3.5725                 2.5205
 Frc consts  --      0.0657                 0.0444                 0.0392
 IR Inten    --      2.3726                 1.7418                 2.6436

                     19                     20                     21
                      A                      A                      A
 Frequencies --    176.7922               183.9439               200.9757
 Red. masses --      2.7438                 1.3707                 2.3323
 Frc consts  --      0.0505                 0.0273                 0.0555
 IR Inten    --      3.4098                 6.1082                 1.1442

                     22                     23                     24
                      A                      A                      A
 Frequencies --    212.0570               222.7778               238.8497
 Red. masses --      1.3889                 3.8171                 3.2598
 Frc consts  --      0.0368                 0.1116                 0.1096
 IR Inten    --      6.4578                 7.9220                 2.7879

                     25                     26                     27
                      A                      A                      A
 Frequencies --    248.7145               261.3421               288.0884
 Red. masses --      2.3870                 1.9776                 3.6834
 Frc consts  --      0.0870                 0.0796                 0.1801
 IR Inten    --      0.8535                 1.0014                 4.1498

                     28                     29                     30
                      A                      A                      A
 Frequencies --    308.3775               337.7538               343.4218
 Red. masses --      2.7393                17.7694                 4.4313
 Frc consts  --      0.1535                 1.1943                 0.3079
 IR Inten    --      0.7996                33.0777                 8.9553

                     31                     32                     33
                      A                      A                      A
 Frequencies --    365.6692               376.8012               383.2789
 Red. masses --      3.6658                22.4949                 3.4105
 Frc consts  --      0.2888                 1.8817                 0.2952
 IR Inten    --      8.4479                65.0163                15.3852

                     34                     35                     36
                      A                      A                      A
 Frequencies --    388.5194               393.1238               406.3034
 Red. masses --      5.9884                17.0526                 3.7314
 Frc consts  --      0.5326                 1.5527                 0.3629
 IR Inten    --     43.1778                70.0960                 6.8986

                     37                     38                     39
                      A                      A                      A
 Frequencies --    411.6860               464.1508               511.6480
 Red. masses --      2.9483                 3.6326                 2.8839
 Frc consts  --      0.2944                 0.4611                 0.4448
 IR Inten    --      0.9445                 2.4130                 1.8174

                     40                     41                     42
                      A                      A                      A
 Frequencies --    542.5384               557.8480               624.4017
 Red. masses --      3.7531                 2.4495                 5.0458
 Frc consts  --      0.6509                 0.4491                 1.1591
 IR Inten    --     25.1294                 2.2135                10.2085

                     43                     44                     45
                      A                      A                      A
 Frequencies --    632.1333               668.4237               694.8103
 Red. masses --      5.0635                 3.7764                 4.3906
 Frc consts  --      1.1921                 0.9941                 1.2488
 IR Inten    --     15.5253                10.2200                16.1210

                     46                     47                     48
                      A                      A                      A
 Frequencies --    707.4202               754.8744               778.3829
 Red. masses --      1.5975                 2.6453                 4.8143
 Frc consts  --      0.4710                 0.8881                 1.7186
 IR Inten    --     40.1268                22.0855                 1.8591

                     49                     50                     51
                      A                      A                      A
 Frequencies --    784.3076               793.0772               808.5823
 Red. masses --      2.9389                 3.2817                 1.2069
 Frc consts  --      1.0651                 1.2161                 0.4649
 IR Inten    --     22.2303                14.2506                 0.3452

                     52                     53                     54
                      A                      A                      A
 Frequencies --    843.1894               846.0436               855.5456
 Red. masses --      1.5949                 1.3720                 1.4148
 Frc consts  --      0.6681                 0.5786                 0.6102
 IR Inten    --      9.3851                 1.7653                10.5906

                     55                     56                     57
                      A                      A                      A
 Frequencies --    872.3179               915.6369               930.5507
 Red. masses --      2.5990                 1.9195                 1.8162
 Frc consts  --      1.1652                 0.9482                 0.9266
 IR Inten    --      9.9426                 6.9662                 2.5096

                     58                     59                     60
                      A                      A                      A
 Frequencies --    944.1232               961.7150               970.8430
 Red. masses --      2.1870                 3.5171                 2.7363
 Frc consts  --      1.1486                 1.9166                 1.5195
 IR Inten    --     22.5832                 3.8348                86.9004

                     61                     62                     63
                      A                      A                      A
 Frequencies --    981.1111               999.6945              1002.0675
 Red. masses --      1.3573                 1.4843                 1.5419
 Frc consts  --      0.7698                 0.8740                 0.9122
 IR Inten    --      0.2650                 3.7425                36.0969

                     64                     65                     66
                      A                      A                      A
 Frequencies --   1003.7295              1005.4376              1020.4965
 Red. masses --      2.8418                 3.6288                 2.7931
 Frc consts  --      1.6869                 2.1613                 1.7138
 IR Inten    --     21.6798                43.9699                21.7955

                     67                     68                     69
                      A                      A                      A
 Frequencies --   1035.3476              1044.3036              1051.7078
 Red. masses --      2.6148                 2.4725                 2.6138
 Frc consts  --      1.6515                 1.5887                 1.7034
 IR Inten    --     38.9369                56.0283                 1.2466

                     70                     71                     72
                      A                      A                      A
 Frequencies --   1061.8635              1084.4147              1103.3484
 Red. masses --      2.2828                 2.1047                 2.2258
 Frc consts  --      1.5165                 1.4583                 1.5965
 IR Inten    --      3.0604                47.1587                 3.8883

                     73                     74                     75
                      A                      A                      A
 Frequencies --   1118.2790              1133.3301              1159.2123
 Red. masses --      1.7393                 2.1738                 1.6838
 Frc consts  --      1.2815                 1.6450                 1.3331
 IR Inten    --      5.7085                 6.9428                32.3130

                     76                     77                     78
                      A                      A                      A
 Frequencies --   1169.7161              1174.7304              1183.4274
 Red. masses --      1.5575                 1.0991                 1.5109
 Frc consts  --      1.2555                 0.8937                 1.2468
 IR Inten    --      2.6876                 0.7493                 6.1852

                     79                     80                     81
                      A                      A                      A
 Frequencies --   1197.6262              1209.2890              1226.8478
 Red. masses --      1.8837                 1.1643                 2.0263
 Frc consts  --      1.5919                 1.0032                 1.7969
 IR Inten    --    110.6090                 4.6903               138.1218

                     82                     83                     84
                      A                      A                      A
 Frequencies --   1254.5277              1259.7442              1283.1079
 Red. masses --      1.7190                 1.8460                 1.1057
 Frc consts  --      1.5940                 1.7260                 1.0725
 IR Inten    --     35.3627                39.0686                 1.4377

                     85                     86                     87
                      A                      A                      A
 Frequencies --   1293.5937              1308.7376              1316.3899
 Red. masses --      1.6274                 1.9851                 1.4122
 Frc consts  --      1.6045                 2.0032                 1.4419
 IR Inten    --     68.3859                12.8308                 0.9217

                     88                     89                     90
                      A                      A                      A
 Frequencies --   1322.7982              1335.2030              1359.4010
 Red. masses --      1.6102                 2.1691                 2.2111
 Frc consts  --      1.6600                 2.2783                 2.4074
 IR Inten    --     51.5075                12.4290                 0.6679

                     91                     92                     93
                      A                      A                      A
 Frequencies --   1364.9426              1367.7105              1379.1058
 Red. masses --      1.2300                 1.3505                 1.2053
 Frc consts  --      1.3501                 1.4884                 1.3507
 IR Inten    --     35.7005                15.2460                47.5726

                     94                     95                     96
                      A                      A                      A
 Frequencies --   1393.2988              1407.4133              1417.2936
 Red. masses --      1.5831                 1.3746                 1.5166
 Frc consts  --      1.8108                 1.6043                 1.7948
 IR Inten    --     59.5875                20.8374                 6.8568

                     97                     98                     99
                      A                      A                      A
 Frequencies --   1433.1911              1455.2498              1468.3762
 Red. masses --      1.1700                 1.1224                 2.2329
 Frc consts  --      1.4159                 1.4004                 2.8366
 IR Inten    --      3.2513                 0.8638                 8.1909

                    100                    101                    102
                      A                      A                      A
 Frequencies --   1474.0526              1478.7881              1487.7355
 Red. masses --      1.0389                 1.2287                 1.0858
 Frc consts  --      1.3300                 1.5831                 1.4160
 IR Inten    --      3.6795                 4.4922                 5.2546

                    103                    104                    105
                      A                      A                      A
 Frequencies --   1488.7889              1498.5313              1507.6273
 Red. masses --      1.0532                 1.1008                 1.0835
 Frc consts  --      1.3754                 1.4564                 1.4511
 IR Inten    --      0.5552                15.3152                 5.8071

                    106                    107                    108
                      A                      A                      A
 Frequencies --   1509.5392              1523.2645              1625.3798
 Red. masses --      1.0969                 2.2152                 5.6496
 Frc consts  --      1.4727                 3.0284                 8.7938
 IR Inten    --      2.3650                 4.1663                 0.8186

                    109                    110                    111
                      A                      A                      A
 Frequencies --   1646.9810              1771.9428              2984.4886
 Red. masses --      5.7711                11.6709                 1.0536
 Frc consts  --      9.2233                21.5901                 5.5291
 IR Inten    --      0.1735               214.2818                 5.5580

                    112                    113                    114
                      A                      A                      A
 Frequencies --   3004.1302              3039.0558              3058.4459
 Red. masses --      1.0502                 1.0355                 1.0584
 Frc consts  --      5.5840                 5.6350                 5.8329
 IR Inten    --      8.0370                21.6775                14.2083

                    115                    116                    117
                      A                      A                      A
 Frequencies --   3061.2282              3069.6858              3077.3661
 Red. masses --      1.0605                 1.0623                 1.0843
 Frc consts  --      5.8552                 5.8975                 6.0499
 IR Inten    --     22.5727                22.9514                10.5055

                    118                    119                    120
                      A                      A                      A
 Frequencies --   3088.1259              3094.6951              3102.4390
 Red. masses --      1.0849                 1.1004                 1.1065
 Frc consts  --      6.0959                 6.2093                 6.2746
 IR Inten    --     12.8088                 6.0292                 8.3839

                    121                    122                    123
                      A                      A                      A
 Frequencies --   3103.9137              3109.9794              3114.9520
 Red. masses --      1.0756                 1.0911                 1.1025
 Frc consts  --      6.1052                 6.2178                 6.3028
 IR Inten    --      1.3885                 5.0776                20.0149

                    124                    125                    126
                      A                      A                      A
 Frequencies --   3120.6433              3133.6174              3165.5480
 Red. masses --      1.1037                 1.1045                 1.1066
 Frc consts  --      6.3328                 6.3899                 6.5334
 IR Inten    --     25.1180                18.5484                 0.5603

                    127                    128                    129
                      A                      A                      A
 Frequencies --   3166.7528              3169.1272              3176.5876
 Red. masses --      1.0849                 1.1015                 1.0879
 Frc consts  --      6.4103                 6.5181                 6.4678
 IR Inten    --      2.3000                 4.6108                 5.4580

                    130                    131                    132
                      A                      A                      A
 Frequencies --   3185.2334              3194.7378              3202.0919
 Red. masses --      1.0925                 1.0958                 1.0961
 Frc consts  --      6.5307                 6.5894                 6.6216
 IR Inten    --     19.4814                 8.2027                 7.4038

 - Thermochemistry -
 -------------------
 Temperature   298.150 Kelvin.  Pressure   1.00000 Atm.
 Atom     1 has atomic number  6 and mass  12.00000

 Molecular mass:   434.99839 amu.
 Principal axes and moments of inertia in atomic units:
                           1         2         3
     Eigenvalues --  9024.14625********************
           X            0.99714   0.07383   0.01639
           Y           -0.07399   0.99722   0.00927
           Z           -0.01566  -0.01046   0.99982
 This molecule is an asymmetric top.
 Rotational symmetry number  1.
 Warning -- assumption of classical behavior for rotation
           may cause significant error
 Rotational temperatures (Kelvin)      0.00960     0.00755     0.00687
 Rotational constants (GHZ):           0.19999     0.15730     0.14324
    1 imaginary frequencies ignored.
 Zero-point vibrational energy     942132.5 (Joules/Mol)
                                  225.17508 (Kcal/Mol)
 Warning -- explicit consideration of  40 degrees of freedom as
           vibrations may cause significant error
 Vibrational temperatures:     36.68    41.13    46.60    72.52    79.14
          (Kelvin)             94.76    99.93   111.31   121.95   133.29
                              148.89   163.16   171.77   177.07   187.97
                              208.87   233.86   254.36   264.65   289.16
                              305.10   320.53   343.65   357.84   376.01
                              414.49   443.69   485.95   494.11   526.12
                              542.13   551.45   558.99   565.62   584.58
                              592.32   667.81   736.15   780.59   802.62
                              898.37   909.50   961.71   999.68  1017.82
                             1086.10  1119.92  1128.44  1141.06  1163.37
                             1213.16  1217.27  1230.94  1255.07  1317.40
                             1338.85  1358.38  1383.69  1396.83  1411.60
                             1438.34  1441.75  1444.14  1446.60  1468.27
                             1489.63  1502.52  1513.17  1527.78  1560.23
                             1587.47  1608.95  1630.61  1667.85  1682.96
                             1690.17  1702.69  1723.12  1739.90  1765.16
                             1804.99  1812.49  1846.11  1861.19  1882.98
                             1893.99  1903.21  1921.06  1955.87  1963.85
                             1967.83  1984.23  2004.65  2024.95  2039.17
                             2062.04  2093.78  2112.67  2120.83  2127.65
                             2140.52  2142.04  2156.05  2169.14  2171.89
                             2191.64  2338.56  2369.64  2549.43  4294.01
                             4322.27  4372.52  4400.42  4404.42  4416.59
                             4427.64  4443.12  4452.58  4463.72  4465.84
                             4474.57  4481.72  4489.91  4508.58  4554.52
                             4556.25  4559.67  4570.40  4582.84  4596.52
                             4607.10

 Zero-point correction=                           0.358839 (Hartree/Particle)
 Thermal correction to Energy=                    0.385903
 Thermal correction to Enthalpy=                  0.386847
 Thermal correction to Gibbs Free Energy=         0.297586
 Sum of electronic and zero-point Energies=          -3531.053500
 Sum of electronic and thermal Energies=             -3531.026436
 Sum of electronic and thermal Enthalpies=           -3531.025492
 Sum of electronic and thermal Free Energies=        -3531.114753

                     E (Thermal)             CV                S
                      KCal/Mol        Cal/Mol-Kelvin    Cal/Mol-Kelvin
 Total                  242.158             96.941            187.865
 Electronic               0.000              0.000              3.561
 Translational            0.889              2.981             44.100
 Rotational               0.889              2.981             35.521
 Vibrational            240.380             90.979            104.682
 Vibration     1          0.593              1.985              6.152
 Vibration     2          0.593              1.984              5.925
 Vibration     3          0.594              1.983              5.677
 Vibration     4          0.595              1.977              4.801
 Vibration     5          0.596              1.976              4.629
 Vibration     6          0.597              1.971              4.273
 Vibration     7          0.598              1.969              4.169
 Vibration     8          0.599              1.964              3.957
 Vibration     9          0.601              1.960              3.777
 Vibration    10          0.602              1.954              3.604
 Vibration    11          0.605              1.946              3.388
 Vibration    12          0.607              1.938              3.210
 Vibration    13          0.609              1.933              3.110
 Vibration    14          0.610              1.930              3.052
 Vibration    15          0.612              1.923              2.937
 Vibration    16          0.617              1.908              2.735
 Vibration    17          0.623              1.888              2.520
 Vibration    18          0.628              1.871              2.362
 Vibration    19          0.631              1.862              2.288
 Vibration    20          0.638              1.839              2.124
 Vibration    21          0.643              1.823              2.026
 Vibration    22          0.648              1.806              1.936
 Vibration    23          0.657              1.781              1.811
 Vibration    24          0.662              1.765              1.740
 Vibration    25          0.669              1.744              1.653
 Vibration    26          0.685              1.696              1.485
 Vibration    27          0.698              1.658              1.371
 Vibration    28          0.718              1.600              1.223
 Vibration    29          0.722              1.589              1.196
 Vibration    30          0.739              1.543              1.098
 Vibration    31          0.747              1.520              1.052
 Vibration    32          0.752              1.506              1.026
 Vibration    33          0.757              1.495              1.006
 Vibration    34          0.760              1.485              0.988
 Vibration    35          0.771              1.457              0.940
 Vibration    36          0.776              1.445              0.921
 Vibration    37          0.822              1.330              0.754
 Vibration    38          0.867              1.224              0.630
 Vibration    39          0.898              1.156              0.560
 Vibration    40          0.913              1.123              0.528

                           ! Non-Optimized Parameters !
 Normal termination of Gaussian 16 at Sun Jun 20 13:51:19 2021.

 ----------------------------------------------------------------------
 #p ub3lyp jul-cc-pvdz pop=cm5 scrf=(pcm,solvent=dichloroethane) guess=
 read geom=allcheck
 ----------------------------------------------------------------------

 Structure from the checkpoint file:  "checkpoint.chk"
 -----
 title
 -----
 Charge =  0 Multiplicity = 6

 SCF Done:  E(UB3LYP) =  -3531.43723393     A.U. after   18 cycles
 Normal termination of Gaussian 16 at Sun Jun 20 14:17:21 2021.
 Gaussian 16:  ES64L-G16RevA.03 25-Dec-2016

 ----------------------------------------------------------------------
 #p ub3lyp jul-cc-pvdz pop=cm5 scrf=(pcm,solvent=water) guess=read geom
 =allcheck
 ----------------------------------------------------------------------

 Structure from the checkpoint file:  "checkpoint.chk"
 -----
 title
 -----
 Charge =  0 Multiplicity = 6

                         Standard orientation:
 ---------------------------------------------------------------------
 Center     Atomic      Atomic             Coordinates (Angstroms)
 Number     Number       Type             X           Y           Z
 ---------------------------------------------------------------------
      1          6           0        2.042523   -1.872629    1.669982
      2          6           0        1.302315   -0.853003    1.053344
      3          6           0        1.236115    0.398319    1.684028
      4          6           0        1.871751    0.614926    2.907725
      5          6           0        2.598583   -0.410569    3.518707
      6          6           0        2.686501   -1.654838    2.891627
      7          6           0        0.644009   -1.057379   -0.302409
      8          6           0        1.577544   -0.671475   -1.511926
      9          6           0        2.309066   -1.973401   -1.860947
     10          6           0        1.241668   -3.081326   -1.723394
     11          6           0        0.259901   -2.572557   -0.644021
     12          6           0       -1.193507   -2.349329   -1.029907
     13          6           0       -1.625155   -2.117912   -2.426779
     14          8           0       -0.649680   -0.413976   -0.422731
     15         26           0       -1.967996    0.782599    0.317663
     16         17           0       -3.688436    0.534640   -1.089113
     17          6           0       -2.227099   -2.770522   -0.057955
     18         17           0       -1.288031    2.883752    0.377563
     19         17           0       -2.526176    0.023117    2.325276
     20          1           0        0.686760    1.218801    1.225534
     21          1           0        1.791802    1.592088    3.385669
     22          1           0        3.092695   -0.240790    4.476332
     23          1           0        3.254874   -2.463919    3.352566
     24          1           0        2.136952   -2.853782    1.204097
     25          1           0        0.902209   -0.371942   -2.323780
     26          6           0        2.528559    0.488814   -1.259878
     27          1           0        2.754693   -1.936987   -2.863245
     28          1           0        3.131359   -2.124415   -1.150042
     29          1           0        0.733610   -3.249738   -2.681926
     30          1           0        1.682963   -4.043276   -1.432934
     31          1           0        0.281385   -3.189125    0.259703
     32          1           0       -2.300704   -3.869851   -0.178083
     33          1           0       -1.928503   -2.574866    0.977668
     34          1           0       -3.208902   -2.332403   -0.266406
     35          1           0       -1.965495   -3.093147   -2.822341
     36          1           0       -2.491126   -1.442903   -2.440144
     37          1           0       -0.833082   -1.738159   -3.076776
     38          8           0        1.931163    1.665591   -1.512922
     39          8           0        3.680211    0.368465   -0.898462
     40          6           0        2.730203    2.861687   -1.286361
     41          6           0        1.928204    4.049368   -1.777268
     42          1           0        2.949647    2.922928   -0.211622
     43          1           0        3.682310    2.745231   -1.820856
     44          1           0        2.500083    4.971387   -1.598024
     45          1           0        1.728947    3.970741   -2.855242
     46          1           0        0.969709    4.121204   -1.247186
 ---------------------------------------------------------------------

 SCF Done:  E(UB3LYP) =  -3531.44195692     A.U. after   14 cycles

 The electronic state is 6-A.
 Alpha  occ. eigenvalues -- -256.20653-101.52418-101.52225-101.52184 -30.20049
 Alpha  occ. eigenvalues --  -26.05339 -26.05321 -26.05185 -19.20267 -19.17849
 Alpha  occ. eigenvalues --  -19.15164 -10.32772 -10.32563 -10.28951 -10.24723
 Alpha  occ. eigenvalues --  -10.22746 -10.21735 -10.21590 -10.21570 -10.21401
 Alpha  occ. eigenvalues --  -10.20444 -10.20333 -10.20216 -10.20172 -10.20107
 Alpha  occ. eigenvalues --  -10.20086 -10.19799 -10.18529  -9.44143  -9.43942
 Alpha  occ. eigenvalues --   -9.43909  -7.20006  -7.19814  -7.19782  -7.19694
 Alpha  occ. eigenvalues --   -7.19682  -7.19488  -7.19477  -7.19457  -7.19445
 Alpha  occ. eigenvalues --   -3.67722  -2.45197  -2.45129  -2.44875  -1.11989
 Alpha  occ. eigenvalues --   -1.03547  -1.02892  -0.87968  -0.87104  -0.84343
 Alpha  occ. eigenvalues --   -0.80340  -0.79627  -0.79469  -0.78766  -0.77573
 Alpha  occ. eigenvalues --   -0.76068  -0.75148  -0.74023  -0.71775  -0.66424
 Alpha  occ. eigenvalues --   -0.63972  -0.62069  -0.60983  -0.59540  -0.56967
 Alpha  occ. eigenvalues --   -0.56259  -0.54610  -0.52895  -0.51302  -0.50255
 Alpha  occ. eigenvalues --   -0.49954  -0.49578  -0.48860  -0.48055  -0.47877
 Alpha  occ. eigenvalues --   -0.47697  -0.47490  -0.47115  -0.46546  -0.46160
 Alpha  occ. eigenvalues --   -0.45414  -0.44528  -0.44180  -0.43212  -0.42973
 Alpha  occ. eigenvalues --   -0.42490  -0.41675  -0.40710  -0.40563  -0.40288
 Alpha  occ. eigenvalues --   -0.39853  -0.38577  -0.38212  -0.37549  -0.37326
 Alpha  occ. eigenvalues --   -0.36854  -0.36211  -0.35994  -0.35795  -0.35626
 Alpha  occ. eigenvalues --   -0.34550  -0.34406  -0.33992  -0.32513  -0.31753
 Alpha  occ. eigenvalues --   -0.31145  -0.31089  -0.30869  -0.30655  -0.30144
 Alpha  occ. eigenvalues --   -0.29716  -0.29562  -0.28800  -0.26773  -0.26302
 Alpha virt. eigenvalues --   -0.11285  -0.03329  -0.02857  -0.01488  -0.01293
 Alpha virt. eigenvalues --   -0.00195  -0.00065   0.00104   0.01449   0.01661
 Alpha virt. eigenvalues --    0.01740   0.01830   0.02428   0.03262   0.03817

  Beta  occ. eigenvalues -- -256.20468-101.52239-101.52049-101.52002 -30.11119
  Beta  occ. eigenvalues --  -25.97886 -25.97828 -25.97800 -19.20267 -19.17248
  Beta  occ. eigenvalues --  -19.15161 -10.32772 -10.32565 -10.28921 -10.24723
  Beta  occ. eigenvalues --  -10.22728 -10.21719 -10.21590 -10.21566 -10.21392
  Beta  occ. eigenvalues --  -10.20441 -10.20331 -10.20215 -10.20171 -10.20107
  Beta  occ. eigenvalues --  -10.20086 -10.19797 -10.18528  -9.43967  -9.43770
  Beta  occ. eigenvalues --   -9.43730  -7.19714  -7.19512  -7.19475  -7.19450
  Beta  occ. eigenvalues --   -7.19439  -7.19258  -7.19247  -7.19210  -7.19208
  Beta  occ. eigenvalues --   -3.46900  -2.23229  -2.23097  -2.23044  -1.11987
  Beta  occ. eigenvalues --   -1.03543  -1.01749  -0.87752  -0.87080  -0.84300
  Beta  occ. eigenvalues --   -0.79185  -0.78784  -0.78364  -0.78225  -0.77503
  Beta  occ. eigenvalues --   -0.76058  -0.75118  -0.74014  -0.71603  -0.66355
  Beta  occ. eigenvalues --   -0.63933  -0.62042  -0.60951  -0.59359  -0.56930
  Beta  occ. eigenvalues --   -0.55743  -0.54561  -0.51961  -0.51219  -0.50162
  Beta  occ. eigenvalues --   -0.49731  -0.49014  -0.47882  -0.47454  -0.46552
  Beta  occ. eigenvalues --   -0.46162  -0.44639  -0.44180  -0.43260  -0.43010
  Beta  occ. eigenvalues --   -0.42563  -0.41629  -0.40672  -0.40498  -0.40284
  Beta  occ. eigenvalues --   -0.39841  -0.38350  -0.38087  -0.37732  -0.37283
  Beta  occ. eigenvalues --   -0.36842  -0.36594  -0.36003  -0.35909  -0.35852
  Beta  occ. eigenvalues --   -0.35769  -0.35462  -0.34487  -0.33283  -0.33199
  Beta  occ. eigenvalues --   -0.32709  -0.32309  -0.31996  -0.31616  -0.30436
  Beta  occ. eigenvalues --   -0.29757  -0.29709  -0.28737  -0.26765  -0.26262
  Beta virt. eigenvalues --   -0.14704  -0.14226  -0.13470  -0.13135  -0.12489
  Beta virt. eigenvalues --   -0.10578  -0.03252  -0.02830  -0.01388  -0.01252
  Beta virt. eigenvalues --   -0.00135  -0.00040   0.00130   0.01477   0.01682

 Mulliken charges and spin densities:
               1          2
     1  C   -0.341424   0.003912
     2  C    3.546028  -0.004091
     3  C   -0.440621  -0.011573
     4  C    0.028652   0.001017
     5  C    0.216042  -0.000264
     6  C   -0.138271   0.001220
     7  C   -2.895202   0.022191
     8  C    0.370430   0.003257
     9  C    0.548599   0.001648
    10  C    0.605897   0.001495
    11  C    1.088376   0.008510
    12  C   -0.820185   0.002568
    13  C    0.336575  -0.004792
    14  O   -0.304703   0.187479
    15  Fe   0.632173   4.051955
    16  Cl  -0.522082   0.238852
    17  C    0.442117   0.002252
    18  Cl  -0.473653   0.248441
    19  Cl  -0.488665   0.241137
    20  H   -0.309465   0.000818
    21  H   -0.165392  -0.000016
    22  H   -0.162226   0.000028
    23  H   -0.158009   0.000079
    24  H   -0.205362   0.000020
    25  H   -0.204094   0.000135
    26  C    0.955816   0.003555
    27  H   -0.145163   0.000519
    28  H   -0.055937   0.000026
    29  H   -0.084428  -0.000020
    30  H   -0.106768   0.000405
    31  H   -0.204625   0.000746
    32  H    0.056843  -0.000517
    33  H    0.072108  -0.000587
    34  H    0.036288  -0.000492
    35  H    0.079846   0.001720
    36  H    0.070186  -0.000705
    37  H    0.058265  -0.000130
    38  O   -0.702180  -0.000763
    39  O   -0.654361   0.000869
    40  C    0.422689  -0.001198
    41  C    0.058404   0.000807
    42  H   -0.040929   0.000002
    43  H   -0.048586   0.000002
    44  H   -0.005082   0.000058
    45  H    0.021954  -0.000014
    46  H    0.030124  -0.000562
 Sum of Mulliken charges =  -0.00000   5.00000

 Dipole moment (field-independent basis, Debye):
    X=              4.3013    Y=            -11.4127    Z=             -5.6267  Tot=             13.4317
 Quadrupole moment (field-independent basis, Debye-Ang):
   XX=           -203.6541   YY=           -145.9879   ZZ=           -167.6865
   XY=             19.0894   XZ=             10.0452   YZ=              8.4818

 Normal termination of Gaussian 16 at Sun Jun 20 14:38:09 2021.
