 Gaussian 16, Revision A.03,

 -----------------------------------------------------------
 #p opt=modredundant freq=noraman ub3lyp jul-cc-pvdz pop=cm5
 -----------------------------------------------------------

 -----
 title
 -----
 Symbolic Z-matrix:
 Charge =  0 Multiplicity = 6

 SCF Done:  E(UB3LYP) =  -3531.41674176     A.U. after   26 cycles
 SCF Done:  E(UB3LYP) =  -3531.41481963     A.U. after   18 cycles
 SCF Done:  E(UB3LYP) =  -3531.41392093     A.U. after   18 cycles
 SCF Done:  E(UB3LYP) =  -3531.41320989     A.U. after   19 cycles
 SCF Done:  E(UB3LYP) =  -3531.41685669     A.U. after   13 cycles
 SCF Done:  E(UB3LYP) =  -3531.41693453     A.U. after   17 cycles
 SCF Done:  E(UB3LYP) =  -3531.41725784     A.U. after   15 cycles
 SCF Done:  E(UB3LYP) =  -3531.41731585     A.U. after   18 cycles
 SCF Done:  E(UB3LYP) =  -3531.41740015     A.U. after   16 cycles
 SCF Done:  E(UB3LYP) =  -3531.41738313     A.U. after   16 cycles
 SCF Done:  E(UB3LYP) =  -3531.41743245     A.U. after   13 cycles
 SCF Done:  E(UB3LYP) =  -3531.41743776     A.U. after   11 cycles
 SCF Done:  E(UB3LYP) =  -3531.41744103     A.U. after   11 cycles
 SCF Done:  E(UB3LYP) =  -3531.41744214     A.U. after   11 cycles
 SCF Done:  E(UB3LYP) =  -3531.41744304     A.U. after   10 cycles
 SCF Done:  E(UB3LYP) =  -3531.41744311     A.U. after   11 cycles
 SCF Done:  E(UB3LYP) =  -3531.41744355     A.U. after   11 cycles
 Optimization completed.
    -- Stationary point found.
 Normal termination of Gaussian 16 at Sun Jun 20 13:49:33 2021.

 ----------------------------------------------------------------------
 #P Geom=AllCheck Guess=TCheck SCRF=Check GenChk UB3LYP/Jul-CC-pVDZ Fre
 q
 ----------------------------------------------------------------------

 Structure from the checkpoint file:  "checkpoint.chk"
 -----
 title
 -----
 Charge =  0 Multiplicity = 6

 SCF Done:  E(UB3LYP) =  -3531.41744355     A.U. after    2 cycles

  Exact polarizability: 319.259  12.399 300.388  14.177   9.869 304.053
 Approx polarizability: 495.551  44.354 460.802  17.712  10.720 505.102

 ******    1 imaginary frequencies (negative Signs) ******

                      1                      2                      3
                      A                      A                      A
 Frequencies --    -31.3761                20.4394                23.3717
 Red. masses --      5.8357                 5.8246                 6.4490
 Frc consts  --      0.0034                 0.0014                 0.0021
 IR Inten    --      0.7047                 0.2406                 1.1614

                      4                      5                      6
                      A                      A                      A
 Frequencies --     33.8640                47.6362                49.1380
 Red. masses --      6.9760                 3.5649                 6.4470
 Frc consts  --      0.0047                 0.0048                 0.0092
 IR Inten    --      1.7886                 6.1063                 2.2984

                      7                      8                      9
                      A                      A                      A
 Frequencies --     56.3586                64.7446                81.0955
 Red. masses --      5.9125                 2.9276                10.2476
 Frc consts  --      0.0111                 0.0072                 0.0397
 IR Inten    --      1.8668                 2.8561                 0.8316

                     10                     11                     12
                      A                      A                      A
 Frequencies --     89.2022                91.4380                97.9056
 Red. masses --      6.7590                 5.1244                 5.7997
 Frc consts  --      0.0317                 0.0252                 0.0328
 IR Inten    --      0.5531                 7.4181                 2.9864

                     13                     14                     15
                      A                      A                      A
 Frequencies --    104.6228               114.8413               124.3911
 Red. masses --      6.5453                13.1336                 9.5302
 Frc consts  --      0.0422                 0.1021                 0.0869
 IR Inten    --      1.8736                 4.7433                 2.7623

                     16                     17                     18
                      A                      A                      A
 Frequencies --    137.3986               146.5980               156.6593
 Red. masses --      3.2266                 2.8904                 3.0335
 Frc consts  --      0.0359                 0.0366                 0.0439
 IR Inten    --     34.1850                 4.7920                27.2882

                     19                     20                     21
                      A                      A                      A
 Frequencies --    171.0383               186.6022               196.6097
 Red. masses --      1.8867                 2.3528                 2.5480
 Frc consts  --      0.0325                 0.0483                 0.0580
 IR Inten    --      5.3727                 2.2811                 6.5338

                     22                     23                     24
                      A                      A                      A
 Frequencies --    202.7512               213.7643               234.5014
 Red. masses --      1.9851                 1.7276                 3.2412
 Frc consts  --      0.0481                 0.0465                 0.1050
 IR Inten    --      0.9493                 0.9367                13.2954

                     25                     26                     27
                      A                      A                      A
 Frequencies --    250.0057               259.5881               290.1935
 Red. masses --      4.0984                 1.7480                 3.9104
 Frc consts  --      0.1509                 0.0694                 0.1940
 IR Inten    --     89.9091                 3.9227                 4.3197

                     28                     29                     30
                      A                      A                      A
 Frequencies --    317.7878               333.8933               349.8304
 Red. masses --      2.1855                13.2676                 6.7685
 Frc consts  --      0.1300                 0.8715                 0.4880
 IR Inten    --      0.2426                22.4791                 6.2019

                     31                     32                     33
                      A                      A                      A
 Frequencies --    365.2823               376.9446               391.1915
 Red. masses --      7.5844                 4.2008                31.9656
 Frc consts  --      0.5963                 0.3517                 2.8821
 IR Inten    --     36.4449                 8.1697                89.2911

                     34                     35                     36
                      A                      A                      A
 Frequencies --    396.4388               401.2709               410.6386
 Red. masses --     15.7685                 2.8377                 2.8606
 Frc consts  --      1.4601                 0.2692                 0.2842
 IR Inten    --     67.7397                19.6964                 0.8062

                     37                     38                     39
                      A                      A                      A
 Frequencies --    425.5098               455.9968               479.6725
 Red. masses --      3.5992                 4.0528                 3.2075
 Frc consts  --      0.3839                 0.4965                 0.4348
 IR Inten    --     37.0777                 0.1570                11.9606

                     40                     41                     42
                      A                      A                      A
 Frequencies --    508.8869               525.2822               560.2293
 Red. masses --      3.2003                 2.9344                 2.9680
 Frc consts  --      0.4883                 0.4770                 0.5488
 IR Inten    --     12.9659                 7.6253                28.9368

                     43                     44                     45
                      A                      A                      A
 Frequencies --    595.5536               624.0916               639.9686
 Red. masses --      4.1414                 6.0261                 4.1210
 Frc consts  --      0.8655                 1.3829                 0.9944
 IR Inten    --     67.6292                18.3962                95.7399

                     46                     47                     48
                      A                      A                      A
 Frequencies --    689.7045               701.1804               754.0881
 Red. masses --      1.6077                 6.2003                 4.5868
 Frc consts  --      0.4506                 1.7961                 1.5368
 IR Inten    --     56.0199                17.4563                 7.7877

                     49                     50                     51
                      A                      A                      A
 Frequencies --    767.2726               787.9541               802.6473
 Red. masses --      2.3461                 2.3463                 1.3826
 Frc consts  --      0.8138                 0.8583                 0.5248
 IR Inten    --     16.7494                12.6152                 5.0646

                     52                     53                     54
                      A                      A                      A
 Frequencies --    819.1210               840.0173               855.7092
 Red. masses --      2.7564                 1.2601                 1.4817
 Frc consts  --      1.0897                 0.5239                 0.6392
 IR Inten    --     19.1376                 1.2040                11.8953

                     55                     56                     57
                      A                      A                      A
 Frequencies --    864.4730               892.3949               919.0555
 Red. masses --      2.5850                 1.9017                 2.0605
 Frc consts  --      1.1382                 0.8923                 1.0254
 IR Inten    --     40.3259                 4.4073                15.1395

                     58                     59                     60
                      A                      A                      A
 Frequencies --    943.3776               945.9253               964.5463
 Red. masses --      1.4169                 1.2738                 3.5417
 Frc consts  --      0.7430                 0.6715                 1.9414
 IR Inten    --      0.4772                13.3286                29.0083

                     61                     62                     63
                      A                      A                      A
 Frequencies --    985.2511               988.9192               996.6422
 Red. masses --      2.1397                 1.6180                 1.3914
 Frc consts  --      1.2238                 0.9323                 0.8143
 IR Inten    --     21.5118                12.4599                 3.8434

                     64                     65                     66
                      A                      A                      A
 Frequencies --   1002.6847              1005.7719              1008.6712
 Red. masses --      2.8533                 2.0257                 1.6359
 Frc consts  --      1.6902                 1.2073                 0.9806
 IR Inten    --      1.5151                 5.3277                 1.3213

                     67                     68                     69
                      A                      A                      A
 Frequencies --   1036.1992              1046.7709              1069.9631
 Red. masses --      2.6864                 2.4768                 2.3463
 Frc consts  --      1.6995                 1.5990                 1.5826
 IR Inten    --     41.0758                 3.7284                 6.9355

                     70                     71                     72
                      A                      A                      A
 Frequencies --   1085.9335              1095.3058              1113.0506
 Red. masses --      1.8025                 1.8982                 1.5656
 Frc consts  --      1.2524                 1.3418                 1.1428
 IR Inten    --     26.9303                14.0532                 9.9047

                     73                     74                     75
                      A                      A                      A
 Frequencies --   1132.9149              1136.9625              1161.6581
 Red. masses --      2.1334                 2.2219                 1.7008
 Frc consts  --      1.6133                 1.6923                 1.3523
 IR Inten    --     12.5349                 9.1376                67.7332

                     76                     77                     78
                      A                      A                      A
 Frequencies --   1170.4673              1177.2277              1198.7748
 Red. masses --      1.5678                 1.0861                 1.4677
 Frc consts  --      1.2655                 0.8868                 1.2427
 IR Inten    --      3.1968                 1.3956                45.7849

                     79                     80                     81
                      A                      A                      A
 Frequencies --   1206.7783              1222.4084              1254.6932
 Red. masses --      1.3189                 2.1471                 1.9365
 Frc consts  --      1.1317                 1.8904                 1.7961
 IR Inten    --     41.6959               110.0491                27.1541

                     82                     83                     84
                      A                      A                      A
 Frequencies --   1257.2360              1286.0056              1314.7015
 Red. masses --      2.7105                 1.1136                 1.6048
 Frc consts  --      2.5243                 1.0851                 1.6343
 IR Inten    --    122.9311                 0.6201               165.7983

                     85                     86                     87
                      A                      A                      A
 Frequencies --   1321.6725              1330.7657              1336.1448
 Red. masses --      1.4642                 1.5315                 1.6819
 Frc consts  --      1.5069                 1.5980                 1.7691
 IR Inten    --     63.6383                60.5972                36.2222

                     88                     89                     90
                      A                      A                      A
 Frequencies --   1359.9801              1364.6704              1370.0612
 Red. masses --      1.5345                 3.1228                 1.3691
 Frc consts  --      1.6722                 3.4264                 1.5141
 IR Inten    --     12.5458                13.6643                24.4888

                     91                     92                     93
                      A                      A                      A
 Frequencies --   1382.5385              1396.6672              1406.8569
 Red. masses --      1.3876                 1.3275                 1.3966
 Frc consts  --      1.5627                 1.5257                 1.6286
 IR Inten    --     30.2133                28.6446                12.3140

                     94                     95                     96
                      A                      A                      A
 Frequencies --   1415.5070              1426.3760              1459.3702
 Red. masses --      1.4305                 2.5686                 1.0964
 Frc consts  --      1.6888                 3.0791                 1.3757
 IR Inten    --     48.4592               379.9421                 9.9151

                     97                     98                     99
                      A                      A                      A
 Frequencies --   1469.5000              1472.7371              1473.4386
 Red. masses --      1.0708                 1.1116                 1.0399
 Frc consts  --      1.3624                 1.4205                 1.3302
 IR Inten    --     10.7045                 3.6401                 6.4151

                    100                    101                    102
                      A                      A                      A
 Frequencies --   1476.8791              1484.3457              1487.3726
 Red. masses --      1.9116                 1.2031                 1.0547
 Frc consts  --      2.4566                 1.5618                 1.3748
 IR Inten    --     75.7797                74.7142                 2.0570

                    103                    104                    105
                      A                      A                      A
 Frequencies --   1495.5631              1504.6872              1505.6851
 Red. masses --      1.1521                 1.1029                 1.0844
 Frc consts  --      1.5183                 1.4712                 1.4485
 IR Inten    --      8.8284                18.0118                 8.6221

                    106                    107                    108
                      A                      A                      A
 Frequencies --   1517.2235              1617.2720              1639.2200
 Red. masses --      1.9397                 5.4340                 5.6297
 Frc consts  --      2.6308                 8.3741                 8.9128
 IR Inten    --      3.5579                 3.8880                42.4772

                    109                    110                    111
                      A                      A                      A
 Frequencies --   1660.1251              1767.1263              3017.4746
 Red. masses --      5.7707                11.4789                 1.0497
 Frc consts  --      9.3705                21.1196                 5.6315
 IR Inten    --    137.2324               229.6629                 1.8672

                    112                    113                    114
                      A                      A                      A
 Frequencies --   3024.6823              3042.1955              3045.2620
 Red. masses --      1.0451                 1.0360                 1.0644
 Frc consts  --      5.6336                 5.6490                 5.8159
 IR Inten    --      7.7481                18.7347                26.3849

                    115                    116                    117
                      A                      A                      A
 Frequencies --   3061.8862              3067.9645              3080.9027
 Red. masses --      1.0588                 1.0661                 1.0853
 Frc consts  --      5.8485                 5.9121                 6.0696
 IR Inten    --     13.8423                30.7500                 0.2573

                    118                    119                    120
                      A                      A                      A
 Frequencies --   3089.3943              3095.4969              3110.0207
 Red. masses --      1.0900                 1.0987                 1.1060
 Frc consts  --      6.1293                 6.2027                 6.3029
 IR Inten    --      5.0483                 3.8975                 9.4247

                    121                    122                    123
                      A                      A                      A
 Frequencies --   3112.7266              3118.3965              3125.9409
 Red. masses --      1.0824                 1.1023                 1.0983
 Frc consts  --      6.1789                 6.3155                 6.3230
 IR Inten    --      0.4379                16.0782                15.8064

                    124                    125                    126
                      A                      A                      A
 Frequencies --   3140.1721              3140.6555              3162.0443
 Red. masses --      1.1037                 1.1046                 1.0942
 Frc consts  --      6.4123                 6.4195                 6.4461
 IR Inten    --      5.3681                13.9385                 2.8041

                    127                    128                    129
                      A                      A                      A
 Frequencies --   3162.9265              3174.4809              3187.9242
 Red. masses --      1.0967                 1.0862                 1.0913
 Frc consts  --      6.4640                 6.4494                 6.5347
 IR Inten    --     13.8852                 0.5524                 6.6849

                    130                    131                    132
                      A                      A                      A
 Frequencies --   3197.0055              3230.8274              3244.8182
 Red. masses --      1.0970                 1.0923                 1.0914
 Frc consts  --      6.6062                 6.7178                 6.7701
 IR Inten    --     12.6154                 1.4750                 1.5321

 - Thermochemistry -
 -------------------
 Temperature   298.150 Kelvin.  Pressure   1.00000 Atm.
 Atom     1 has atomic number  6 and mass  12.00000

 Molecular mass:   434.99839 amu.
 Principal axes and moments of inertia in atomic units:
                           1         2         3
     Eigenvalues --  9180.53491********************
           X            0.99819  -0.05859   0.01323
           Y            0.05814   0.99780   0.03192
           Z           -0.01507  -0.03110   0.99940
 This molecule is an asymmetric top.
 Rotational symmetry number  1.
 Warning -- assumption of classical behavior for rotation
           may cause significant error
 Rotational temperatures (Kelvin)      0.00943     0.00793     0.00684
 Rotational constants (GHZ):           0.19658     0.16523     0.14258
    1 imaginary frequencies ignored.
 Zero-point vibrational energy     944336.1 (Joules/Mol)
                                  225.70175 (Kcal/Mol)
 Warning -- explicit consideration of  42 degrees of freedom as
           vibrations may cause significant error
 Vibrational temperatures:     29.41    33.63    48.72    68.54    70.70
          (Kelvin)             81.09    93.15   116.68   128.34   131.56
                              140.86   150.53   165.23   178.97   197.69
                              210.92   225.40   246.09   268.48   282.88
                              291.71   307.56   337.40   359.70   373.49
                              417.52   457.23   480.40   503.33   525.56
                              542.34   562.84   570.39   577.34   590.82
                              612.21   656.08   690.14   732.17   755.76
                              806.05   856.87   897.93   920.77   992.33
                             1008.84  1084.96  1103.93  1133.69  1154.83
                             1178.53  1208.60  1231.17  1243.78  1283.96
                             1322.32  1357.31  1360.98  1387.77  1417.56
                             1422.83  1433.95  1442.64  1447.08  1451.25
                             1490.86  1506.07  1539.44  1562.42  1575.90
                             1601.43  1630.01  1635.84  1671.37  1684.04
                             1693.77  1724.77  1736.28  1758.77  1805.22
                             1808.88  1850.28  1891.56  1901.59  1914.67
                             1922.41  1956.71  1963.46  1971.21  1989.16
                             2009.49  2024.15  2036.60  2052.24  2099.71
                             2114.28  2118.94  2119.95  2124.90  2135.64
                             2140.00  2151.78  2164.91  2166.35  2182.95
                             2326.89  2358.47  2388.55  2542.50  4341.47
                             4351.84  4377.04  4381.45  4405.37  4414.12
                             4432.73  4444.95  4453.73  4474.63  4478.52
                             4486.68  4497.53  4518.01  4518.70  4549.48
                             4550.75  4567.37  4586.71  4599.78  4648.44
                             4668.57

 Zero-point correction=                           0.359679 (Hartree/Particle)
 Thermal correction to Energy=                    0.387026
 Thermal correction to Enthalpy=                  0.387970
 Thermal correction to Gibbs Free Energy=         0.297603
 Sum of electronic and zero-point Energies=          -3531.057765
 Sum of electronic and thermal Energies=             -3531.030418
 Sum of electronic and thermal Enthalpies=           -3531.029474
 Sum of electronic and thermal Free Energies=        -3531.119841

                     E (Thermal)             CV                S
                      KCal/Mol        Cal/Mol-Kelvin    Cal/Mol-Kelvin
 Total                  242.862             97.597            190.193
 Electronic               0.000              0.000              3.561
 Translational            0.889              2.981             44.100
 Rotational               0.889              2.981             35.494
 Vibrational            241.085             91.635            107.038
 Vibration     1          0.593              1.986              6.591
 Vibration     2          0.593              1.985              6.325
 Vibration     3          0.594              1.983              5.589
 Vibration     4          0.595              1.978              4.913
 Vibration     5          0.595              1.978              4.852
 Vibration     6          0.596              1.975              4.581
 Vibration     7          0.597              1.971              4.307
 Vibration     8          0.600              1.962              3.864
 Vibration     9          0.602              1.957              3.677
 Vibration    10          0.602              1.955              3.629
 Vibration    11          0.603              1.951              3.496
 Vibration    12          0.605              1.946              3.366
 Vibration    13          0.608              1.937              3.185
 Vibration    14          0.610              1.929              3.031
 Vibration    15          0.614              1.916              2.840
 Vibration    16          0.617              1.906              2.716
 Vibration    17          0.620              1.895              2.590
 Vibration    18          0.626              1.878              2.424
 Vibration    19          0.632              1.858              2.261
 Vibration    20          0.636              1.845              2.165
 Vibration    21          0.639              1.836              2.108
 Vibration    22          0.644              1.820              2.011
 Vibration    23          0.654              1.788              1.844
 Vibration    24          0.663              1.763              1.731
 Vibration    25          0.668              1.747              1.665
 Vibration    26          0.686              1.692              1.473
 Vibration    27          0.704              1.640              1.321
 Vibration    28          0.715              1.608              1.241
 Vibration    29          0.727              1.576              1.167
 Vibration    30          0.739              1.544              1.100
 Vibration    31          0.747              1.519              1.051
 Vibration    32          0.759              1.489              0.996
 Vibration    33          0.763              1.478              0.976
 Vibration    34          0.767              1.467              0.958
 Vibration    35          0.775              1.447              0.924
 Vibration    36          0.787              1.415              0.873
 Vibration    37          0.814              1.348              0.778
 Vibration    38          0.836              1.295              0.711
 Vibration    39          0.864              1.230              0.636
 Vibration    40          0.880              1.194              0.598
 Vibration    41          0.916              1.117              0.523
 Vibration    42          0.953              1.041              0.457

                           ! Non-Optimized Parameters !
 Normal termination of Gaussian 16 at Sun Jun 20 17:31:59 2021.

 ----------------------------------------------------------------------
 #p ub3lyp jul-cc-pvdz pop=cm5 scrf=(pcm,solvent=dichloroethane) guess=
 read geom=allcheck
 ----------------------------------------------------------------------

 Structure from the checkpoint file:  "checkpoint.chk"
 -----
 title
 -----
 Charge =  0 Multiplicity = 6

 SCF Done:  E(UB3LYP) =  -3531.43589852     A.U. after   19 cycles
 Normal termination of Gaussian 16 at Sun Jun 20 17:53:42 2021.
 Gaussian 16:  ES64L-G16RevA.03 25-Dec-2016

 ----------------------------------------------------------------------
 #p ub3lyp jul-cc-pvdz pop=cm5 scrf=(pcm,solvent=water) guess=read geom
 =allcheck
 ----------------------------------------------------------------------

 Structure from the checkpoint file:  "checkpoint.chk"
 -----
 title
 -----
 Charge =  0 Multiplicity = 6

                         Standard orientation:
 ---------------------------------------------------------------------
 Center     Atomic      Atomic             Coordinates (Angstroms)
 Number     Number       Type             X           Y           Z
 ---------------------------------------------------------------------
      1          6           0        3.198514    0.139463    0.577018
      2          6           0        1.887571   -0.359600    0.726825
      3          6           0        1.491390   -0.851713    1.988239
      4          6           0        2.380937   -0.855641    3.060937
      5          6           0        3.681573   -0.369621    2.895124
      6          6           0        4.084511    0.132008    1.651624
      7          6           0        0.887689   -0.347477   -0.372288
      8          6           0        1.000148    0.621595   -1.575581
      9          6           0        2.035981    0.223967   -2.638664
     10          6           0        1.857621   -1.267718   -2.968183
     11          6           0        1.729109   -2.038900   -1.684194
     12          6           0        0.598657   -2.636316   -1.213599
     13          6           0       -0.690895   -2.690468   -1.979618
     14          8           0       -0.275577   -0.817001   -0.110961
     15         26           0       -2.069990   -0.254334    0.423512
     16         17           0       -3.033042    0.613896   -1.365793
     17          6           0        0.648409   -3.494725    0.012849
     18         17           0       -1.854685    1.141453    2.120863
     19         17           0       -3.019730   -2.147061    1.074252
     20          1           0        0.473319   -1.205653    2.127911
     21          1           0        2.053107   -1.228955    4.031554
     22          1           0        4.377751   -0.370464    3.735418
     23          1           0        5.092416    0.527041    1.520506
     24          1           0        3.529688    0.553772   -0.369890
     25          1           0       -0.002253    0.599474   -2.021229
     26          6           0        1.226712    2.064040   -1.089719
     27          1           0        1.892793    0.852035   -3.528690
     28          1           0        3.051415    0.427165   -2.281224
     29          1           0        0.974942   -1.407776   -3.604489
     30          1           0        2.723671   -1.627543   -3.543136
     31          1           0        2.651688   -2.194861   -1.123148
     32          1           0        1.610268   -3.431874    0.534175
     33          1           0       -0.170990   -3.251065    0.701950
     34          1           0        0.493440   -4.542358   -0.294464
     35          1           0       -0.653548   -3.583547   -2.627061
     36          1           0       -1.549185   -2.810921   -1.309905
     37          1           0       -0.864741   -1.822788   -2.622183
     38          8           0        0.083311    2.597164   -0.653273
     39          8           0        2.294241    2.639214   -1.125201
     40          6           0        0.140437    3.970136   -0.157499
     41          6           0       -1.282624    4.453425    0.026197
     42          1           0        0.703272    3.957717    0.785883
     43          1           0        0.701125    4.570309   -0.885352
     44          1           0       -1.263515    5.483585    0.410694
     45          1           0       -1.825099    4.448595   -0.928970
     46          1           0       -1.823309    3.820168    0.740534
 ---------------------------------------------------------------------

 SCF Done:  E(UB3LYP) =  -3531.43941189     A.U. after   17 cycles

 The electronic state is 6-A.
 Alpha  occ. eigenvalues -- -256.20855-101.52358-101.52326-101.52320 -30.20227
 Alpha  occ. eigenvalues --  -26.05595 -26.05440 -26.05350 -19.20849 -19.17943
 Alpha  occ. eigenvalues --  -19.15852 -10.33795 -10.33398 -10.25030 -10.23855
 Alpha  occ. eigenvalues --  -10.23111 -10.22522 -10.21539 -10.21527 -10.21450
 Alpha  occ. eigenvalues --  -10.20944 -10.20892 -10.20489 -10.20030 -10.19852
 Alpha  occ. eigenvalues --  -10.19163 -10.19137 -10.18577  -9.44076  -9.44042
 Alpha  occ. eigenvalues --   -9.44041  -7.19945  -7.19909  -7.19909  -7.19627
 Alpha  occ. eigenvalues --   -7.19615  -7.19590  -7.19586  -7.19585  -7.19583
 Alpha  occ. eigenvalues --   -3.67909  -2.45505  -2.45214  -2.45042  -1.12761
 Alpha  occ. eigenvalues --   -1.08708  -1.04257  -0.88309  -0.85842  -0.83175
 Alpha  occ. eigenvalues --   -0.80366  -0.79621  -0.79588  -0.78710  -0.78692
 Alpha  occ. eigenvalues --   -0.76953  -0.75035  -0.71167  -0.70371  -0.66971
 Alpha  occ. eigenvalues --   -0.64739  -0.62687  -0.61780  -0.59803  -0.57624
 Alpha  occ. eigenvalues --   -0.56079  -0.53802  -0.53286  -0.51827  -0.50660
 Alpha  occ. eigenvalues --   -0.50158  -0.49267  -0.49157  -0.48253  -0.48086
 Alpha  occ. eigenvalues --   -0.47818  -0.47521  -0.47053  -0.46920  -0.45936
 Alpha  occ. eigenvalues --   -0.45429  -0.45062  -0.43948  -0.43071  -0.42711
 Alpha  occ. eigenvalues --   -0.42371  -0.40850  -0.40512  -0.40060  -0.40042
 Alpha  occ. eigenvalues --   -0.38839  -0.38580  -0.37960  -0.37761  -0.37687
 Alpha  occ. eigenvalues --   -0.37367  -0.37092  -0.36433  -0.36083  -0.35355
 Alpha  occ. eigenvalues --   -0.34679  -0.34060  -0.34003  -0.32340  -0.32055
 Alpha  occ. eigenvalues --   -0.31230  -0.31164  -0.30863  -0.30806  -0.30135
 Alpha  occ. eigenvalues --   -0.29774  -0.29460  -0.28482  -0.27612  -0.25045
 Alpha virt. eigenvalues --   -0.11035  -0.03281  -0.02380  -0.01710  -0.01218
 Alpha virt. eigenvalues --   -0.00134   0.00024   0.00066   0.01065   0.01544
 Alpha virt. eigenvalues --    0.01697   0.01977   0.02456   0.02789   0.03186

  Beta  occ. eigenvalues -- -256.20670-101.52171-101.52143-101.52140 -30.11299
  Beta  occ. eigenvalues --  -25.98056 -25.98028 -25.97977 -19.20849 -19.17487
  Beta  occ. eigenvalues --  -19.15850 -10.33795 -10.33392 -10.25030 -10.23824
  Beta  occ. eigenvalues --  -10.23099 -10.22504 -10.21542 -10.21530 -10.21455
  Beta  occ. eigenvalues --  -10.20941 -10.20890 -10.20484 -10.19965 -10.19854
  Beta  occ. eigenvalues --  -10.19164 -10.19137 -10.18576  -9.43893  -9.43865
  Beta  occ. eigenvalues --   -9.43863  -7.19640  -7.19610  -7.19608  -7.19375
  Beta  occ. eigenvalues --   -7.19362  -7.19348  -7.19346  -7.19342  -7.19336
  Beta  occ. eigenvalues --   -3.47085  -2.23355  -2.23300  -2.23265  -1.12757
  Beta  occ. eigenvalues --   -1.07832  -1.04255  -0.88273  -0.85740  -0.83113
  Beta  occ. eigenvalues --   -0.79185  -0.78730  -0.78632  -0.78323  -0.78304
  Beta  occ. eigenvalues --   -0.76951  -0.74995  -0.71138  -0.70250  -0.66855
  Beta  occ. eigenvalues --   -0.64685  -0.62660  -0.61707  -0.59382  -0.57409
  Beta  occ. eigenvalues --   -0.55580  -0.53704  -0.52600  -0.51756  -0.50429
  Beta  occ. eigenvalues --   -0.49565  -0.48978  -0.48446  -0.47534  -0.47096
  Beta  occ. eigenvalues --   -0.45882  -0.45195  -0.43960  -0.43100  -0.42711
  Beta  occ. eigenvalues --   -0.42319  -0.40828  -0.40508  -0.40083  -0.40020
  Beta  occ. eigenvalues --   -0.38667  -0.38594  -0.38087  -0.37941  -0.37725
  Beta  occ. eigenvalues --   -0.37521  -0.37089  -0.36453  -0.36107  -0.35986
  Beta  occ. eigenvalues --   -0.35950  -0.35324  -0.34146  -0.33402  -0.33096
  Beta  occ. eigenvalues --   -0.32571  -0.32484  -0.32151  -0.31238  -0.30501
  Beta  occ. eigenvalues --   -0.29684  -0.29456  -0.28701  -0.27616  -0.24941
  Beta virt. eigenvalues --   -0.14863  -0.14419  -0.13647  -0.13250  -0.13165
  Beta virt. eigenvalues --   -0.10247  -0.03268  -0.02327  -0.01634  -0.01112
  Beta virt. eigenvalues --   -0.00095   0.00065   0.00100   0.01227   0.01565

 Mulliken charges and spin densities:
               1          2
     1  C    0.256727  -0.001508
     2  C    3.013598  -0.004674
     3  C   -0.597578  -0.011323
     4  C    0.086113   0.005351
     5  C    0.284809  -0.001786
     6  C   -0.110998   0.003024
     7  C   -2.418877  -0.005241
     8  C    0.437477   0.014039
     9  C    0.490350   0.005251
    10  C    0.644845  -0.004151
    11  C    0.347266   0.044907
    12  C   -0.193433   0.015532
    13  C    0.251028  -0.000095
    14  O   -0.389604   0.134856
    15  Fe   0.701795   4.058685
    16  Cl  -0.528025   0.242867
    17  C    0.326857  -0.000649
    18  Cl  -0.493052   0.250160
    19  Cl  -0.502613   0.246572
    20  H   -0.263225   0.000358
    21  H   -0.158833  -0.000006
    22  H   -0.150718   0.000046
    23  H   -0.153725   0.000133
    24  H   -0.241064  -0.000105
    25  H   -0.181439  -0.000987
    26  C    0.799683   0.002321
    27  H   -0.129391   0.000281
    28  H   -0.010985  -0.000045
    29  H   -0.081634   0.000101
    30  H   -0.112296   0.001725
    31  H   -0.272416  -0.001643
    32  H   -0.003237   0.000092
    33  H    0.065154   0.000561
    34  H   -0.015895   0.001282
    35  H    0.001789   0.001175
    36  H    0.044396   0.001362
    37  H    0.058782  -0.000162
    38  O   -0.656757   0.002296
    39  O   -0.588883   0.000761
    40  C    0.425536   0.000586
    41  C    0.042374  -0.001572
    42  H   -0.033275  -0.000012
    43  H   -0.037232   0.000023
    44  H   -0.008303   0.000058
    45  H    0.026348   0.000063
    46  H    0.028561  -0.000507
 Sum of Mulliken charges =  -0.00000   5.00000

 Dipole moment (field-independent basis, Debye):
    X=             10.6054    Y=             -2.5316    Z=             -2.8945  Tot=             11.2810
 Quadrupole moment (field-independent basis, Debye-Ang):
   XX=           -190.5426   YY=           -165.5638   ZZ=           -166.9470
   XY=            -11.7695   XZ=              8.9668   YZ=              5.2665

 Normal termination of Gaussian 16 at Sun Jun 20 18:12:48 2021.
