 Gaussian 16, Revision A.03,

 -----------------------------------------------------------
 #p opt=modredundant freq=noraman ub3lyp jul-cc-pvdz pop=cm5
 -----------------------------------------------------------

 -----
 title
 -----
 Symbolic Z-matrix:
 Charge =  0 Multiplicity = 6

 SCF Done:  E(UB3LYP) =  -3531.41041316     A.U. after   23 cycles
 SCF Done:  E(UB3LYP) =  -3531.41053061     A.U. after   16 cycles
 SCF Done:  E(UB3LYP) =  -3531.40990739     A.U. after   18 cycles
 SCF Done:  E(UB3LYP) =  -3531.40968866     A.U. after   15 cycles
 SCF Done:  E(UB3LYP) =  -3531.40881822     A.U. after   16 cycles
 SCF Done:  E(UB3LYP) =  -3531.41053739     A.U. after    9 cycles
 SCF Done:  E(UB3LYP) =  -3531.41095784     A.U. after   16 cycles
 SCF Done:  E(UB3LYP) =  -3531.41091121     A.U. after   16 cycles
 SCF Done:  E(UB3LYP) =  -3531.41098735     A.U. after   15 cycles
 SCF Done:  E(UB3LYP) =  -3531.41099665     A.U. after   13 cycles
 SCF Done:  E(UB3LYP) =  -3531.41100013     A.U. after   12 cycles
 SCF Done:  E(UB3LYP) =  -3531.41100037     A.U. after   11 cycles
 SCF Done:  E(UB3LYP) =  -3531.41100069     A.U. after   11 cycles
 SCF Done:  E(UB3LYP) =  -3531.41100077     A.U. after   11 cycles
 SCF Done:  E(UB3LYP) =  -3531.41100083     A.U. after   11 cycles
 SCF Done:  E(UB3LYP) =  -3531.41100087     A.U. after   11 cycles
 SCF Done:  E(UB3LYP) =  -3531.41100090     A.U. after    9 cycles
 Optimization completed.
    -- Stationary point found.
 Normal termination of Gaussian 16 at Sun Jun 20 04:13:38 2021.

 ----------------------------------------------------------------------
 #P Geom=AllCheck Guess=TCheck SCRF=Check GenChk UB3LYP/Jul-CC-pVDZ Fre
 q
 ----------------------------------------------------------------------

 Structure from the checkpoint file:  "checkpoint.chk"
 -----
 title
 -----
 Charge =  0 Multiplicity = 6

 SCF Done:  E(UB3LYP) =  -3531.41100090     A.U. after    2 cycles

  Exact polarizability: 285.335   0.076 307.610  23.455   9.302 282.113
 Approx polarizability: 417.793  -0.197 488.856  43.667  12.386 445.713

 ******    1 imaginary frequencies (negative Signs) ******

                      1                      2                      3
                      A                      A                      A
 Frequencies --   -220.6669                26.2668                28.5105
 Red. masses --      8.0725                 6.6958                 5.5528
 Frc consts  --      0.2316                 0.0027                 0.0027
 IR Inten    --    198.8643                 0.3222                 1.3917

                      4                      5                      6
                      A                      A                      A
 Frequencies --     29.4597                50.4236                58.4015
 Red. masses --      6.9398                 5.5442                 3.7075
 Frc consts  --      0.0035                 0.0083                 0.0075
 IR Inten    --      0.8926                 2.5351                 0.9041

                      7                      8                      9
                      A                      A                      A
 Frequencies --     67.8202                69.7551                77.0294
 Red. masses --      2.8230                 4.6467                 7.1485
 Frc consts  --      0.0077                 0.0133                 0.0250
 IR Inten    --      0.2403                 0.9140                 1.1639

                     10                     11                     12
                      A                      A                      A
 Frequencies --     84.1088                92.2607               102.6457
 Red. masses --      7.9461                11.7603                 6.1526
 Frc consts  --      0.0331                 0.0590                 0.0382
 IR Inten    --      1.8715                 0.6192                 1.3049

                     13                     14                     15
                      A                      A                      A
 Frequencies --    112.6809               118.2077               120.2669
 Red. masses --     10.2238                 4.1146                 6.7158
 Frc consts  --      0.0765                 0.0339                 0.0572
 IR Inten    --      0.9420                 4.2670                 9.8727

                     16                     17                     18
                      A                      A                      A
 Frequencies --    130.5048               142.9213               159.7766
 Red. masses --      7.7631                 3.5703                 2.6179
 Frc consts  --      0.0779                 0.0430                 0.0394
 IR Inten    --      3.1813                 1.9892                 3.0971

                     19                     20                     21
                      A                      A                      A
 Frequencies --    175.5453               188.4910               201.7867
 Red. masses --      2.5280                 1.7217                 1.8563
 Frc consts  --      0.0459                 0.0360                 0.0445
 IR Inten    --      6.8120                 6.1881                 0.6203

                     22                     23                     24
                      A                      A                      A
 Frequencies --    207.1883               222.3957               247.0779
 Red. masses --      1.4373                 3.5892                 3.2142
 Frc consts  --      0.0364                 0.1046                 0.1156
 IR Inten    --      6.4110                10.3793                 1.6708

                     25                     26                     27
                      A                      A                      A
 Frequencies --    249.6876               262.5965               289.2260
 Red. masses --      2.3073                 2.0186                 3.6831
 Frc consts  --      0.0847                 0.0820                 0.1815
 IR Inten    --      1.5397                 1.0380                 3.7088

                     28                     29                     30
                      A                      A                      A
 Frequencies --    304.6263               337.1696               342.4847
 Red. masses --      2.7884                17.2468                 4.3839
 Frc consts  --      0.1525                 1.1552                 0.3030
 IR Inten    --      1.1896                33.2304                 8.3948

                     31                     32                     33
                      A                      A                      A
 Frequencies --    374.6569               376.7507               380.5347
 Red. masses --      3.4627                14.3077                 4.2178
 Frc consts  --      0.2864                 1.1965                 0.3599
 IR Inten    --     13.0468                54.1460                31.1556

                     34                     35                     36
                      A                      A                      A
 Frequencies --    390.6953               393.6448               408.9317
 Red. masses --      6.1555                11.8604                 3.6338
 Frc consts  --      0.5536                 1.0828                 0.3580
 IR Inten    --     50.7772                57.1029                 7.5395

                     37                     38                     39
                      A                      A                      A
 Frequencies --    412.5058               462.9841               510.4789
 Red. masses --      2.9837                 3.7200                 2.8488
 Frc consts  --      0.2991                 0.4698                 0.4374
 IR Inten    --      2.1094                 2.0320                 1.5263

                     40                     41                     42
                      A                      A                      A
 Frequencies --    545.4174               574.9694               626.1810
 Red. masses --      3.7711                 2.5019                 5.6693
 Frc consts  --      0.6610                 0.4873                 1.3097
 IR Inten    --     25.6826                 0.8721                 4.8394

                     43                     44                     45
                      A                      A                      A
 Frequencies --    635.3096               674.7558               696.6006
 Red. masses --      4.7325                 3.7698                 4.5819
 Frc consts  --      1.1254                 1.0112                 1.3100
 IR Inten    --     21.5421                11.6031                20.9633

                     46                     47                     48
                      A                      A                      A
 Frequencies --    707.6318               754.6365               783.6695
 Red. masses --      1.5673                 2.8544                 3.4311
 Frc consts  --      0.4624                 0.9577                 1.2415
 IR Inten    --     42.5145                21.3175                13.6538

                     49                     50                     51
                      A                      A                      A
 Frequencies --    789.0125               801.2763               811.7375
 Red. masses --      3.3408                 1.9534                 1.7344
 Frc consts  --      1.2254                 0.7389                 0.6733
 IR Inten    --      4.0062                17.4017                 7.0096

                     52                     53                     54
                      A                      A                      A
 Frequencies --    839.4576               845.2975               859.6073
 Red. masses --      1.8433                 1.2657                 1.3427
 Frc consts  --      0.7653                 0.5328                 0.5845
 IR Inten    --     12.7707                 0.1704                 9.4668

                     55                     56                     57
                      A                      A                      A
 Frequencies --    872.2906               920.7454               932.0382
 Red. masses --      2.6223                 1.5842                 2.0739
 Frc consts  --      1.1756                 0.7913                 1.0615
 IR Inten    --      9.3190                10.5137                 8.2390

                     58                     59                     60
                      A                      A                      A
 Frequencies --    942.5720               964.0566               980.6484
 Red. masses --      2.1856                 2.6616                 1.3542
 Frc consts  --      1.1441                 1.4575                 0.7673
 IR Inten    --     14.0438               103.4575                 0.5105

                     61                     62                     63
                      A                      A                      A
 Frequencies --    989.8040               997.1498              1001.0037
 Red. masses --      3.9450                 1.4418                 1.5690
 Frc consts  --      2.2772                 0.8447                 0.9263
 IR Inten    --     79.8991                 0.7214                11.4505

                     64                     65                     66
                      A                      A                      A
 Frequencies --   1004.8209              1007.1599              1024.0893
 Red. masses --      3.5616                 2.9782                 2.5457
 Frc consts  --      2.1187                 1.7799                 1.5730
 IR Inten    --      8.2616                16.8714                19.5335

                     67                     68                     69
                      A                      A                      A
 Frequencies --   1040.4923              1043.5708              1058.0098
 Red. masses --      2.5124                 2.5506                 2.0207
 Frc consts  --      1.6025                 1.6366                 1.3327
 IR Inten    --     20.1026                40.7412                 1.5372

                     70                     71                     72
                      A                      A                      A
 Frequencies --   1076.3234              1097.8431              1106.4360
 Red. masses --      1.9796                 2.5316                 1.6365
 Frc consts  --      1.3512                 1.7977                 1.1804
 IR Inten    --     30.4488                23.8355                 4.7729

                     73                     74                     75
                      A                      A                      A
 Frequencies --   1133.2758              1153.6772              1169.1729
 Red. masses --      2.1637                 1.7368                 1.5736
 Frc consts  --      1.6373                 1.3620                 1.2673
 IR Inten    --      6.5181                23.7390                 6.3850

                     76                     77                     78
                      A                      A                      A
 Frequencies --   1174.9909              1186.2728              1203.9386
 Red. masses --      1.0884                 2.7377                 1.3824
 Frc consts  --      0.8853                 2.2699                 1.1806
 IR Inten    --      0.0551                35.6460                 3.7349

                     79                     80                     81
                      A                      A                      A
 Frequencies --   1210.0115              1213.2124              1225.9097
 Red. masses --      1.7652                 1.3852                 2.0122
 Frc consts  --      1.5227                 1.2013                 1.7817
 IR Inten    --     85.5254                13.4445               127.4495

                     82                     83                     84
                      A                      A                      A
 Frequencies --   1260.6977              1276.0053              1283.2507
 Red. masses --      1.7986                 1.5443                 1.1227
 Frc consts  --      1.6842                 1.4815                 1.0893
 IR Inten    --     32.2777                14.6512                 1.6118

                     85                     86                     87
                      A                      A                      A
 Frequencies --   1288.8993              1304.1102              1319.3490
 Red. masses --      1.7861                 1.6390                 1.5387
 Frc consts  --      1.7483                 1.6423                 1.5781
 IR Inten    --     74.3981                11.4275                27.7458

                     88                     89                     90
                      A                      A                      A
 Frequencies --   1334.8013              1351.7074              1359.2112
 Red. masses --      1.9156                 1.9884                 2.0190
 Frc consts  --      2.0109                 2.1405                 2.1977
 IR Inten    --     16.2830                 1.2369                 6.2324

                     91                     92                     93
                      A                      A                      A
 Frequencies --   1364.2562              1371.3826              1377.7155
 Red. masses --      1.2924                 1.3648                 1.2293
 Frc consts  --      1.4173                 1.5123                 1.3748
 IR Inten    --     34.1134                18.4897                42.9429

                     94                     95                     96
                      A                      A                      A
 Frequencies --   1397.4779              1409.5303              1418.5424
 Red. masses --      1.6258                 1.3771                 1.5784
 Frc consts  --      1.8707                 1.6120                 1.8714
 IR Inten    --     51.3292                26.1464                11.2616

                     97                     98                     99
                      A                      A                      A
 Frequencies --   1432.4964              1455.5932              1470.2366
 Red. masses --      1.1615                 1.0974                 2.2575
 Frc consts  --      1.4043                 1.3699                 2.8751
 IR Inten    --      3.4024                 0.8139                 8.6247

                    100                    101                    102
                      A                      A                      A
 Frequencies --   1474.2225              1480.9820              1488.4218
 Red. masses --      1.0390                 1.2446                 1.0826
 Frc consts  --      1.3304                 1.6084                 1.4131
 IR Inten    --      3.6734                 5.1872                 6.2131

                    103                    104                    105
                      A                      A                      A
 Frequencies --   1488.7985              1498.6315              1507.6815
 Red. masses --      1.0547                 1.1007                 1.0840
 Frc consts  --      1.3774                 1.4565                 1.4518
 IR Inten    --      0.1811                16.1179                 5.6834

                    106                    107                    108
                      A                      A                      A
 Frequencies --   1509.5775              1523.9577              1626.4883
 Red. masses --      1.0987                 2.2108                 5.6931
 Frc consts  --      1.4751                 3.0251                 8.8737
 IR Inten    --      2.7343                 4.4461                 0.8543

                    109                    110                    111
                      A                      A                      A
 Frequencies --   1647.4973              1772.1906              2983.8506
 Red. masses --      5.7592                11.6875                 1.0536
 Frc consts  --      9.2101                21.6268                 5.5269
 IR Inten    --      0.2997               212.4173                 5.9965

                    112                    113                    114
                      A                      A                      A
 Frequencies --   3007.0254              3038.8868              3058.1076
 Red. masses --      1.0487                 1.0355                 1.0583
 Frc consts  --      5.5869                 5.6341                 5.8315
 IR Inten    --      7.5241                21.4090                14.4690

                    115                    116                    117
                      A                      A                      A
 Frequencies --   3061.7272              3071.4417              3079.1149
 Red. masses --      1.0608                 1.0620                 1.0847
 Frc consts  --      5.8592                 5.9028                 6.0590
 IR Inten    --     23.2633                22.4168                12.6956

                    118                    119                    120
                      A                      A                      A
 Frequencies --   3083.1495              3085.0094              3101.9833
 Red. masses --      1.0870                 1.0890                 1.1060
 Frc consts  --      6.0881                 6.1063                 6.2700
 IR Inten    --      7.7279                 4.9195                 8.2817

                    121                    122                    123
                      A                      A                      A
 Frequencies --   3102.0648              3102.3653              3114.8554
 Red. masses --      1.0944                 1.0826                 1.1024
 Frc consts  --      6.2049                 6.1391                 6.3017
 IR Inten    --      4.7056                 7.3303                20.1538

                    124                    125                    126
                      A                      A                      A
 Frequencies --   3122.1188              3132.9762              3164.4847
 Red. masses --      1.1047                 1.1046                 1.1062
 Frc consts  --      6.3442                 6.3878                 6.5267
 IR Inten    --     22.4068                18.8143                 1.0200

                    127                    128                    129
                      A                      A                      A
 Frequencies --   3165.2514              3171.2439              3175.4615
 Red. masses --      1.0856                 1.1002                 1.0878
 Frc consts  --      6.4081                 6.5189                 6.4628
 IR Inten    --      3.6042                 4.7488                 4.7428

                    130                    131                    132
                      A                      A                      A
 Frequencies --   3184.4231              3194.6592              3202.5771
 Red. masses --      1.0925                 1.0960                 1.0958
 Frc consts  --      6.5272                 6.5902                 6.6216
 IR Inten    --     18.6502                 9.5556                 6.5055

 - Thermochemistry -
 -------------------
 Temperature   298.150 Kelvin.  Pressure   1.00000 Atm.
 Atom     1 has atomic number  6 and mass  12.00000

 Molecular mass:   434.99839 amu.
 Principal axes and moments of inertia in atomic units:
                           1         2         3
     Eigenvalues --  8982.18879********************
           X            0.99730   0.07142   0.01729
           Y           -0.07157   0.99740   0.00812
           Z           -0.01667  -0.00934   0.99982
 This molecule is an asymmetric top.
 Rotational symmetry number  1.
 Warning -- assumption of classical behavior for rotation
           may cause significant error
 Rotational temperatures (Kelvin)      0.00964     0.00756     0.00691
 Rotational constants (GHZ):           0.20092     0.15757     0.14391
    1 imaginary frequencies ignored.
 Zero-point vibrational energy     943746.3 (Joules/Mol)
                                  225.56079 (Kcal/Mol)
 Warning -- explicit consideration of  40 degrees of freedom as
           vibrations may cause significant error
 Vibrational temperatures:     37.79    41.02    42.39    72.55    84.03
          (Kelvin)             97.58   100.36   110.83   121.01   132.74
                              147.68   162.12   170.07   173.04   187.77
                              205.63   229.88   252.57   271.20   290.33
                              298.10   319.98   355.49   359.24   377.82
                              416.13   438.29   485.11   492.76   539.05
                              542.06   547.50   562.12   566.37   588.36
                              593.50   666.13   734.47   784.73   827.25
                              900.93   914.07   970.82  1002.25  1018.12
                             1085.75  1127.53  1135.21  1152.86  1167.91
                             1207.79  1216.19  1236.78  1255.03  1324.75
                             1341.00  1356.15  1387.06  1410.93  1424.11
                             1434.68  1440.22  1445.71  1449.08  1473.44
                             1497.04  1501.47  1522.24  1548.59  1579.55
                             1591.91  1630.53  1659.88  1682.18  1690.55
                             1706.78  1732.20  1740.94  1745.54  1763.81
                             1813.86  1835.89  1846.31  1854.44  1876.32
                             1898.25  1920.48  1944.81  1955.60  1962.86
                             1973.11  1982.23  2010.66  2028.00  2040.97
                             2061.04  2094.27  2115.34  2121.08  2130.80
                             2141.51  2142.05  2156.20  2169.22  2171.95
                             2192.64  2340.15  2370.38  2549.79  4293.10
                             4326.44  4372.28  4399.93  4405.14  4419.12
                             4430.16  4435.96  4438.64  4463.06  4463.18
                             4463.61  4481.58  4492.03  4507.65  4552.99
                             4554.09  4562.71  4568.78  4581.67  4596.40
                             4607.79

 Zero-point correction=                           0.359454 (Hartree/Particle)
 Thermal correction to Energy=                    0.386470
 Thermal correction to Enthalpy=                  0.387414
 Thermal correction to Gibbs Free Energy=         0.298196
 Sum of electronic and zero-point Energies=          -3531.051547
 Sum of electronic and thermal Energies=             -3531.024531
 Sum of electronic and thermal Enthalpies=           -3531.023587
 Sum of electronic and thermal Free Energies=        -3531.112805

                     E (Thermal)             CV                S
                      KCal/Mol        Cal/Mol-Kelvin    Cal/Mol-Kelvin
 Total                  242.513             96.650            187.776
 Electronic               0.000              0.000              3.561
 Translational            0.889              2.981             44.100
 Rotational               0.889              2.981             35.510
 Vibrational            240.736             90.688            104.605
 Vibration     1          0.593              1.985              6.093
 Vibration     2          0.593              1.984              5.930
 Vibration     3          0.593              1.984              5.865
 Vibration     4          0.595              1.977              4.801
 Vibration     5          0.596              1.974              4.510
 Vibration     6          0.598              1.970              4.216
 Vibration     7          0.598              1.969              4.160
 Vibration     8          0.599              1.964              3.965
 Vibration     9          0.601              1.960              3.793
 Vibration    10          0.602              1.955              3.612
 Vibration    11          0.605              1.947              3.403
 Vibration    12          0.607              1.939              3.222
 Vibration    13          0.608              1.934              3.129
 Vibration    14          0.609              1.932              3.096
 Vibration    15          0.612              1.923              2.939
 Vibration    16          0.616              1.910              2.764
 Vibration    17          0.622              1.892              2.552
 Vibration    18          0.627              1.873              2.375
 Vibration    19          0.633              1.856              2.243
 Vibration    20          0.639              1.837              2.117
 Vibration    21          0.641              1.830              2.068
 Vibration    22          0.648              1.807              1.940
 Vibration    23          0.661              1.768              1.751
 Vibration    24          0.662              1.763              1.733
 Vibration    25          0.670              1.741              1.644
 Vibration    26          0.686              1.694              1.478
 Vibration    27          0.696              1.665              1.391
 Vibration    28          0.718              1.601              1.226
 Vibration    29          0.722              1.591              1.201
 Vibration    30          0.746              1.524              1.061
 Vibration    31          0.747              1.520              1.052
 Vibration    32          0.750              1.512              1.037
 Vibration    33          0.758              1.490              0.997
 Vibration    34          0.761              1.484              0.986
 Vibration    35          0.773              1.451              0.930
 Vibration    36          0.776              1.443              0.918
 Vibration    37          0.821              1.332              0.757
 Vibration    38          0.866              1.227              0.632
 Vibration    39          0.901              1.150              0.554
 Vibration    40          0.931              1.085              0.495

 Optimization completed.
    -- Stationary point found.
 Normal termination of Gaussian 16 at Sun Jun 20 07:57:16 2021.

 ----------------------------------------------------------------------
 #p ub3lyp jul-cc-pvdz pop=cm5 scrf=(pcm,solvent=dichloroethane) guess=
 read geom=allcheck
 ----------------------------------------------------------------------

 Structure from the checkpoint file:  "checkpoint.chk"
 -----
 title
 -----
 Charge =  0 Multiplicity = 6

 SCF Done:  E(UB3LYP) =  -3531.43598013     A.U. after   18 cycles
 Normal termination of Gaussian 16 at Sun Jun 20 08:21:04 2021.
 Gaussian 16:  ES64L-G16RevA.03 25-Dec-2016

 ----------------------------------------------------------------------
 #p ub3lyp jul-cc-pvdz pop=cm5 scrf=(pcm,solvent=water) guess=read geom
 =allcheck
 ----------------------------------------------------------------------

 Structure from the checkpoint file:  "checkpoint.chk"
 -----
 title
 -----
 Charge =  0 Multiplicity = 6

                         Standard orientation:
 ---------------------------------------------------------------------
 Center     Atomic      Atomic             Coordinates (Angstroms)
 Number     Number       Type             X           Y           Z
 ---------------------------------------------------------------------
      1          6           0        2.022703   -1.849089    1.709316
      2          6           0        1.310206   -0.835005    1.052949
      3          6           0        1.271742    0.439287    1.637477
      4          6           0        1.905936    0.684436    2.856304
      5          6           0        2.606565   -0.335148    3.506917
      6          6           0        2.667757   -1.602659    2.925320
      7          6           0        0.644838   -1.078464   -0.298336
      8          6           0        1.592319   -0.694058   -1.507312
      9          6           0        2.333960   -2.000622   -1.811580
     10          6           0        1.274788   -3.105349   -1.600899
     11          6           0        0.267120   -2.501659   -0.584432
     12          6           0       -1.176591   -2.324086   -1.054494
     13          6           0       -1.542411   -2.100634   -2.471784
     14          8           0       -0.635326   -0.393759   -0.429302
     15         26           0       -1.973967    0.768270    0.329763
     16         17           0       -3.679005    0.513228   -1.094374
     17          6           0       -2.249139   -2.775908   -0.140767
     18         17           0       -1.326482    2.878152    0.422014
     19         17           0       -2.522746   -0.036231    2.322197
     20          1           0        0.740291    1.253572    1.147949
     21          1           0        1.845744    1.679137    3.299715
     22          1           0        3.100805   -0.142646    4.460158
     23          1           0        3.215294   -2.407689    3.417512
     24          1           0        2.095333   -2.849334    1.280838
     25          1           0        0.922502   -0.419725   -2.332253
     26          6           0        2.526166    0.482516   -1.274684
     27          1           0        2.760264   -2.007350   -2.822633
     28          1           0        3.169644   -2.111526   -1.109310
     29          1           0        0.782207   -3.363458   -2.547587
     30          1           0        1.714873   -4.034171   -1.216843
     31          1           0        0.231928   -3.096496    0.334766
     32          1           0       -2.262552   -3.879746   -0.239973
     33          1           0       -2.026581   -2.546447    0.907277
     34          1           0       -3.234976   -2.389075   -0.419587
     35          1           0       -1.899075   -3.067023   -2.873138
     36          1           0       -2.390272   -1.403282   -2.520785
     37          1           0       -0.717939   -1.745133   -3.094342
     38          8           0        1.908825    1.647464   -1.536484
     39          8           0        3.682974    0.384455   -0.923066
     40          6           0        2.691626    2.857769   -1.331071
     41          6           0        1.862298    4.028658   -1.817033
     42          1           0        2.927844    2.930511   -0.260594
     43          1           0        3.636752    2.753096   -1.880279
     44          1           0        2.421826    4.961184   -1.653963
     45          1           0        1.646537    3.938799   -2.890940
     46          1           0        0.911579    4.089054   -1.271610
 ---------------------------------------------------------------------

 SCF Done:  E(UB3LYP) =  -3531.44073532     A.U. after   14 cycles

 The electronic state is 6-A.
 Alpha  occ. eigenvalues -- -256.20696-101.52424-101.52232-101.52225 -30.20096
 Alpha  occ. eigenvalues --  -26.05393 -26.05363 -26.05227 -19.20255 -19.17933
 Alpha  occ. eigenvalues --  -19.15161 -10.32749 -10.32546 -10.28357 -10.24723
 Alpha  occ. eigenvalues --  -10.22355 -10.21683 -10.21635 -10.21603 -10.21333
 Alpha  occ. eigenvalues --  -10.20427 -10.20379 -10.20204 -10.20145 -10.20077
 Alpha  occ. eigenvalues --  -10.20026 -10.19753 -10.18533  -9.44149  -9.43949
 Alpha  occ. eigenvalues --   -9.43948  -7.20011  -7.19821  -7.19821  -7.19699
 Alpha  occ. eigenvalues --   -7.19689  -7.19495  -7.19494  -7.19486  -7.19484
 Alpha  occ. eigenvalues --   -3.67768  -2.45241  -2.45181  -2.44913  -1.11978
 Alpha  occ. eigenvalues --   -1.03537  -1.02980  -0.88298  -0.87081  -0.84453
 Alpha  occ. eigenvalues --   -0.80351  -0.79640  -0.79490  -0.78858  -0.77556
 Alpha  occ. eigenvalues --   -0.76102  -0.75304  -0.74008  -0.72138  -0.66409
 Alpha  occ. eigenvalues --   -0.63922  -0.62096  -0.60941  -0.59689  -0.57097
 Alpha  occ. eigenvalues --   -0.56295  -0.54747  -0.53118  -0.51317  -0.50302
 Alpha  occ. eigenvalues --   -0.49885  -0.49516  -0.48760  -0.48086  -0.47903
 Alpha  occ. eigenvalues --   -0.47695  -0.47480  -0.47195  -0.46619  -0.46089
 Alpha  occ. eigenvalues --   -0.45560  -0.44508  -0.44287  -0.43217  -0.42968
 Alpha  occ. eigenvalues --   -0.42505  -0.41648  -0.41080  -0.40466  -0.40334
 Alpha  occ. eigenvalues --   -0.39868  -0.38527  -0.38160  -0.37486  -0.37364
 Alpha  occ. eigenvalues --   -0.36854  -0.36068  -0.35950  -0.35720  -0.35564
 Alpha  occ. eigenvalues --   -0.34543  -0.34435  -0.34121  -0.32601  -0.31740
 Alpha  occ. eigenvalues --   -0.31160  -0.31110  -0.30877  -0.30784  -0.30212
 Alpha  occ. eigenvalues --   -0.29721  -0.29627  -0.28870  -0.26767  -0.26346
 Alpha virt. eigenvalues --   -0.11189  -0.03363  -0.02831  -0.01492  -0.01325
 Alpha virt. eigenvalues --   -0.00204  -0.00065   0.00098   0.01451   0.01673
 Alpha virt. eigenvalues --    0.01733   0.01822   0.02415   0.03236   0.03797

  Beta  occ. eigenvalues -- -256.20511-101.52244-101.52056-101.52043 -30.11162
  Beta  occ. eigenvalues --  -25.97927 -25.97875 -25.97840 -19.20255 -19.17337
  Beta  occ. eigenvalues --  -19.15158 -10.32749 -10.32545 -10.28325 -10.24723
  Beta  occ. eigenvalues --  -10.22341 -10.21667 -10.21631 -10.21603 -10.21325
  Beta  occ. eigenvalues --  -10.20425 -10.20375 -10.20204 -10.20144 -10.20077
  Beta  occ. eigenvalues --  -10.20026 -10.19751 -10.18531  -9.43973  -9.43776
  Beta  occ. eigenvalues --   -9.43769  -7.19720  -7.19518  -7.19513  -7.19455
  Beta  occ. eigenvalues --   -7.19446  -7.19263  -7.19253  -7.19250  -7.19248
  Beta  occ. eigenvalues --   -3.46937  -2.23256  -2.23138  -2.23082  -1.11976
  Beta  occ. eigenvalues --   -1.03533  -1.01877  -0.88032  -0.87062  -0.84416
  Beta  occ. eigenvalues --   -0.79197  -0.78869  -0.78376  -0.78244  -0.77486
  Beta  occ. eigenvalues --   -0.76090  -0.75274  -0.73999  -0.71973  -0.66352
  Beta  occ. eigenvalues --   -0.63883  -0.62066  -0.60907  -0.59544  -0.57068
  Beta  occ. eigenvalues --   -0.55761  -0.54703  -0.52155  -0.51223  -0.50236
  Beta  occ. eigenvalues --   -0.49627  -0.49087  -0.47710  -0.47448  -0.46671
  Beta  occ. eigenvalues --   -0.46057  -0.44622  -0.44286  -0.43256  -0.43013
  Beta  occ. eigenvalues --   -0.42578  -0.41607  -0.40992  -0.40481  -0.40327
  Beta  occ. eigenvalues --   -0.39854  -0.38303  -0.38058  -0.37661  -0.37324
  Beta  occ. eigenvalues --   -0.36859  -0.36412  -0.36004  -0.35876  -0.35821
  Beta  occ. eigenvalues --   -0.35757  -0.35437  -0.34531  -0.33355  -0.33194
  Beta  occ. eigenvalues --   -0.32769  -0.32434  -0.32048  -0.31650  -0.30511
  Beta  occ. eigenvalues --   -0.29750  -0.29700  -0.28842  -0.26761  -0.26312
  Beta virt. eigenvalues --   -0.14740  -0.14254  -0.13470  -0.13189  -0.12528
  Beta virt. eigenvalues --   -0.10443  -0.03282  -0.02804  -0.01389  -0.01286
  Beta virt. eigenvalues --   -0.00143  -0.00039   0.00124   0.01480   0.01692

 Mulliken charges and spin densities:
               1          2
     1  C   -0.371462   0.003075
     2  C    3.619880  -0.002441
     3  C   -0.488438  -0.011183
     4  C    0.020281   0.002137
     5  C    0.213484  -0.000002
     6  C   -0.138446   0.001257
     7  C   -3.047727   0.018123
     8  C    0.420681   0.004041
     9  C    0.590826   0.001466
    10  C    0.669245   0.002314
    11  C    1.171919   0.005483
    12  C   -0.885066   0.003398
    13  C    0.304820  -0.004633
    14  O   -0.305549   0.186149
    15  Fe   0.644267   4.054662
    16  Cl  -0.521069   0.239632
    17  C    0.462590   0.002520
    18  Cl  -0.472776   0.248481
    19  Cl  -0.492669   0.241405
    20  H   -0.301080   0.000628
    21  H   -0.167479  -0.000030
    22  H   -0.162361   0.000023
    23  H   -0.158760   0.000071
    24  H   -0.197731   0.000015
    25  H   -0.208110   0.000157
    26  C    0.939981   0.003066
    27  H   -0.146717   0.000544
    28  H   -0.061809   0.000033
    29  H   -0.086131  -0.000037
    30  H   -0.106247   0.000334
    31  H   -0.192057   0.000624
    32  H    0.059091  -0.000525
    33  H    0.075441  -0.000482
    34  H    0.034670  -0.000513
    35  H    0.078307   0.001704
    36  H    0.074534  -0.000612
    37  H    0.061329  -0.000093
    38  O   -0.711120  -0.000847
    39  O   -0.658415   0.000853
    40  C    0.422483  -0.001086
    41  C    0.058977   0.000774
    42  H   -0.039833   0.000005
    43  H   -0.049125   0.000004
    44  H   -0.005087   0.000052
    45  H    0.021721  -0.000014
    46  H    0.030739  -0.000537
 Sum of Mulliken charges =  -0.00000   5.00000

 Dipole moment (field-independent basis, Debye):
    X=              4.2383    Y=            -11.3224    Z=             -5.6901  Tot=             13.3618
 Quadrupole moment (field-independent basis, Debye-Ang):
   XX=           -204.0674   YY=           -145.9171   ZZ=           -167.6644
   XY=             18.6907   XZ=             10.2686   YZ=              8.5193

 Normal termination of Gaussian 16 at Sun Jun 20 08:39:43 2021.
