 Gaussian 16, Revision A.03,

 -----------------------------------------------------------
 #p opt=modredundant freq=noraman ub3lyp jul-cc-pvdz pop=cm5
 -----------------------------------------------------------

 -----
 title
 -----
 Symbolic Z-matrix:
 Charge =  0 Multiplicity = 6

 SCF Done:  E(UB3LYP) =  -3531.40980409     A.U. after   25 cycles
 SCF Done:  E(UB3LYP) =  -3531.41037694     A.U. after   14 cycles
 SCF Done:  E(UB3LYP) =  -3531.40982919     A.U. after   15 cycles
 SCF Done:  E(UB3LYP) =  -3531.41055958     A.U. after   14 cycles
 SCF Done:  E(UB3LYP) =  -3531.41061185     A.U. after   15 cycles
 SCF Done:  E(UB3LYP) =  -3531.41064638     A.U. after   15 cycles
 SCF Done:  E(UB3LYP) =  -3531.41066091     A.U. after   14 cycles
 SCF Done:  E(UB3LYP) =  -3531.41067194     A.U. after   12 cycles
 SCF Done:  E(UB3LYP) =  -3531.41068245     A.U. after   13 cycles
 SCF Done:  E(UB3LYP) =  -3531.41068653     A.U. after   13 cycles
 SCF Done:  E(UB3LYP) =  -3531.41069498     A.U. after   12 cycles
 SCF Done:  E(UB3LYP) =  -3531.41069585     A.U. after   11 cycles
 SCF Done:  E(UB3LYP) =  -3531.41069649     A.U. after   11 cycles
 SCF Done:  E(UB3LYP) =  -3531.41069697     A.U. after   11 cycles
 SCF Done:  E(UB3LYP) =  -3531.41069718     A.U. after   11 cycles
 SCF Done:  E(UB3LYP) =  -3531.41069722     A.U. after   10 cycles
 SCF Done:  E(UB3LYP) =  -3531.41069725     A.U. after    9 cycles
 Optimization completed.
    -- Stationary point found.
 Normal termination of Gaussian 16 at Sun Jun 20 04:00:45 2021.

 ----------------------------------------------------------------------
 #P Geom=AllCheck Guess=TCheck SCRF=Check GenChk UB3LYP/Jul-CC-pVDZ Fre
 q
 ----------------------------------------------------------------------

 Structure from the checkpoint file:  "checkpoint.chk"
 -----
 title
 -----
 Charge =  0 Multiplicity = 6

 SCF Done:  E(UB3LYP) =  -3531.41069725     A.U. after    2 cycles

  Exact polarizability: 330.169   6.046 289.146  13.538  13.360 282.669
 Approx polarizability: 494.538   5.636 439.100  12.550  30.534 465.008

 ******    1 imaginary frequencies (negative Signs) ******

                      1                      2                      3
                      A                      A                      A
 Frequencies --   -373.3964                13.4857                25.5461
 Red. masses --      7.2260                 5.1897                 5.3319
 Frc consts  --      0.5936                 0.0006                 0.0021
 IR Inten    --     65.6160                 1.1155                 1.4499

                      4                      5                      6
                      A                      A                      A
 Frequencies --     32.9731                37.0956                41.6145
 Red. masses --      7.0604                 5.8519                 4.0510
 Frc consts  --      0.0045                 0.0047                 0.0041
 IR Inten    --      0.9141                 0.2197                 2.2403

                      7                      8                      9
                      A                      A                      A
 Frequencies --     52.5166                62.3432                71.7017
 Red. masses --      5.6391                 2.7766                 4.1216
 Frc consts  --      0.0092                 0.0064                 0.0125
 IR Inten    --      0.3219                 0.1477                 2.5098

                     10                     11                     12
                      A                      A                      A
 Frequencies --     81.7442                88.1599                95.6382
 Red. masses --      7.5004                10.6196                 5.3839
 Frc consts  --      0.0295                 0.0486                 0.0290
 IR Inten    --      1.3737                 1.0964                 4.1835

                     13                     14                     15
                      A                      A                      A
 Frequencies --     97.9404               113.0387               117.9163
 Red. masses --     10.2765                 4.1906                 3.9130
 Frc consts  --      0.0581                 0.0315                 0.0321
 IR Inten    --      4.3520                 1.6694                 1.0106

                     16                     17                     18
                      A                      A                      A
 Frequencies --    128.4086               132.9143               155.0080
 Red. masses --      4.4576                 4.7601                 1.3528
 Frc consts  --      0.0433                 0.0495                 0.0192
 IR Inten    --      3.8275                 0.5414                 0.2442

                     19                     20                     21
                      A                      A                      A
 Frequencies --    156.9526               180.0405               184.3742
 Red. masses --      4.0559                 2.6660                 3.3855
 Frc consts  --      0.0589                 0.0509                 0.0678
 IR Inten    --      2.4794                10.1395                 2.8956

                     22                     23                     24
                      A                      A                      A
 Frequencies --    210.2107               219.7576               240.9752
 Red. masses --      1.6795                 1.8281                 4.0235
 Frc consts  --      0.0437                 0.0520                 0.1377
 IR Inten    --      2.7623                17.7132                 2.6245

                     25                     26                     27
                      A                      A                      A
 Frequencies --    252.6436               265.8578               289.8040
 Red. masses --      1.7810                 3.7758                 3.2726
 Frc consts  --      0.0670                 0.1572                 0.1619
 IR Inten    --      2.2011                 8.1012                 5.3890

                     28                     29                     30
                      A                      A                      A
 Frequencies --    301.6257               316.9330               330.9349
 Red. masses --      3.8533                 3.8837                18.7999
 Frc consts  --      0.2065                 0.2298                 1.2131
 IR Inten    --      0.9768                24.1534                46.5373

                     31                     32                     33
                      A                      A                      A
 Frequencies --    355.0026               360.8539               373.0412
 Red. masses --      5.7171                29.1348                 3.8325
 Frc consts  --      0.4245                 2.2352                 0.3142
 IR Inten    --      8.3729                75.3948                11.1296

                     34                     35                     36
                      A                      A                      A
 Frequencies --    393.2888               411.5617               412.8535
 Red. masses --     22.6042                 2.9647                 3.2662
 Frc consts  --      2.0600                 0.2959                 0.3280
 IR Inten    --     75.8702                 5.8883                 9.2763

                     37                     38                     39
                      A                      A                      A
 Frequencies --    431.8687               469.7433               492.9245
 Red. masses --      4.2977                 3.7399                 2.8139
 Frc consts  --      0.4723                 0.4862                 0.4028
 IR Inten    --     11.9464                 2.8215                 6.5720

                     40                     41                     42
                      A                      A                      A
 Frequencies --    527.7055               539.7789               579.9277
 Red. masses --      2.5982                 3.2861                 3.1617
 Frc consts  --      0.4263                 0.5641                 0.6265
 IR Inten    --     18.0245                 2.3168                32.7956

                     43                     44                     45
                      A                      A                      A
 Frequencies --    623.5025               630.1041               674.5883
 Red. masses --      4.2719                 4.7285                 5.2719
 Frc consts  --      0.9785                 1.1061                 1.4135
 IR Inten    --     12.5593                 7.1862                99.6394

                     46                     47                     48
                      A                      A                      A
 Frequencies --    704.3418               719.5209               763.4546
 Red. masses --      1.8562                 3.1335                 3.4242
 Frc consts  --      0.5426                 0.9558                 1.1759
 IR Inten    --     26.6666                59.2513                 1.2969

                     49                     50                     51
                      A                      A                      A
 Frequencies --    770.9590               804.9620               819.6819
 Red. masses --      3.0336                 1.1294                 2.5575
 Frc consts  --      1.0624                 0.4312                 1.0124
 IR Inten    --     21.3449                 0.9149                12.3051

                     52                     53                     54
                      A                      A                      A
 Frequencies --    825.7184               842.0066               847.8909
 Red. masses --      1.3180                 3.4326                 1.4306
 Frc consts  --      0.5294                 1.4339                 0.6059
 IR Inten    --      1.2671                26.4353                 8.0194

                     55                     56                     57
                      A                      A                      A
 Frequencies --    867.7148               883.6546               920.2557
 Red. masses --      2.4454                 2.0188                 2.5451
 Frc consts  --      1.0848                 0.9288                 1.2699
 IR Inten    --     16.3575                 9.6291                 4.1370

                     58                     59                     60
                      A                      A                      A
 Frequencies --    931.7473               959.7245               983.3703
 Red. masses --      1.4878                 2.4196                 1.3762
 Frc consts  --      0.7610                 1.3131                 0.7841
 IR Inten    --      4.4765                13.9162                 1.6481

                     61                     62                     63
                      A                      A                      A
 Frequencies --    984.9732               996.6757              1000.4274
 Red. masses --      1.9964                 2.1460                 1.4343
 Frc consts  --      1.1412                 1.2560                 0.8458
 IR Inten    --     27.3496                 9.1407                 2.5239

                     64                     65                     66
                      A                      A                      A
 Frequencies --   1005.9660              1007.8120              1010.2918
 Red. masses --      1.7496                 2.6945                 2.2218
 Frc consts  --      1.0432                 1.6125                 1.3361
 IR Inten    --     15.1217                 9.8643                19.8849

                     67                     68                     69
                      A                      A                      A
 Frequencies --   1034.5618              1040.8992              1047.6685
 Red. masses --      1.7044                 3.0277                 2.2729
 Frc consts  --      1.0748                 1.9328                 1.4698
 IR Inten    --     19.4516                28.2227                 6.9493

                     70                     71                     72
                      A                      A                      A
 Frequencies --   1055.3109              1099.0596              1110.5693
 Red. masses --      2.3253                 1.7503                 2.0387
 Frc consts  --      1.5258                 1.2456                 1.4815
 IR Inten    --     20.9170                50.5853                15.8229

                     73                     74                     75
                      A                      A                      A
 Frequencies --   1119.7898              1133.8544              1137.2003
 Red. masses --      2.8709                 2.1963                 1.9046
 Frc consts  --      2.1210                 1.6636                 1.4512
 IR Inten    --     63.5222                12.4919               127.9516

                     76                     77                     78
                      A                      A                      A
 Frequencies --   1158.3154              1167.9906              1172.9658
 Red. masses --      1.7763                 1.5641                 1.0870
 Frc consts  --      1.4042                 1.2572                 0.8811
 IR Inten    --     10.8543                 3.4997                 0.4406

                     79                     80                     81
                      A                      A                      A
 Frequencies --   1192.5799              1200.6105              1229.4803
 Red. masses --      1.8690                 1.2846                 1.5963
 Frc consts  --      1.5662                 1.0910                 1.4217
 IR Inten    --     75.0963                24.6448                62.3170

                     82                     83                     84
                      A                      A                      A
 Frequencies --   1238.8429              1247.9216              1282.4378
 Red. masses --      2.9096                 1.7614                 1.1025
 Frc consts  --      2.6310                 1.6161                 1.0683
 IR Inten    --    245.1665                42.5605                 0.7726

                     85                     86                     87
                      A                      A                      A
 Frequencies --   1310.2821              1316.5857              1320.3492
 Red. masses --      1.4081                 1.5093                 1.4168
 Frc consts  --      1.4244                 1.5414                 1.4553
 IR Inten    --     42.2509                66.5837                71.8707

                     88                     89                     90
                      A                      A                      A
 Frequencies --   1324.0646              1332.3430              1349.5085
 Red. masses --      1.3578                 1.5484                 1.2019
 Frc consts  --      1.4025                 1.6194                 1.2896
 IR Inten    --     13.5709                27.4811                25.1602

                     91                     92                     93
                      A                      A                      A
 Frequencies --   1355.5159              1364.3373              1373.4588
 Red. masses --      3.4340                 1.4385                 1.6185
 Frc consts  --      3.7175                 1.5776                 1.7988
 IR Inten    --      1.1697                37.7421                59.0248

                     94                     95                     96
                      A                      A                      A
 Frequencies --   1390.0293              1416.8177              1419.6561
 Red. masses --      1.5623                 1.4110                 1.3911
 Frc consts  --      1.7785                 1.6688                 1.6519
 IR Inten    --     50.9731                30.0404                11.4615

                     97                     98                     99
                      A                      A                      A
 Frequencies --   1432.7227              1448.3704              1468.8551
 Red. masses --      1.1776                 1.2241                 2.2325
 Frc consts  --      1.4242                 1.5130                 2.8379
 IR Inten    --      9.8923                35.7529                17.2438

                    100                    101                    102
                      A                      A                      A
 Frequencies --   1473.4614              1483.3904              1484.8345
 Red. masses --      1.0391                 1.0519                 1.1112
 Frc consts  --      1.3292                 1.3638                 1.4434
 IR Inten    --      5.9731                 8.3626                 0.6981

                    103                    104                    105
                      A                      A                      A
 Frequencies --   1490.9444              1495.3601              1503.4161
 Red. masses --      1.1662                 1.2970                 1.2789
 Frc consts  --      1.5273                 1.7087                 1.7031
 IR Inten    --     14.7215                14.9518                 6.7647

                    106                    107                    108
                      A                      A                      A
 Frequencies --   1506.0245              1515.1782              1620.7383
 Red. masses --      1.0957                 2.1112                 5.7834
 Frc consts  --      1.4642                 2.8557                 8.9508
 IR Inten    --      5.4826                 5.1967                 0.3392

                    109                    110                    111
                      A                      A                      A
 Frequencies --   1640.7447              1762.2655              2982.3657
 Red. masses --      5.7313                11.7921                 1.0442
 Frc consts  --      9.0905                21.5766                 5.4723
 IR Inten    --      1.8150               225.4850                71.8002

                    112                    113                    114
                      A                      A                      A
 Frequencies --   2997.5621              3032.0605              3041.9329
 Red. masses --      1.0441                 1.0919                 1.0361
 Frc consts  --      5.5276                 5.9143                 5.6485
 IR Inten    --     16.5766                24.3701                14.4305

                    115                    116                    117
                      A                      A                      A
 Frequencies --   3053.5750              3055.8018              3056.8005
 Red. masses --      1.0912                 1.0617                 1.0581
 Frc consts  --      5.9949                 5.8414                 5.8254
 IR Inten    --     11.2160                23.8786                16.4978

                    118                    119                    120
                      A                      A                      A
 Frequencies --   3064.9695              3080.3898              3088.6699
 Red. masses --      1.0633                 1.0838                 1.0867
 Frc consts  --      5.8851                 6.0589                 6.1083
 IR Inten    --     17.6822                 2.0811                 5.4886

                    121                    122                    123
                      A                      A                      A
 Frequencies --   3102.1971              3107.0092              3118.1173
 Red. masses --      1.1078                 1.1014                 1.1007
 Frc consts  --      6.2814                 6.2643                 6.3051
 IR Inten    --      7.1490                 8.7503                23.6410

                    124                    125                    126
                      A                      A                      A
 Frequencies --   3120.3292              3135.1974              3166.4424
 Red. masses --      1.1034                 1.1047                 1.1001
 Frc consts  --      6.3295                 6.3974                 6.4988
 IR Inten    --     16.3726                23.1479                 5.4081

                    127                    128                    129
                      A                      A                      A
 Frequencies --   3168.1129              3168.8030              3178.0662
 Red. masses --      1.0998                 1.0850                 1.0888
 Frc consts  --      6.5036                 6.4193                 6.4791
 IR Inten    --      4.2119                 0.0888                 4.6682

                    130                    131                    132
                      A                      A                      A
 Frequencies --   3187.4408              3196.0656              3223.4778
 Red. masses --      1.0933                 1.0981                 1.0921
 Frc consts  --      6.5444                 6.6086                 6.6862
 IR Inten    --     15.1486                12.2386                 3.1379

 - Thermochemistry -
 -------------------
 Temperature   298.150 Kelvin.  Pressure   1.00000 Atm.
 Atom     1 has atomic number  6 and mass  12.00000

 Molecular mass:   434.99839 amu.
 Principal axes and moments of inertia in atomic units:
                           1         2         3
     Eigenvalues --  8520.20282********************
           X            0.99724   0.07199   0.01812
           Y           -0.07220   0.99733   0.01128
           Z           -0.01726  -0.01256   0.99977
 This molecule is an asymmetric top.
 Rotational symmetry number  1.
 Warning -- assumption of classical behavior for rotation
           may cause significant error
 Rotational temperatures (Kelvin)      0.01017     0.00749     0.00653
 Rotational constants (GHZ):           0.21182     0.15613     0.13612
    1 imaginary frequencies ignored.
 Zero-point vibrational energy     937996.4 (Joules/Mol)
                                  224.18652 (Kcal/Mol)
 Warning -- explicit consideration of  41 degrees of freedom as
           vibrations may cause significant error
 Vibrational temperatures:     19.40    36.76    47.44    53.37    59.87
          (Kelvin)             75.56    89.70   103.16   117.61   126.84
                              137.60   140.91   162.64   169.66   184.75
                              191.23   223.02   225.82   259.04   265.27
                              302.45   316.18   346.71   363.50   382.51
                              416.96   433.97   456.00   476.14   510.77
                              519.19   536.72   565.85   592.15   594.00
                              621.36   675.86   709.21   759.25   776.62
                              834.39   897.08   906.58   970.58  1013.39
                             1035.23  1098.44  1109.24  1158.16  1179.34
                             1188.02  1211.46  1219.93  1248.45  1271.38
                             1324.04  1340.58  1380.83  1414.85  1417.16
                             1433.99  1439.39  1447.36  1450.02  1453.58
                             1488.50  1497.62  1507.36  1518.36  1581.30
                             1597.86  1611.13  1631.36  1636.18  1666.56
                             1680.48  1687.64  1715.86  1727.41  1768.95
                             1782.42  1795.48  1845.14  1885.20  1894.27
                             1899.69  1905.03  1916.94  1941.64  1950.29
                             1962.98  1976.10  1999.94  2038.48  2042.57
                             2061.37  2083.88  2113.35  2119.98  2134.27
                             2136.35  2145.14  2151.49  2163.08  2166.83
                             2180.00  2331.88  2360.67  2535.51  4290.96
                             4312.82  4362.46  4376.66  4393.41  4396.62
                             4398.05  4409.81  4431.99  4443.91  4463.37
                             4470.29  4486.28  4489.46  4510.85  4555.80
                             4558.21  4559.20  4572.53  4586.02  4598.43
                             4637.87

 Zero-point correction=                           0.357264 (Hartree/Particle)
 Thermal correction to Energy=                    0.384809
 Thermal correction to Enthalpy=                  0.385754
 Thermal correction to Gibbs Free Energy=         0.293904
 Sum of electronic and zero-point Energies=          -3531.053433
 Sum of electronic and thermal Energies=             -3531.025888
 Sum of electronic and thermal Enthalpies=           -3531.024944
 Sum of electronic and thermal Free Energies=        -3531.116793

                     E (Thermal)             CV                S
                      KCal/Mol        Cal/Mol-Kelvin    Cal/Mol-Kelvin
 Total                  241.472             97.697            193.313
 Electronic               0.000              0.000              3.561
 Translational            0.889              2.981             44.100
 Rotational               0.889              2.981             35.522
 Vibrational            239.694             91.736            110.130
 Vibration     1          0.593              1.987              7.417
 Vibration     2          0.593              1.985              6.148
 Vibration     3          0.594              1.983              5.642
 Vibration     4          0.594              1.982              5.408
 Vibration     5          0.594              1.981              5.181
 Vibration     6          0.596              1.977              4.720
 Vibration     7          0.597              1.972              4.382
 Vibration     8          0.598              1.967              4.106
 Vibration     9          0.600              1.962              3.849
 Vibration    10          0.601              1.958              3.700
 Vibration    11          0.603              1.952              3.541
 Vibration    12          0.603              1.951              3.495
 Vibration    13          0.607              1.939              3.216
 Vibration    14          0.608              1.934              3.134
 Vibration    15          0.611              1.925              2.970
 Vibration    16          0.613              1.920              2.903
 Vibration    17          0.620              1.897              2.610
 Vibration    18          0.621              1.895              2.586
 Vibration    19          0.629              1.867              2.328
 Vibration    20          0.631              1.861              2.284
 Vibration    21          0.642              1.825              2.042
 Vibration    22          0.647              1.811              1.961
 Vibration    23          0.658              1.778              1.796
 Vibration    24          0.664              1.758              1.712
 Vibration    25          0.672              1.736              1.623
 Vibration    26          0.686              1.693              1.475
 Vibration    27          0.694              1.671              1.408
 Vibration    28          0.704              1.641              1.326
 Vibration    29          0.713              1.614              1.256
 Vibration    30          0.731              1.565              1.144
 Vibration    31          0.735              1.553              1.118
 Vibration    32          0.744              1.527              1.067
 Vibration    33          0.760              1.485              0.988
 Vibration    34          0.776              1.445              0.921
 Vibration    35          0.777              1.442              0.917
 Vibration    36          0.793              1.401              0.853
 Vibration    37          0.827              1.317              0.738
 Vibration    38          0.849              1.266              0.676
 Vibration    39          0.883              1.189              0.592
 Vibration    40          0.895              1.162              0.566
 Vibration    41          0.937              1.075              0.485

                           ! Non-Optimized Parameters !
 Normal termination of Gaussian 16 at Sun Jun 20 07:41:25 2021.

 ----------------------------------------------------------------------
 #p ub3lyp jul-cc-pvdz pop=cm5 scrf=(pcm,solvent=dichloroethane) guess=
 read geom=allcheck
 ----------------------------------------------------------------------

 Structure from the checkpoint file:  "checkpoint.chk"
 -----
 title
 -----
 Charge =  0 Multiplicity = 6

 SCF Done:  E(UB3LYP) =  -3531.43734822     A.U. after   18 cycles
 Normal termination of Gaussian 16 at Sun Jun 20 08:03:27 2021.
 Gaussian 16:  ES64L-G16RevA.03 25-Dec-2016

 ----------------------------------------------------------------------
 #p ub3lyp jul-cc-pvdz pop=cm5 scrf=(pcm,solvent=water) guess=read geom
 =allcheck
 ----------------------------------------------------------------------

 Structure from the checkpoint file:  "checkpoint.chk"
 -----
 title
 -----
 Charge =  0 Multiplicity = 6

                         Standard orientation:
 ---------------------------------------------------------------------
 Center     Atomic      Atomic             Coordinates (Angstroms)
 Number     Number       Type             X           Y           Z
 ---------------------------------------------------------------------
      1          6           0        2.838074   -1.680039    0.368042
      2          6           0        1.635107   -1.023336    0.683647
      3          6           0        1.492545   -0.458213    1.959686
      4          6           0        2.524868   -0.552889    2.899150
      5          6           0        3.712071   -1.215050    2.579238
      6          6           0        3.866205   -1.776394    1.305851
      7          6           0        0.505903   -0.888719   -0.334085
      8          6           0        0.906149   -0.158011   -1.683938
      9          6           0        1.072549   -1.225257   -2.771351
     10          6           0       -0.011801   -2.260334   -2.449422
     11          6           0        0.066666   -2.418625   -0.931127
     12          6           0       -1.133610   -2.681640   -0.147295
     13          6           0       -2.477579   -2.603365   -0.737571
     14          8           0       -0.631200   -0.370218    0.258803
     15         26           0       -2.016820    0.881231    0.333885
     16         17           0       -2.835091    0.953050   -1.763797
     17          6           0       -1.019442   -3.098775    1.259852
     18         17           0       -1.380899    2.847294    1.103436
     19         17           0       -3.476099   -0.129059    1.713196
     20          1           0        0.573207    0.067295    2.207297
     21          1           0        2.395314   -0.103840    3.884959
     22          1           0        4.515752   -1.291616    3.313212
     23          1           0        4.793433   -2.285419    1.039206
     24          1           0        2.991758   -2.108736   -0.622378
     25          1           0        0.037829    0.470913   -1.917052
     26          6           0        2.117904    0.754890   -1.559934
     27          1           0        0.960815   -0.798296   -3.775852
     28          1           0        2.077957   -1.664088   -2.719170
     29          1           0       -0.989325   -1.868790   -2.757054
     30          1           0        0.143694   -3.217019   -2.966840
     31          1           0        0.871414   -3.095920   -0.622624
     32          1           0        0.001909   -3.071476    1.648571
     33          1           0       -1.700119   -2.479585    1.867058
     34          1           0       -1.415606   -4.129834    1.323976
     35          1           0       -2.538091   -3.372315   -1.529610
     36          1           0       -3.275900   -2.745839   -0.004527
     37          1           0       -2.618995   -1.641497   -1.260795
     38          8           0        1.810885    1.872392   -0.887833
     39          8           0        3.214335    0.510521   -2.022284
     40          6           0        2.889892    2.827627   -0.681896
     41          6           0        2.305620    4.035452    0.021004
     42          1           0        3.671533    2.334322   -0.087878
     43          1           0        3.316763    3.078495   -1.662206
     44          1           0        3.104236    4.769661    0.201725
     45          1           0        1.527069    4.509193   -0.591624
     46          1           0        1.859302    3.755047    0.983838
 ---------------------------------------------------------------------

 SCF Done:  E(UB3LYP) =  -3531.44225782     A.U. after   15 cycles

 The electronic state is 6-A.
 Alpha  occ. eigenvalues -- -256.19681-101.51793-101.51787-101.51505 -30.19090
 Alpha  occ. eigenvalues --  -26.04410 -26.04319 -26.04231 -19.20222 -19.15772
 Alpha  occ. eigenvalues --  -19.15166 -10.32793 -10.32425 -10.30128 -10.24754
 Alpha  occ. eigenvalues --  -10.23173 -10.22034 -10.21926 -10.21775 -10.21286
 Alpha  occ. eigenvalues --  -10.20417 -10.20353 -10.20263 -10.20211 -10.20110
 Alpha  occ. eigenvalues --  -10.20041 -10.19863 -10.18543  -9.43526  -9.43484
 Alpha  occ. eigenvalues --   -9.43219  -7.19380  -7.19351  -7.19089  -7.19083
 Alpha  occ. eigenvalues --   -7.19058  -7.19036  -7.19014  -7.18769  -7.18741
 Alpha  occ. eigenvalues --   -3.66820  -2.44358  -2.44136  -2.44021  -1.12061
 Alpha  occ. eigenvalues --   -1.03564  -1.03519  -0.88988  -0.87125  -0.84472
 Alpha  occ. eigenvalues --   -0.79689  -0.79053  -0.78882  -0.78766  -0.77664
 Alpha  occ. eigenvalues --   -0.75903  -0.75428  -0.74617  -0.71672  -0.66385
 Alpha  occ. eigenvalues --   -0.64195  -0.61888  -0.61341  -0.59467  -0.57037
 Alpha  occ. eigenvalues --   -0.56726  -0.54465  -0.53126  -0.51391  -0.50926
 Alpha  occ. eigenvalues --   -0.50283  -0.49008  -0.48859  -0.48329  -0.47449
 Alpha  occ. eigenvalues --   -0.47130  -0.46959  -0.46608  -0.46279  -0.45946
 Alpha  occ. eigenvalues --   -0.44855  -0.44523  -0.43964  -0.43298  -0.43040
 Alpha  occ. eigenvalues --   -0.42736  -0.42026  -0.41260  -0.40864  -0.40426
 Alpha  occ. eigenvalues --   -0.39921  -0.38835  -0.37756  -0.37423  -0.36988
 Alpha  occ. eigenvalues --   -0.36736  -0.36459  -0.36117  -0.35687  -0.35366
 Alpha  occ. eigenvalues --   -0.34814  -0.34075  -0.33746  -0.31767  -0.31513
 Alpha  occ. eigenvalues --   -0.30714  -0.30592  -0.30464  -0.29991  -0.29673
 Alpha  occ. eigenvalues --   -0.29418  -0.28597  -0.28328  -0.26734  -0.26085
 Alpha virt. eigenvalues --   -0.13622  -0.03067  -0.02718  -0.01521  -0.01215
 Alpha virt. eigenvalues --   -0.00180  -0.00074   0.00013   0.01441   0.01543
 Alpha virt. eigenvalues --    0.01815   0.02025   0.02327   0.03489   0.03715

  Beta  occ. eigenvalues -- -256.19496-101.51633-101.51617-101.51347 -30.10156
  Beta  occ. eigenvalues --  -25.96937 -25.96880 -25.96804 -19.20222 -19.15162
  Beta  occ. eigenvalues --  -19.14974 -10.32794 -10.32427 -10.30108 -10.24754
  Beta  occ. eigenvalues --  -10.23138 -10.22032 -10.21927 -10.21757 -10.21263
  Beta  occ. eigenvalues --  -10.20414 -10.20353 -10.20261 -10.20211 -10.20110
  Beta  occ. eigenvalues --  -10.20042 -10.19862 -10.18543  -9.43360  -9.43327
  Beta  occ. eigenvalues --   -9.43063  -7.19107  -7.19066  -7.18847  -7.18834
  Beta  occ. eigenvalues --   -7.18829  -7.18816  -7.18809  -7.18555  -7.18552
  Beta  occ. eigenvalues --   -3.45996  -2.22314  -2.22261  -2.22113  -1.12058
  Beta  occ. eigenvalues --   -1.03514  -1.02025  -0.88807  -0.87084  -0.84406
  Beta  occ. eigenvalues --   -0.78882  -0.78636  -0.77908  -0.77676  -0.77521
  Beta  occ. eigenvalues --   -0.75893  -0.75392  -0.74610  -0.71530  -0.66236
  Beta  occ. eigenvalues --   -0.64113  -0.61831  -0.61300  -0.59238  -0.56970
  Beta  occ. eigenvalues --   -0.56179  -0.54340  -0.52355  -0.51182  -0.50653
  Beta  occ. eigenvalues --   -0.50164  -0.48809  -0.48324  -0.47873  -0.46427
  Beta  occ. eigenvalues --   -0.45843  -0.44753  -0.44349  -0.43320  -0.43077
  Beta  occ. eigenvalues --   -0.42770  -0.42012  -0.41310  -0.40880  -0.40364
  Beta  occ. eigenvalues --   -0.39926  -0.38810  -0.37658  -0.37535  -0.37178
  Beta  occ. eigenvalues --   -0.36867  -0.36617  -0.36074  -0.35744  -0.35507
  Beta  occ. eigenvalues --   -0.35335  -0.35132  -0.34724  -0.32823  -0.32552
  Beta  occ. eigenvalues --   -0.32193  -0.31843  -0.31719  -0.31574  -0.29814
  Beta  occ. eigenvalues --   -0.29398  -0.28636  -0.28278  -0.26736  -0.26057
  Beta virt. eigenvalues --   -0.13906  -0.13355  -0.13230  -0.12452  -0.12160
  Beta virt. eigenvalues --   -0.11226  -0.03029  -0.02691  -0.01410  -0.01178
  Beta virt. eigenvalues --   -0.00138  -0.00040   0.00043   0.01453   0.01570

 Mulliken charges and spin densities:
               1          2
     1  C   -0.016483   0.001836
     2  C    2.597716   0.001966
     3  C   -0.453385  -0.009901
     4  C   -0.009249   0.004222
     5  C    0.228331  -0.000654
     6  C   -0.091774   0.001419
     7  C   -2.041494   0.006912
     8  C    0.411604   0.011140
     9  C    0.661919   0.001203
    10  C    0.614770   0.000626
    11  C    0.621350   0.022536
    12  C   -0.435508  -0.002787
    13  C    0.298701  -0.000699
    14  O   -0.503364   0.258684
    15  Fe   0.655390   4.046702
    16  Cl  -0.567449   0.207373
    17  C    0.335144  -0.000711
    18  Cl  -0.489842   0.235476
    19  Cl  -0.551498   0.212575
    20  H   -0.199279   0.001791
    21  H   -0.158763   0.000003
    22  H   -0.164789   0.000010
    23  H   -0.159781   0.000209
    24  H   -0.185844  -0.000082
    25  H   -0.232721   0.000388
    26  C    0.919279  -0.004053
    27  H   -0.155759   0.000386
    28  H   -0.061619  -0.000122
    29  H   -0.081234  -0.000227
    30  H   -0.146891   0.000597
    31  H   -0.187650   0.000183
    32  H    0.061452   0.000016
    33  H    0.104884  -0.000437
    34  H    0.059037   0.000171
    35  H    0.078273  -0.000398
    36  H    0.000551  -0.000164
    37  H    0.155539   0.001369
    38  O   -0.695762   0.000567
    39  O   -0.670875   0.001582
    40  C    0.444033   0.000996
    41  C    0.059949  -0.000672
    42  H   -0.035582   0.000012
    43  H   -0.042275   0.000008
    44  H   -0.009345   0.000035
    45  H    0.020836   0.000030
    46  H    0.019458  -0.000113
 Sum of Mulliken charges =  -0.00000   5.00000

 Dipole moment (field-independent basis, Debye):
    X=              5.7150    Y=            -13.2293    Z=             -1.3495  Tot=             14.4740
 Quadrupole moment (field-independent basis, Debye-Ang):
   XX=           -197.0877   YY=           -148.4429   ZZ=           -176.9002
   XY=             22.1620   XZ=             14.6373   YZ=              1.9852

 Normal termination of Gaussian 16 at Sun Jun 20 08:21:49 2021.
