 Gaussian 16, Revision A.03,

 -----------------------------------------------------------
 #p opt=modredundant freq=noraman ub3lyp jul-cc-pvdz pop=cm5
 -----------------------------------------------------------

 -----
 title
 -----
 Symbolic Z-matrix:
 Charge =  0 Multiplicity = 6

 SCF Done:  E(UB3LYP) =  -3531.43612836     A.U. after   25 cycles
 SCF Done:  E(UB3LYP) =  -3531.43581874     A.U. after   21 cycles
 SCF Done:  E(UB3LYP) =  -3531.43425865     A.U. after   18 cycles
 SCF Done:  E(UB3LYP) =  -3531.43402648     A.U. after   17 cycles
 SCF Done:  E(UB3LYP) =  -3531.43636248     A.U. after   12 cycles
 SCF Done:  E(UB3LYP) =  -3531.43597839     A.U. after   17 cycles
 SCF Done:  E(UB3LYP) =  -3531.43667928     A.U. after   16 cycles
 SCF Done:  E(UB3LYP) =  -3531.43676479     A.U. after   15 cycles
 SCF Done:  E(UB3LYP) =  -3531.43687464     A.U. after   13 cycles
 SCF Done:  E(UB3LYP) =  -3531.43689089     A.U. after   14 cycles
 SCF Done:  E(UB3LYP) =  -3531.43692558     A.U. after   11 cycles
 SCF Done:  E(UB3LYP) =  -3531.43692564     A.U. after   11 cycles
 SCF Done:  E(UB3LYP) =  -3531.43692561     A.U. after   11 cycles
 SCF Done:  E(UB3LYP) =  -3531.43692558     A.U. after   11 cycles
 SCF Done:  E(UB3LYP) =  -3531.43692557     A.U. after   11 cycles
 SCF Done:  E(UB3LYP) =  -3531.43692557     A.U. after   11 cycles
 SCF Done:  E(UB3LYP) =  -3531.43692557     A.U. after   10 cycles
 Optimization completed.
    -- Stationary point found.
 Normal termination of Gaussian 16 at Sun Jun 20 16:58:46 2021.

 ----------------------------------------------------------------------
 #P Geom=AllCheck Guess=TCheck SCRF=Check GenChk UB3LYP/Jul-CC-pVDZ Fre
 q
 ----------------------------------------------------------------------

 Structure from the checkpoint file:  "checkpoint.chk"
 -----
 title
 -----
 Charge =  0 Multiplicity = 6

 SCF Done:  E(UB3LYP) =  -3531.43692557     A.U. after    1 cycles

  Exact polarizability: 315.910  16.510 309.804  11.494   7.767 297.032
 Approx polarizability: 487.466  45.224 465.864   3.722   6.166 496.866

 ******    1 imaginary frequencies (negative Signs) ******

                      1                      2                      3
                      A                      A                      A
 Frequencies --    -15.7383                13.8891                26.0114
 Red. masses --      7.5177                 4.8671                 3.9151
 Frc consts  --      0.0011                 0.0006                 0.0016
 IR Inten    --      0.4617                 0.8329                 0.7366

                      4                      5                      6
                      A                      A                      A
 Frequencies --     32.1403                45.7481                54.0616
 Red. masses --      7.1262                 4.1866                 7.4527
 Frc consts  --      0.0043                 0.0052                 0.0128
 IR Inten    --      0.2015                 0.7255                 1.8684

                      7                      8                      9
                      A                      A                      A
 Frequencies --     61.8500                66.8401                74.0627
 Red. masses --      3.1586                 5.2956                 2.5961
 Frc consts  --      0.0071                 0.0139                 0.0084
 IR Inten    --      1.0235                 2.4823                 0.4435

                     10                     11                     12
                      A                      A                      A
 Frequencies --     84.6276                88.6878                93.3977
 Red. masses --      3.5259                 3.1049                 4.9973
 Frc consts  --      0.0149                 0.0144                 0.0257
 IR Inten    --      0.3904                 1.4944                 1.8901

                     13                     14                     15
                      A                      A                      A
 Frequencies --     99.1319               105.0386               117.2716
 Red. masses --      5.2628                 4.4048                10.5226
 Frc consts  --      0.0305                 0.0286                 0.0853
 IR Inten    --      1.4928                 0.0567                 0.5661

                     16                     17                     18
                      A                      A                      A
 Frequencies --    120.0977               129.1544               132.9978
 Red. masses --      4.1920                 4.1588                 3.0247
 Frc consts  --      0.0356                 0.0409                 0.0315
 IR Inten    --      6.3776                 1.3170                 1.9899

                     19                     20                     21
                      A                      A                      A
 Frequencies --    145.8961               170.5639               175.0702
 Red. masses --      4.2120                 3.6153                 1.4625
 Frc consts  --      0.0528                 0.0620                 0.0264
 IR Inten    --      3.6678                44.0047                 2.3166

                     22                     23                     24
                      A                      A                      A
 Frequencies --    198.9797               211.0792               225.2050
 Red. masses --      3.2559                 2.7063                 3.3626
 Frc consts  --      0.0760                 0.0710                 0.1005
 IR Inten    --      0.2990                 4.5270                 9.6965

                     25                     26                     27
                      A                      A                      A
 Frequencies --    248.0673               258.8195               289.3650
 Red. masses --      3.9629                 1.6766                 3.9957
 Frc consts  --      0.1437                 0.0662                 0.1971
 IR Inten    --    100.3928                 3.9169                 2.9381

                     28                     29                     30
                      A                      A                      A
 Frequencies --    303.4277               310.1287               343.8653
 Red. masses --      2.5817                 6.5263                21.8868
 Frc consts  --      0.1400                 0.3698                 1.5248
 IR Inten    --      8.0972                 4.4980                50.4795

                     31                     32                     33
                      A                      A                      A
 Frequencies --    356.0478               379.9535               394.4596
 Red. masses --      4.5606                 5.5992                10.6359
 Frc consts  --      0.3406                 0.4763                 0.9751
 IR Inten    --      1.3926                15.7519                68.2554

                     34                     35                     36
                      A                      A                      A
 Frequencies --    397.4245               400.0261               411.9680
 Red. masses --      4.9014                 7.8486                 2.9110
 Frc consts  --      0.4561                 0.7400                 0.2911
 IR Inten    --     47.6625                48.9745                 1.3693

                     37                     38                     39
                      A                      A                      A
 Frequencies --    428.3383               455.6203               481.8927
 Red. masses --      3.8684                 3.5804                 2.4897
 Frc consts  --      0.4182                 0.4379                 0.3406
 IR Inten    --     39.7924                 4.4005                 5.8624

                     40                     41                     42
                      A                      A                      A
 Frequencies --    499.5522               520.3557               535.2977
 Red. masses --      2.9260                 3.2749                 3.5550
 Frc consts  --      0.4302                 0.5225                 0.6002
 IR Inten    --      4.5893                 4.3322                29.9233

                     43                     44                     45
                      A                      A                      A
 Frequencies --    586.6865               625.1346               645.5426
 Red. masses --      4.9045                 6.2600                 4.0885
 Frc consts  --      0.9946                 1.4414                 1.0038
 IR Inten    --     71.3319                 5.9561               110.3652

                     46                     47                     48
                      A                      A                      A
 Frequencies --    695.0552               696.3877               751.5046
 Red. masses --      2.6837                 2.4927                 4.1292
 Frc consts  --      0.7639                 0.7122                 1.3740
 IR Inten    --     59.4854                15.4767                 6.1841

                     49                     50                     51
                      A                      A                      A
 Frequencies --    768.9203               801.3128               810.3082
 Red. masses --      2.2634                 1.5020                 1.9340
 Frc consts  --      0.7885                 0.5682                 0.7482
 IR Inten    --     13.2602                11.6852                 8.9802

                     52                     53                     54
                      A                      A                      A
 Frequencies --    822.3372               846.4206               862.0774
 Red. masses --      3.3665                 1.2579                 1.8684
 Frc consts  --      1.3413                 0.5310                 0.8181
 IR Inten    --     12.9809                 1.7552                 5.0062

                     55                     56                     57
                      A                      A                      A
 Frequencies --    869.9872               910.1220               922.9715
 Red. masses --      1.9260                 1.8810                 1.8636
 Frc consts  --      0.8589                 0.9180                 0.9354
 IR Inten    --     33.0550                 7.6745                11.8955

                     58                     59                     60
                      A                      A                      A
 Frequencies --    944.3886               956.9809               970.9606
 Red. masses --      1.4081                 1.4225                 3.3274
 Frc consts  --      0.7399                 0.7675                 1.8482
 IR Inten    --      0.3217                 3.2708                18.2738

                     61                     62                     63
                      A                      A                      A
 Frequencies --    987.8124               988.3517               996.0207
 Red. masses --      1.7849                 1.5155                 1.5386
 Frc consts  --      1.0261                 0.8722                 0.8993
 IR Inten    --     58.5262                 2.2362                 8.5701

                     64                     65                     66
                      A                      A                      A
 Frequencies --   1003.1135              1007.7200              1020.3615
 Red. masses --      2.3801                 1.8598                 1.9760
 Frc consts  --      1.4111                 1.1127                 1.2121
 IR Inten    --      0.5692                 1.5369                11.5046

                     67                     68                     69
                      A                      A                      A
 Frequencies --   1038.5026              1047.4894              1073.0407
 Red. masses --      2.6987                 2.3096                 2.1922
 Frc consts  --      1.7148                 1.4931                 1.4872
 IR Inten    --     49.2705                 3.1319                 0.9551

                     70                     71                     72
                      A                      A                      A
 Frequencies --   1086.0538              1098.3575              1111.0914
 Red. masses --      1.8160                 1.8750                 1.5683
 Frc consts  --      1.2620                 1.3328                 1.1407
 IR Inten    --      0.4694                14.5630                 9.3489

                     73                     74                     75
                      A                      A                      A
 Frequencies --   1133.3678              1139.3039              1163.1620
 Red. masses --      2.1568                 2.2808                 1.6760
 Frc consts  --      1.6323                 1.7443                 1.3360
 IR Inten    --     14.3100                 4.4651                49.9157

                     76                     77                     78
                      A                      A                      A
 Frequencies --   1170.0022              1176.4333              1201.0168
 Red. masses --      1.5728                 1.0877                 1.2782
 Frc consts  --      1.2685                 0.8870                 1.0863
 IR Inten    --      1.8037                 1.1357                46.7046

                     79                     80                     81
                      A                      A                      A
 Frequencies --   1207.0961              1227.1791              1249.7238
 Red. masses --      1.4455                 2.4676                 2.3682
 Frc consts  --      1.2410                 2.1895                 2.1792
 IR Inten    --     42.0876               167.6545                71.1695

                     82                     83                     84
                      A                      A                      A
 Frequencies --   1259.1620              1285.1149              1323.1204
 Red. masses --      2.0698                 1.1087                 1.5340
 Frc consts  --      1.9335                 1.0788                 1.5823
 IR Inten    --     47.9788                 0.2396               133.6340

                     85                     86                     87
                      A                      A                      A
 Frequencies --   1327.4290              1329.1690              1336.0598
 Red. masses --      1.4518                 1.5272                 1.6716
 Frc consts  --      1.5072                 1.5897                 1.7580
 IR Inten    --      9.3855                65.6137                19.4724

                     88                     89                     90
                      A                      A                      A
 Frequencies --   1362.1998              1365.7444              1378.9510
 Red. masses --      3.2017                 1.5254                 1.2947
 Frc consts  --      3.5004                 1.6764                 1.4505
 IR Inten    --      3.6495                11.8352                21.9692

                     91                     92                     93
                      A                      A                      A
 Frequencies --   1383.3408              1398.7608              1407.1257
 Red. masses --      1.3911                 1.2568                 1.5452
 Frc consts  --      1.5684                 1.4488                 1.8026
 IR Inten    --     21.7891                14.1331                18.1002

                     94                     95                     96
                      A                      A                      A
 Frequencies --   1416.8231              1452.7693              1457.5085
 Red. masses --      1.4036                 1.5225                 1.5530
 Frc consts  --      1.6601                 1.8933                 1.9438
 IR Inten    --     12.8200               164.4669               111.5869

                     97                     98                     99
                      A                      A                      A
 Frequencies --   1465.9844              1473.4263              1477.3603
 Red. masses --      1.0769                 1.0389                 1.0880
 Frc consts  --      1.3636                 1.3289                 1.3991
 IR Inten    --      0.6879                 6.9564                 7.3072

                    100                    101                    102
                      A                      A                      A
 Frequencies --   1478.8258              1484.5904              1486.5033
 Red. masses --      1.1043                 1.2724                 1.0593
 Frc consts  --      1.4229                 1.6523                 1.3791
 IR Inten    --     60.2597                48.5764                 3.3464

                    103                    104                    105
                      A                      A                      A
 Frequencies --   1492.2068              1498.9119              1506.2502
 Red. masses --      1.5612                 1.4963                 1.0851
 Frc consts  --      2.0482                 1.9806                 1.4505
 IR Inten    --    199.0359               170.2556                 9.1914

                    106                    107                    108
                      A                      A                      A
 Frequencies --   1517.2297              1619.6716              1639.5701
 Red. masses --      2.0169                 5.5872                 5.6222
 Frc consts  --      2.7355                 8.6357                 8.9046
 IR Inten    --     17.8740                 6.2461                25.9458

                    109                    110                    111
                      A                      A                      A
 Frequencies --   1671.6914              1767.0620              3015.7210
 Red. masses --      5.6764                11.7737                 1.0393
 Frc consts  --      9.3461                21.6604                 5.5691
 IR Inten    --    150.3125               229.9781                 4.3234

                    112                    113                    114
                      A                      A                      A
 Frequencies --   3024.7706              3033.0904              3042.7999
 Red. masses --      1.0410                 1.0666                 1.0361
 Frc consts  --      5.6114                 5.7815                 5.6521
 IR Inten    --     10.9540                25.8534                15.8763

                    115                    116                    117
                      A                      A                      A
 Frequencies --   3059.3569              3067.0867              3070.1089
 Red. masses --      1.0593                 1.0689                 1.0971
 Frc consts  --      5.8417                 5.9244                 6.0925
 IR Inten    --     16.7530                20.1133                 5.4970

                    118                    119                    120
                      A                      A                      A
 Frequencies --   3070.6922              3077.4576              3094.3650
 Red. masses --      1.0774                 1.0967                 1.0978
 Frc consts  --      5.9853                 6.1198                 6.1932
 IR Inten    --      5.6913                11.6056                 6.6984

                    121                    122                    123
                      A                      A                      A
 Frequencies --   3108.1550              3116.2568              3118.8029
 Red. masses --      1.1065                 1.1024                 1.1014
 Frc consts  --      6.2979                 6.3077                 6.3118
 IR Inten    --      7.6992                13.8384                19.5301

                    124                    125                    126
                      A                      A                      A
 Frequencies --   3133.2701              3139.6291              3153.5555
 Red. masses --      1.1004                 1.1044                 1.0963
 Frc consts  --      6.3648                 6.4143                 6.4236
 IR Inten    --     10.0610                16.0057                10.6192

                    127                    128                    129
                      A                      A                      A
 Frequencies --   3159.9302              3173.8647              3186.3484
 Red. masses --      1.0874                 1.0860                 1.0909
 Frc consts  --      6.3972                 6.4454                 6.5259
 IR Inten    --     17.1422                 0.3295                 6.7279

                    130                    131                    132
                      A                      A                      A
 Frequencies --   3196.0768              3221.0690              3226.6655
 Red. masses --      1.0966                 1.0930                 1.0922
 Frc consts  --      6.5998                 6.6813                 6.6997
 IR Inten    --     12.5067                 2.0827                 1.1760

 - Thermochemistry -
 -------------------
 Temperature   298.150 Kelvin.  Pressure   1.00000 Atm.
 Atom     1 has atomic number  6 and mass  12.00000

 Molecular mass:   434.99839 amu.
 Principal axes and moments of inertia in atomic units:
                           1         2         3
     Eigenvalues --  9351.65693********************
           X            0.99964  -0.02197   0.01563
           Y            0.02165   0.99955   0.02069
           Z           -0.01608  -0.02035   0.99966
 This molecule is an asymmetric top.
 Rotational symmetry number  1.
 Warning -- assumption of classical behavior for rotation
           may cause significant error
 Rotational temperatures (Kelvin)      0.00926     0.00774     0.00646
 Rotational constants (GHZ):           0.19299     0.16127     0.13454
    1 imaginary frequencies ignored.
 Zero-point vibrational energy     942958.5 (Joules/Mol)
                                  225.37249 (Kcal/Mol)
 Warning -- explicit consideration of  42 degrees of freedom as
           vibrations may cause significant error
 Vibrational temperatures:     19.98    37.42    46.24    65.82    77.78
          (Kelvin)             88.99    96.17   106.56   121.76   127.60
                              134.38   142.63   151.13   168.73   172.79
                              185.82   191.35   209.91   245.40   251.89
                              286.29   303.70   324.02   356.91   372.38
                              416.33   436.56   446.21   494.75   512.27
                              546.67   567.54   571.81   575.55   592.73
                              616.28   655.54   693.34   718.74   748.68
                              770.17   844.11   899.43   928.79  1000.03
                             1001.95  1081.25  1106.30  1152.91  1165.85
                             1183.16  1217.81  1240.34  1251.72  1309.46
                             1327.95  1358.76  1376.88  1397.00  1421.24
                             1422.02  1433.05  1443.26  1449.88  1468.07
                             1494.17  1507.10  1543.87  1562.59  1580.29
                             1598.61  1630.66  1639.20  1673.53  1683.37
                             1692.63  1728.00  1736.74  1765.64  1798.07
                             1811.65  1848.99  1903.68  1909.87  1912.38
                             1922.29  1959.90  1965.00  1984.00  1990.32
                             2012.50  2024.54  2038.49  2090.21  2097.03
                             2109.22  2119.93  2125.59  2127.70  2135.99
                             2138.75  2146.95  2156.60  2167.16  2182.96
                             2330.35  2358.98  2405.19  2542.41  4338.95
                             4351.97  4363.94  4377.91  4401.73  4412.85
                             4417.20  4418.04  4427.78  4452.10  4471.94
                             4483.60  4487.26  4508.08  4517.23  4537.26
                             4546.43  4566.48  4584.44  4598.44  4634.40
                             4642.45

 Zero-point correction=                           0.359154 (Hartree/Particle)
 Thermal correction to Energy=                    0.386862
 Thermal correction to Enthalpy=                  0.387806
 Thermal correction to Gibbs Free Energy=         0.295952
 Sum of electronic and zero-point Energies=          -3531.077772
 Sum of electronic and thermal Energies=             -3531.050063
 Sum of electronic and thermal Enthalpies=           -3531.049119
 Sum of electronic and thermal Free Energies=        -3531.140973

                     E (Thermal)             CV                S
                      KCal/Mol        Cal/Mol-Kelvin    Cal/Mol-Kelvin
 Total                  242.760             97.796            193.323
 Electronic               0.000              0.000              3.561
 Translational            0.889              2.981             44.100
 Rotational               0.889              2.981             35.594
 Vibrational            240.982             91.834            110.068
 Vibration     1          0.593              1.986              7.358
 Vibration     2          0.593              1.985              6.112
 Vibration     3          0.594              1.983              5.693
 Vibration     4          0.595              1.979              4.993
 Vibration     5          0.596              1.976              4.663
 Vibration     6          0.597              1.973              4.397
 Vibration     7          0.598              1.970              4.244
 Vibration     8          0.599              1.966              4.042
 Vibration     9          0.601              1.960              3.781
 Vibration    10          0.602              1.957              3.689
 Vibration    11          0.602              1.954              3.588
 Vibration    12          0.604              1.950              3.471
 Vibration    13          0.605              1.945              3.359
 Vibration    14          0.608              1.935              3.145
 Vibration    15          0.609              1.933              3.099
 Vibration    16          0.612              1.924              2.959
 Vibration    17          0.613              1.920              2.902
 Vibration    18          0.617              1.907              2.725
 Vibration    19          0.626              1.879              2.429
 Vibration    20          0.627              1.873              2.380
 Vibration    21          0.637              1.841              2.143
 Vibration    22          0.643              1.824              2.034
 Vibration    23          0.650              1.803              1.917
 Vibration    24          0.662              1.766              1.744
 Vibration    25          0.668              1.748              1.670
 Vibration    26          0.686              1.694              1.478
 Vibration    27          0.695              1.667              1.398
 Vibration    28          0.699              1.654              1.362
 Vibration    29          0.723              1.588              1.194
 Vibration    30          0.732              1.563              1.139
 Vibration    31          0.750              1.513              1.039
 Vibration    32          0.761              1.482              0.983
 Vibration    33          0.764              1.476              0.972
 Vibration    34          0.766              1.470              0.963
 Vibration    35          0.776              1.444              0.920
 Vibration    36          0.790              1.409              0.864
 Vibration    37          0.814              1.348              0.779
 Vibration    38          0.838              1.290              0.705
 Vibration    39          0.855              1.251              0.659
 Vibration    40          0.875              1.205              0.609
 Vibration    41          0.890              1.172              0.575
 Vibration    42          0.944              1.060              0.473

 Optimization completed.
    -- Stationary point found.
 Normal termination of Gaussian 16 at Sun Jun 20 20:13:06 2021.

 ----------------------------------------------------------------------
 #p ub3lyp jul-cc-pvdz pop=cm5 scrf=(pcm,solvent=dichloroethane) guess=
 read geom=allcheck
 ----------------------------------------------------------------------

 Structure from the checkpoint file:  "checkpoint.chk"
 -----
 title
 -----
 Charge =  0 Multiplicity = 6

 SCF Done:  E(UB3LYP) =  -3531.45557518     A.U. after   18 cycles
 Normal termination of Gaussian 16 at Sun Jun 20 20:33:09 2021.
 Gaussian 16:  ES64L-G16RevA.03 25-Dec-2016

 ----------------------------------------------------------------------
 #p ub3lyp jul-cc-pvdz pop=cm5 scrf=(pcm,solvent=water) guess=read geom
 =allcheck
 ----------------------------------------------------------------------

 Structure from the checkpoint file:  "checkpoint.chk"
 -----
 title
 -----
 Charge =  0 Multiplicity = 6

                         Standard orientation:
 ---------------------------------------------------------------------
 Center     Atomic      Atomic             Coordinates (Angstroms)
 Number     Number       Type             X           Y           Z
 ---------------------------------------------------------------------
      1          6           0        3.202391   -0.056471    0.384283
      2          6           0        1.864742   -0.361378    0.705543
      3          6           0        1.521384   -0.574228    2.054743
      4          6           0        2.491512   -0.497151    3.053464
      5          6           0        3.818533   -0.206035    2.722192
      6          6           0        4.168869    0.019182    1.385408
      7          6           0        0.779425   -0.402377   -0.318941
      8          6           0        0.887602    0.397732   -1.644763
      9          6           0        1.687261   -0.282430   -2.761412
     10          6           0        1.284290   -1.757367   -2.790221
     11          6           0        1.462166   -2.312322   -1.403367
     12          6           0        0.615823   -3.128573   -0.718653
     13          6           0       -0.777266   -3.451301   -1.151530
     14          8           0       -0.393440   -0.650118    0.105150
     15         26           0       -2.226229    0.007922    0.364476
     16         17           0       -2.919643    0.809458   -1.574519
     17          6           0        1.024734   -3.713614    0.600099
     18         17           0       -2.089227    1.500349    1.979833
     19         17           0       -3.394334   -1.746862    1.023768
     20          1           0        0.483509   -0.771003    2.314635
     21          1           0        2.207350   -0.654661    4.094481
     22          1           0        4.577405   -0.143749    3.503749
     23          1           0        5.199074    0.261322    1.122162
     24          1           0        3.496080    0.137795   -0.644089
     25          1           0       -0.157078    0.494594   -1.969168
     26          6           0        1.389831    1.825156   -1.377448
     27          1           0        1.475636    0.219922   -3.714537
     28          1           0        2.765068   -0.175085   -2.586979
     29          1           0        0.248686   -1.859673   -3.137862
     30          1           0        1.918950   -2.310170   -3.500412
     31          1           0        2.480434   -2.237297   -1.018638
     32          1           0        2.055918   -3.460941    0.871594
     33          1           0        0.348185   -3.362172    1.396292
     34          1           0        0.926459   -4.810228    0.574264
     35          1           0       -0.908742   -4.544279   -1.187356
     36          1           0       -1.498695   -3.079151   -0.407011
     37          1           0       -1.045176   -3.039420   -2.128873
     38          8           0        0.489131    2.525043   -0.680391
     39          8           0        2.449676    2.261956   -1.774126
     40          6           0        0.827509    3.913914   -0.383120
     41          6           0       -0.400543    4.573819    0.207183
     42          1           0        1.677346    3.908576    0.313497
     43          1           0        1.154448    4.389841   -1.316443
     44          1           0       -0.162281    5.619161    0.451884
     45          1           0       -1.233155    4.564815   -0.509013
     46          1           0       -0.725521    4.061367    1.121247
 ---------------------------------------------------------------------

 SCF Done:  E(UB3LYP) =  -3531.45913345     A.U. after   16 cycles

 The electronic state is 6-A.
 Alpha  occ. eigenvalues -- -256.21329-101.52655-101.52574-101.52528 -30.20728
 Alpha  occ. eigenvalues --  -26.06139 -26.05912 -26.05825 -19.20829 -19.18769
 Alpha  occ. eigenvalues --  -19.15842 -10.33721 -10.33158 -10.25040 -10.23121
 Alpha  occ. eigenvalues --  -10.22937 -10.22428 -10.21451 -10.21347 -10.21280
 Alpha  occ. eigenvalues --  -10.20915 -10.20836 -10.20238 -10.20091 -10.19821
 Alpha  occ. eigenvalues --  -10.19219 -10.18949 -10.18597  -9.44378  -9.44306
 Alpha  occ. eigenvalues --   -9.44262  -7.20244  -7.20175  -7.20132  -7.19935
 Alpha  occ. eigenvalues --   -7.19917  -7.19855  -7.19845  -7.19812  -7.19801
 Alpha  occ. eigenvalues --   -3.68384  -2.46066  -2.45637  -2.45464  -1.12741
 Alpha  occ. eigenvalues --   -1.08858  -1.04223  -0.88233  -0.85680  -0.82924
 Alpha  occ. eigenvalues --   -0.80652  -0.79908  -0.79845  -0.78812  -0.78530
 Alpha  occ. eigenvalues --   -0.76853  -0.75025  -0.70868  -0.70020  -0.66937
 Alpha  occ. eigenvalues --   -0.64646  -0.62655  -0.61704  -0.59761  -0.57678
 Alpha  occ. eigenvalues --   -0.55928  -0.54156  -0.53299  -0.51725  -0.50396
 Alpha  occ. eigenvalues --   -0.49938  -0.49148  -0.48823  -0.48561  -0.48411
 Alpha  occ. eigenvalues --   -0.48135  -0.47505  -0.47170  -0.46869  -0.45785
 Alpha  occ. eigenvalues --   -0.45574  -0.44936  -0.43946  -0.43338  -0.42711
 Alpha  occ. eigenvalues --   -0.42413  -0.41174  -0.40269  -0.40121  -0.39791
 Alpha  occ. eigenvalues --   -0.38770  -0.38396  -0.38032  -0.37846  -0.37644
 Alpha  occ. eigenvalues --   -0.37147  -0.36941  -0.36375  -0.36177  -0.35512
 Alpha  occ. eigenvalues --   -0.34903  -0.34425  -0.34092  -0.32485  -0.32240
 Alpha  occ. eigenvalues --   -0.31427  -0.31396  -0.31060  -0.30839  -0.30267
 Alpha  occ. eigenvalues --   -0.29982  -0.29582  -0.28452  -0.27561  -0.25608
 Alpha virt. eigenvalues --   -0.10903  -0.03467  -0.02525  -0.01689  -0.01184
 Alpha virt. eigenvalues --   -0.00191  -0.00031   0.00067   0.01403   0.01517
 Alpha virt. eigenvalues --    0.01736   0.01955   0.02509   0.02662   0.03379

  Beta  occ. eigenvalues -- -256.21144-101.52467-101.52387-101.52336 -30.11775
  Beta  occ. eigenvalues --  -25.98553 -25.98496 -25.98441 -19.20829 -19.18356
  Beta  occ. eigenvalues --  -19.15840 -10.33721 -10.33143 -10.25040 -10.23090
  Beta  occ. eigenvalues --  -10.22926 -10.22408 -10.21451 -10.21347 -10.21281
  Beta  occ. eigenvalues --  -10.20913 -10.20836 -10.20237 -10.20071 -10.19821
  Beta  occ. eigenvalues --  -10.19221 -10.18951 -10.18596  -9.44194  -9.44123
  Beta  occ. eigenvalues --   -9.44074  -7.19937  -7.19865  -7.19820  -7.19677
  Beta  occ. eigenvalues --   -7.19664  -7.19605  -7.19594  -7.19553  -7.19539
  Beta  occ. eigenvalues --   -3.47507  -2.23778  -2.23721  -2.23660  -1.12737
  Beta  occ. eigenvalues --   -1.08063  -1.04220  -0.88194  -0.85625  -0.82867
  Beta  occ. eigenvalues --   -0.79435  -0.78803  -0.78610  -0.78538  -0.78437
  Beta  occ. eigenvalues --   -0.76848  -0.75000  -0.70853  -0.69927  -0.66785
  Beta  occ. eigenvalues --   -0.64586  -0.62625  -0.61609  -0.59354  -0.57438
  Beta  occ. eigenvalues --   -0.55393  -0.54062  -0.52614  -0.51675  -0.50192
  Beta  occ. eigenvalues --   -0.49597  -0.48870  -0.47606  -0.47502  -0.46750
  Beta  occ. eigenvalues --   -0.45637  -0.44999  -0.43943  -0.43339  -0.42704
  Beta  occ. eigenvalues --   -0.42404  -0.41220  -0.40236  -0.40120  -0.39797
  Beta  occ. eigenvalues --   -0.38678  -0.38430  -0.38290  -0.37980  -0.37627
  Beta  occ. eigenvalues --   -0.37096  -0.36976  -0.36433  -0.36310  -0.36262
  Beta  occ. eigenvalues --   -0.36085  -0.35525  -0.34276  -0.33570  -0.33415
  Beta  occ. eigenvalues --   -0.32872  -0.32644  -0.32164  -0.31491  -0.30567
  Beta  occ. eigenvalues --   -0.29855  -0.29565  -0.28532  -0.27564  -0.25474
  Beta virt. eigenvalues --   -0.15380  -0.14835  -0.13871  -0.13619  -0.13425
  Beta virt. eigenvalues --   -0.10047  -0.03447  -0.02471  -0.01607  -0.01115
  Beta virt. eigenvalues --   -0.00148  -0.00003   0.00098   0.01441   0.01565

 Mulliken charges and spin densities:
               1          2
     1  C    0.066040  -0.000891
     2  C    3.143210   0.008548
     3  C   -0.652138  -0.004149
     4  C   -0.000782   0.002446
     5  C    0.283825   0.000771
     6  C   -0.065182   0.002024
     7  C   -2.548146  -0.006124
     8  C    0.585359   0.004314
     9  C    0.577460   0.001545
    10  C    0.726761   0.000242
    11  C    0.423078   0.008558
    12  C   -0.123094   0.021645
    13  C    0.062102  -0.002580
    14  O   -0.296250   0.119098
    15  Fe   0.630383   4.072768
    16  Cl  -0.497831   0.248395
    17  C    0.286393  -0.000532
    18  Cl  -0.460139   0.259488
    19  Cl  -0.467697   0.256205
    20  H   -0.226399   0.000337
    21  H   -0.155696   0.000017
    22  H   -0.152133  -0.000008
    23  H   -0.155483   0.000138
    24  H   -0.209992  -0.000098
    25  H   -0.179498   0.000182
    26  C    0.750641  -0.001977
    27  H   -0.150711   0.000231
    28  H   -0.017094  -0.000042
    29  H   -0.088059   0.000071
    30  H   -0.125044   0.000790
    31  H   -0.257938  -0.000692
    32  H   -0.003145  -0.000004
    33  H    0.062745   0.001108
    34  H   -0.016828   0.001241
    35  H   -0.000969   0.001050
    36  H    0.080901   0.002712
    37  H   -0.001279  -0.000008
    38  O   -0.685397   0.002283
    39  O   -0.598930   0.000953
    40  C    0.427660   0.000964
    41  C    0.048139  -0.000829
    42  H   -0.029913   0.000050
    43  H   -0.032308   0.000030
    44  H   -0.006903   0.000028
    45  H    0.023807   0.000015
    46  H    0.026474  -0.000310
 Sum of Mulliken charges =  -0.00000   5.00000

 Dipole moment (field-independent basis, Debye):
    X=             10.4779    Y=             -3.8698    Z=             -1.2508  Tot=             11.2395
 Quadrupole moment (field-independent basis, Debye-Ang):
   XX=           -193.1974   YY=           -160.6389   ZZ=           -171.2379
   XY=             -6.8063   XZ=             12.1356   YZ=              5.4715

 Normal termination of Gaussian 16 at Sun Jun 20 20:50:50 2021.
