 Gaussian 16, Revision A.03,

 -----------------------------------------------------------
 #p opt=modredundant freq=noraman ub3lyp jul-cc-pvdz pop=cm5
 -----------------------------------------------------------

 -----
 title
 -----
 Symbolic Z-matrix:
 Charge =  0 Multiplicity = 6

 SCF Done:  E(UB3LYP) =  -3531.45004860     A.U. after   24 cycles
 SCF Done:  E(UB3LYP) =  -3531.45010498     A.U. after   18 cycles
 SCF Done:  E(UB3LYP) =  -3531.44822222     A.U. after   22 cycles
 SCF Done:  E(UB3LYP) =  -3531.44920250     A.U. after   17 cycles
 SCF Done:  E(UB3LYP) =  -3531.45040802     A.U. after   12 cycles
 SCF Done:  E(UB3LYP) =  -3531.45051931     A.U. after   16 cycles
 SCF Done:  E(UB3LYP) =  -3531.45068352     A.U. after   14 cycles
 SCF Done:  E(UB3LYP) =  -3531.45068255     A.U. after   14 cycles
 SCF Done:  E(UB3LYP) =  -3531.45069932     A.U. after   13 cycles
 SCF Done:  E(UB3LYP) =  -3531.45070964     A.U. after   12 cycles
 SCF Done:  E(UB3LYP) =  -3531.45071222     A.U. after   11 cycles
 SCF Done:  E(UB3LYP) =  -3531.45071326     A.U. after   11 cycles
 SCF Done:  E(UB3LYP) =  -3531.45071372     A.U. after   10 cycles
 SCF Done:  E(UB3LYP) =  -3531.45071396     A.U. after   10 cycles
 SCF Done:  E(UB3LYP) =  -3531.45071404     A.U. after    9 cycles
 SCF Done:  E(UB3LYP) =  -3531.45071407     A.U. after    9 cycles
 Optimization completed.
    -- Stationary point found.
 Normal termination of Gaussian 16 at Sun Jun 20 15:29:34 2021.

 ----------------------------------------------------------------------
 #P Geom=AllCheck Guess=TCheck SCRF=Check GenChk UB3LYP/Jul-CC-pVDZ Fre
 q
 ----------------------------------------------------------------------

 Structure from the checkpoint file:  "checkpoint.chk"
 -----
 title
 -----
 Charge =  0 Multiplicity = 6

 SCF Done:  E(UB3LYP) =  -3531.45071407     A.U. after    2 cycles

  Exact polarizability: 307.153  10.690 304.271  27.421  -2.320 303.469
 Approx polarizability: 476.672  46.382 464.167  55.654 -13.956 486.159

 ******    1 imaginary frequencies (negative Signs) ******

                      1                      2                      3
                      A                      A                      A
 Frequencies --     -4.8897                18.1254                24.3745
 Red. masses --      5.8976                 7.6782                 6.5316
 Frc consts  --      0.0001                 0.0015                 0.0023
 IR Inten    --      0.3155                 0.5266                 0.5945

                      4                      5                      6
                      A                      A                      A
 Frequencies --     31.7519                42.8399                52.2636
 Red. masses --      5.7797                 7.0704                 4.9284
 Frc consts  --      0.0034                 0.0076                 0.0079
 IR Inten    --      1.3379                 1.3885                 0.6885

                      7                      8                      9
                      A                      A                      A
 Frequencies --     64.1567                66.6631                76.5252
 Red. masses --      3.7539                 3.2488                 4.9469
 Frc consts  --      0.0091                 0.0085                 0.0171
 IR Inten    --      0.2458                 0.7995                 0.6357

                     10                     11                     12
                      A                      A                      A
 Frequencies --     80.7641                85.4058                95.7490
 Red. masses --      9.6297                 7.2142                 3.4477
 Frc consts  --      0.0370                 0.0310                 0.0186
 IR Inten    --      0.2206                 1.8871                 0.3570

                     13                     14                     15
                      A                      A                      A
 Frequencies --    100.6146               110.8166               111.9162
 Red. masses --      3.9530                 3.0645                 6.2238
 Frc consts  --      0.0236                 0.0222                 0.0459
 IR Inten    --      1.9183                 0.2136                 0.2362

                     16                     17                     18
                      A                      A                      A
 Frequencies --    117.0483               121.2463               141.6391
 Red. masses --      5.2559                10.8661                 1.5455
 Frc consts  --      0.0424                 0.0941                 0.0183
 IR Inten    --      0.8470                 1.8359                 2.8053

                     19                     20                     21
                      A                      A                      A
 Frequencies --    149.6726               154.3334               176.9301
 Red. masses --      3.2295                 4.5120                 4.7379
 Frc consts  --      0.0426                 0.0633                 0.0874
 IR Inten    --      3.0467                 8.3388                10.8294

                     22                     23                     24
                      A                      A                      A
 Frequencies --    207.2991               209.1340               213.5485
 Red. masses --      3.0485                 1.2331                 3.3349
 Frc consts  --      0.0772                 0.0318                 0.0896
 IR Inten    --      1.1099                 5.9239                 1.5968

                     25                     26                     27
                      A                      A                      A
 Frequencies --    258.9931               262.4659               280.1131
 Red. masses --      1.4372                 3.1682                 4.1260
 Frc consts  --      0.0568                 0.1286                 0.1907
 IR Inten    --      1.5290                18.4756                 1.5734

                     28                     29                     30
                      A                      A                      A
 Frequencies --    308.5358               315.1267               343.2598
 Red. masses --      9.2938                 2.3459                23.5565
 Frc consts  --      0.5213                 0.1373                 1.6353
 IR Inten    --     14.8528                 0.7989                34.0090

                     31                     32                     33
                      A                      A                      A
 Frequencies --    354.3305               380.5226               389.7600
 Red. masses --      5.2841                 3.7242                 2.9078
 Frc consts  --      0.3909                 0.3177                 0.2603
 IR Inten    --     23.2881                 1.9946                 6.7332

                     34                     35                     36
                      A                      A                      A
 Frequencies --    399.9766               407.4684               413.3296
 Red. masses --     25.2004                22.7641                 3.1415
 Frc consts  --      2.3753                 2.2268                 0.3162
 IR Inten    --     74.1810                75.5427                 6.3224

                     37                     38                     39
                      A                      A                      A
 Frequencies --    422.3930               443.6176               472.3333
 Red. masses --      3.6571                 2.7908                 3.3505
 Frc consts  --      0.3844                 0.3236                 0.4404
 IR Inten    --     22.3890                 8.0067                 0.6904

                     40                     41                     42
                      A                      A                      A
 Frequencies --    493.8378               513.2541               545.0191
 Red. masses --      2.4541                 2.7922                 4.0977
 Frc consts  --      0.3526                 0.4334                 0.7172
 IR Inten    --      8.4274                 0.8715                16.5013

                     43                     44                     45
                      A                      A                      A
 Frequencies --    575.4260               623.7335               658.4341
 Red. masses --      4.9059                 6.4002                 4.7047
 Frc consts  --      0.9571                 1.4670                 1.2017
 IR Inten    --     52.1950                 1.9596                40.1775

                     46                     47                     48
                      A                      A                      A
 Frequencies --    695.2514               697.6674               751.3338
 Red. masses --      4.9900                 1.6656                 4.3053
 Frc consts  --      1.4211                 0.4777                 1.4319
 IR Inten    --      2.5808                61.6034                 5.3333

                     49                     50                     51
                      A                      A                      A
 Frequencies --    774.5494               783.7391               805.7833
 Red. masses --      2.3321                 2.2143                 1.1327
 Frc consts  --      0.8243                 0.8014                 0.4333
 IR Inten    --     29.6520                 1.5239                 1.4925

                     52                     53                     54
                      A                      A                      A
 Frequencies --    834.3991               841.5455               854.0383
 Red. masses --      4.5907                 1.4972                 1.2518
 Frc consts  --      1.8831                 0.6247                 0.5380
 IR Inten    --      6.5401                21.1180                 1.3336

                     55                     56                     57
                      A                      A                      A
 Frequencies --    864.6708               898.5107               905.6067
 Red. masses --      2.8014                 2.1901                 2.1703
 Frc consts  --      1.2340                 1.0418                 1.0487
 IR Inten    --     24.1386                 0.9035                16.4006

                     58                     59                     60
                      A                      A                      A
 Frequencies --    960.9476               962.9391               976.5184
 Red. masses --      1.4412                 1.5174                 2.9358
 Frc consts  --      0.7841                 0.8290                 1.6495
 IR Inten    --      2.0756                 3.9363                18.2659

                     61                     62                     63
                      A                      A                      A
 Frequencies --    991.6174               995.9834              1000.0381
 Red. masses --      2.3344                 1.3728                 1.8164
 Frc consts  --      1.3524                 0.8024                 1.0703
 IR Inten    --     34.1443                 5.2968                 4.4789

                     64                     65                     66
                      A                      A                      A
 Frequencies --   1003.3101              1014.8993              1019.6867
 Red. masses --      2.4960                 1.3577                 2.0795
 Frc consts  --      1.4804                 0.8239                 1.2739
 IR Inten    --      0.1583                 0.9118                 0.0585

                     67                     68                     69
                      A                      A                      A
 Frequencies --   1036.2837              1046.9227              1077.9971
 Red. masses --      2.6030                 2.4148                 2.1214
 Frc consts  --      1.6469                 1.5594                 1.4525
 IR Inten    --     42.0942                 2.7242                 1.1602

                     70                     71                     72
                      A                      A                      A
 Frequencies --   1095.4697              1098.1953              1117.2916
 Red. masses --      1.7232                 2.2917                 1.5814
 Frc consts  --      1.2184                 1.6284                 1.1631
 IR Inten    --      1.2886                15.3559                 6.4145

                     73                     74                     75
                      A                      A                      A
 Frequencies --   1133.3409              1137.6575              1165.1429
 Red. masses --      2.1723                 2.1335                 1.6814
 Frc consts  --      1.6440                 1.6269                 1.3449
 IR Inten    --     15.9509                 9.2916                89.6334

                     76                     77                     78
                      A                      A                      A
 Frequencies --   1169.6915              1179.4018              1206.6608
 Red. masses --      1.5852                 1.0854                 1.5112
 Frc consts  --      1.2778                 0.8895                 1.2964
 IR Inten    --     14.9790                 1.1765                56.2969

                     79                     80                     81
                      A                      A                      A
 Frequencies --   1209.4289              1227.8693              1253.9021
 Red. masses --      1.3375                 1.9346                 1.9628
 Frc consts  --      1.1526                 1.7185                 1.8183
 IR Inten    --     71.3377               148.8018                30.8012

                     82                     83                     84
                      A                      A                      A
 Frequencies --   1277.6302              1284.3137              1322.2820
 Red. masses --      1.9492                 1.1617                 1.3896
 Frc consts  --      1.8747                 1.1290                 1.4315
 IR Inten    --    166.2995                12.2514                 7.0513

                     85                     86                     87
                      A                      A                      A
 Frequencies --   1328.2295              1338.7815              1343.6585
 Red. masses --      1.7884                 1.5176                 1.6554
 Frc consts  --      1.8589                 1.6026                 1.7608
 IR Inten    --    116.8566                17.7289                27.7751

                     88                     89                     90
                      A                      A                      A
 Frequencies --   1367.9086              1371.7108              1378.5107
 Red. masses --      1.8173                 2.1241                 1.3373
 Frc consts  --      2.0035                 2.3548                 1.4972
 IR Inten    --      4.7878                11.1352                 3.4838

                     91                     92                     93
                      A                      A                      A
 Frequencies --   1380.8139              1406.0082              1410.8311
 Red. masses --      1.3689                 1.4119                 1.2999
 Frc consts  --      1.5378                 1.6445                 1.5245
 IR Inten    --     20.0597                 7.1400                14.6410

                     94                     95                     96
                      A                      A                      A
 Frequencies --   1416.0537              1462.1132              1466.7189
 Red. masses --      1.3975                 1.0698                 1.5406
 Frc consts  --      1.6511                 1.3474                 1.9527
 IR Inten    --     12.5977                 5.1835                16.2962

                     97                     98                     99
                      A                      A                      A
 Frequencies --   1467.9148              1474.6735              1480.4054
 Red. masses --      1.3792                 1.0386                 1.0842
 Frc consts  --      1.7510                 1.3307                 1.4000
 IR Inten    --     14.2010                 5.0809                 1.8765

                    100                    101                    102
                      A                      A                      A
 Frequencies --   1482.7614              1486.5723              1487.3359
 Red. masses --      1.0464                 1.0572                 1.0919
 Frc consts  --      1.3555                 1.3766                 1.4231
 IR Inten    --     15.8684                 3.1579                 6.5594

                    103                    104                    105
                      A                      A                      A
 Frequencies --   1491.3420              1504.8572              1518.6839
 Red. masses --      1.0876                 1.0829                 2.1584
 Frc consts  --      1.4251                 1.4449                 2.9330
 IR Inten    --     10.5399                 6.4107                 6.8423

                    106                    107                    108
                      A                      A                      A
 Frequencies --   1565.4611              1620.3704              1642.2515
 Red. masses --      7.1025                 5.5055                 5.7113
 Frc consts  --     10.2552                 8.5169                 9.0753
 IR Inten    --    652.2276                54.1256                40.7124

                    109                    110                    111
                      A                      A                      A
 Frequencies --   1714.7265              1769.2181              3015.0744
 Red. masses --      6.4215                11.5099                 1.0382
 Frc consts  --     11.1244                21.2267                 5.5606
 IR Inten    --     61.6072               213.8265                14.6460

                    112                    113                    114
                      A                      A                      A
 Frequencies --   3026.0945              3028.5874              3042.1891
 Red. masses --      1.0473                 1.0594                 1.0355
 Frc consts  --      5.6506                 5.7254                 5.6467
 IR Inten    --     18.0944                29.1149                15.0719

                    115                    116                    117
                      A                      A                      A
 Frequencies --   3062.0109              3066.6634              3071.7780
 Red. masses --      1.0582                 1.0638                 1.0975
 Frc consts  --      5.8454                 5.8946                 6.1012
 IR Inten    --     13.7399                24.0443                 5.2732

                    118                    119                    120
                      A                      A                      A
 Frequencies --   3079.6750              3081.2118              3082.8935
 Red. masses --      1.0962                 1.0862                 1.0952
 Frc consts  --      6.1258                 6.0756                 6.1330
 IR Inten    --     21.4175                 3.7379                 4.3484

                    121                    122                    123
                      A                      A                      A
 Frequencies --   3108.5692              3115.6227              3118.9495
 Red. masses --      1.1074                 1.1009                 1.1019
 Frc consts  --      6.3047                 6.2962                 6.3154
 IR Inten    --      7.1452                 7.8291                15.8479

                    124                    125                    126
                      A                      A                      A
 Frequencies --   3119.8244              3125.6573              3137.4360
 Red. masses --      1.0975                 1.0906                 1.1050
 Frc consts  --      6.2941                 6.2776                 6.4085
 IR Inten    --      2.3839                33.4311                10.1881

                    127                    128                    129
                      A                      A                      A
 Frequencies --   3137.6306              3175.8481              3189.7611
 Red. masses --      1.0976                 1.0864                 1.0911
 Frc consts  --      6.3665                 6.4559                 6.5406
 IR Inten    --     30.8582                 1.1540                 7.1806

                    130                    131                    132
                      A                      A                      A
 Frequencies --   3197.9934              3217.6579              3224.3172
 Red. masses --      1.0961                 1.0940                 1.0936
 Frc consts  --      6.6049                 6.6733                 6.6985
 IR Inten    --      7.5655                 5.4093                 7.5914

 - Thermochemistry -
 -------------------
 Temperature   298.150 Kelvin.  Pressure   1.00000 Atm.
 Atom     1 has atomic number  6 and mass  12.00000

 Molecular mass:   434.99839 amu.
 Principal axes and moments of inertia in atomic units:
                           1         2         3
     Eigenvalues --  ******************************
           X            0.99322  -0.11611   0.00559
           Y            0.11591   0.99286   0.02834
           Z           -0.00884  -0.02750   0.99958
 This molecule is an asymmetric top.
 Rotational symmetry number  1.
 Warning -- assumption of classical behavior for rotation
           may cause significant error
 Rotational temperatures (Kelvin)      0.00860     0.00771     0.00659
 Rotational constants (GHZ):           0.17919     0.16059     0.13731
    1 imaginary frequencies ignored.
 Zero-point vibrational energy     943797.5 (Joules/Mol)
                                  225.57302 (Kcal/Mol)
 Warning -- explicit consideration of  42 degrees of freedom as
           vibrations may cause significant error
 Vibrational temperatures:     26.08    35.07    45.68    61.64    75.20
          (Kelvin)             92.31    95.91   110.10   116.20   122.88
                              137.76   144.76   159.44   161.02   168.41
                              174.45   203.79   215.35   222.05   254.56
                              298.26   300.90   307.25   372.63   377.63
                              403.02   443.91   453.40   493.87   509.80
                              547.49   560.78   575.48   586.26   594.69
                              607.73   638.27   679.58   710.52   738.46
                              784.16   827.91   897.41   947.34  1000.31
                             1003.79  1081.00  1114.40  1127.63  1159.34
                             1200.51  1210.80  1228.77  1244.07  1292.76
                             1302.97  1382.59  1385.45  1404.99  1426.72
                             1433.00  1438.83  1443.54  1460.21  1467.10
                             1490.98  1506.29  1551.00  1576.14  1580.06
                             1607.53  1630.62  1636.84  1676.38  1682.93
                             1696.90  1736.12  1740.10  1766.63  1804.09
                             1838.22  1847.84  1902.47  1911.03  1926.21
                             1933.22  1968.12  1973.59  1983.37  1986.68
                             2022.93  2029.87  2037.39  2103.65  2110.28
                             2112.00  2121.73  2129.97  2133.36  2138.85
                             2139.94  2145.71  2165.15  2185.05  2252.35
                             2331.35  2362.83  2467.11  2545.51  4338.02
                             4353.88  4357.46  4377.03  4405.55  4412.24
                             4419.60  4430.97  4433.18  4435.60  4472.54
                             4482.69  4487.47  4488.73  4497.12  4514.07
                             4514.35  4569.34  4589.35  4601.20  4629.49
                             4639.07

 Zero-point correction=                           0.359473 (Hartree/Particle)
 Thermal correction to Energy=                    0.387211
 Thermal correction to Enthalpy=                  0.388156
 Thermal correction to Gibbs Free Energy=         0.296299
 Sum of electronic and zero-point Energies=          -3531.091241
 Sum of electronic and thermal Energies=             -3531.063503
 Sum of electronic and thermal Enthalpies=           -3531.062558
 Sum of electronic and thermal Free Energies=        -3531.154415

                     E (Thermal)             CV                S
                      KCal/Mol        Cal/Mol-Kelvin    Cal/Mol-Kelvin
 Total                  242.979             97.783            193.329
 Electronic               0.000              0.000              3.561
 Translational            0.889              2.981             44.100
 Rotational               0.889              2.981             35.652
 Vibrational            241.201             91.821            110.016
 Vibration     1          0.593              1.986              6.830
 Vibration     2          0.593              1.985              6.241
 Vibration     3          0.594              1.983              5.717
 Vibration     4          0.595              1.980              5.123
 Vibration     5          0.596              1.977              4.730
 Vibration     6          0.597              1.971              4.325
 Vibration     7          0.598              1.970              4.250
 Vibration     8          0.599              1.965              3.978
 Vibration     9          0.600              1.962              3.872
 Vibration    10          0.601              1.959              3.763
 Vibration    11          0.603              1.952              3.539
 Vibration    12          0.604              1.949              3.442
 Vibration    13          0.607              1.941              3.255
 Vibration    14          0.607              1.940              3.235
 Vibration    15          0.608              1.935              3.149
 Vibration    16          0.609              1.931              3.080
 Vibration    17          0.615              1.912              2.782
 Vibration    18          0.618              1.903              2.676
 Vibration    19          0.620              1.898              2.618
 Vibration    20          0.628              1.871              2.361
 Vibration    21          0.641              1.829              2.067
 Vibration    22          0.642              1.827              2.051
 Vibration    23          0.644              1.820              2.013
 Vibration    24          0.668              1.748              1.669
 Vibration    25          0.670              1.742              1.645
 Vibration    26          0.680              1.710              1.533
 Vibration    27          0.698              1.657              1.370
 Vibration    28          0.702              1.645              1.335
 Vibration    29          0.722              1.589              1.197
 Vibration    30          0.730              1.566              1.147
 Vibration    31          0.750              1.512              1.037
 Vibration    32          0.758              1.492              1.001
 Vibration    33          0.766              1.470              0.963
 Vibration    34          0.772              1.454              0.936
 Vibration    35          0.777              1.441              0.915
 Vibration    36          0.785              1.422              0.884
 Vibration    37          0.803              1.375              0.815
 Vibration    38          0.829              1.311              0.731
 Vibration    39          0.849              1.264              0.674
 Vibration    40          0.868              1.221              0.626
 Vibration    41          0.900              1.151              0.555
 Vibration    42          0.932              1.084              0.494

                           ! Non-Optimized Parameters !
 Normal termination of Gaussian 16 at Sun Jun 20 20:02:32 2021.

 ----------------------------------------------------------------------
 #p ub3lyp jul-cc-pvdz pop=cm5 scrf=(pcm,solvent=dichloroethane) guess=
 read geom=allcheck
 ----------------------------------------------------------------------

 Structure from the checkpoint file:  "checkpoint.chk"
 -----
 title
 -----
 Charge =  0 Multiplicity = 6

 SCF Done:  E(UB3LYP) =  -3531.46763587     A.U. after   18 cycles
 Normal termination of Gaussian 16 at Sun Jun 20 20:27:35 2021.
 Gaussian 16:  ES64L-G16RevA.03 25-Dec-2016

 ----------------------------------------------------------------------
 #p ub3lyp jul-cc-pvdz pop=cm5 scrf=(pcm,solvent=water) guess=read geom
 =allcheck
 ----------------------------------------------------------------------

 Structure from the checkpoint file:  "checkpoint.chk"
 -----
 title
 -----
 Charge =  0 Multiplicity = 6

                         Standard orientation:
 ---------------------------------------------------------------------
 Center     Atomic      Atomic             Coordinates (Angstroms)
 Number     Number       Type             X           Y           Z
 ---------------------------------------------------------------------
      1          6           0        2.773937    0.400526    1.386621
      2          6           0        1.615451   -0.311040    1.006816
      3          6           0        1.111036   -1.308925    1.869627
      4          6           0        1.755482   -1.596789    3.068124
      5          6           0        2.904206   -0.884479    3.434989
      6          6           0        3.405339    0.116946    2.596587
      7          6           0        0.883904   -0.014323   -0.237296
      8          6           0        1.420246    0.922319   -1.326301
      9          6           0        2.771085    0.535974   -1.954995
     10          6           0        2.658295   -0.791613   -2.723758
     11          6           0        2.192656   -1.908458   -1.830853
     12          6           0        1.016917   -2.567148   -1.871436
     13          6           0       -0.073510   -2.324796   -2.879017
     14          8           0       -0.285707   -0.437752   -0.395347
     15         26           0       -2.147916   -0.377828    0.311843
     16         17           0       -3.394953    0.259572   -1.378387
     17          6           0        0.725113   -3.676038   -0.894610
     18         17           0       -2.073320    1.067883    1.969107
     19         17           0       -2.606172   -2.424762    0.994856
     20          1           0        0.215204   -1.861019    1.592796
     21          1           0        1.357281   -2.372216    3.722935
     22          1           0        3.405247   -1.106462    4.378662
     23          1           0        4.289881    0.684139    2.887853
     24          1           0        3.166958    1.199677    0.763170
     25          1           0        0.643228    0.888945   -2.100800
     26          6           0        1.415147    2.373146   -0.804445
     27          1           0        3.073457    1.346583   -2.632044
     28          1           0        3.553322    0.467202   -1.190348
     29          1           0        1.985229   -0.658923   -3.581415
     30          1           0        3.649327   -1.035853   -3.138419
     31          1           0        2.908173   -2.208954   -1.058301
     32          1           0        1.538864   -3.811713   -0.170624
     33          1           0       -0.211882   -3.485620   -0.349161
     34          1           0        0.581119   -4.627739   -1.431363
     35          1           0       -0.273741   -3.251082   -3.440822
     36          1           0       -1.014575   -2.058905   -2.374963
     37          1           0        0.159139   -1.534886   -3.601110
     38          8           0        0.161710    2.822816   -0.699612
     39          8           0        2.409582    3.016901   -0.545595
     40          6           0       -0.012765    4.182091   -0.192441
     41          6           0       -1.493089    4.496477   -0.231446
     42          1           0        0.395872    4.213601    0.826453
     43          1           0        0.581125    4.856980   -0.822705
     44          1           0       -1.654031    5.513839    0.153375
     45          1           0       -1.878997    4.449209   -1.258856
     46          1           0       -2.060191    3.791991    0.390442
 ---------------------------------------------------------------------

 SCF Done:  E(UB3LYP) =  -3531.47077054     A.U. after   14 cycles

 The electronic state is 6-A.
 Alpha  occ. eigenvalues -- -256.21852-101.53047-101.52984-101.52901 -30.21232
 Alpha  occ. eigenvalues --  -26.06703 -26.06366 -26.06328 -19.21187 -19.20234
 Alpha  occ. eigenvalues --  -19.16325 -10.34305 -10.33699 -10.25257 -10.23441
 Alpha  occ. eigenvalues --  -10.23040 -10.22197 -10.22118 -10.22032 -10.21339
 Alpha  occ. eigenvalues --  -10.21326 -10.20427 -10.20419 -10.19389 -10.18752
 Alpha  occ. eigenvalues --  -10.18476 -10.18286 -10.18142  -9.44758  -9.44703
 Alpha  occ. eigenvalues --   -9.44636  -7.20627  -7.20572  -7.20504  -7.20326
 Alpha  occ. eigenvalues --   -7.20292  -7.20262  -7.20239  -7.20185  -7.20181
 Alpha  occ. eigenvalues --   -3.68871  -2.46655  -2.46022  -2.45949  -1.13147
 Alpha  occ. eigenvalues --   -1.10536  -1.04679  -0.88798  -0.84873  -0.82093
 Alpha  occ. eigenvalues --   -0.81018  -0.80272  -0.80222  -0.79154  -0.78589
 Alpha  occ. eigenvalues --   -0.77441  -0.75024  -0.69729  -0.69240  -0.67496
 Alpha  occ. eigenvalues --   -0.64767  -0.63105  -0.61888  -0.60006  -0.57841
 Alpha  occ. eigenvalues --   -0.56589  -0.53841  -0.52770  -0.52055  -0.50990
 Alpha  occ. eigenvalues --   -0.50287  -0.49517  -0.49196  -0.48925  -0.48781
 Alpha  occ. eigenvalues --   -0.48503  -0.47448  -0.47077  -0.46833  -0.45784
 Alpha  occ. eigenvalues --   -0.45360  -0.45010  -0.44375  -0.43257  -0.42876
 Alpha  occ. eigenvalues --   -0.42478  -0.40966  -0.40472  -0.39949  -0.39387
 Alpha  occ. eigenvalues --   -0.38792  -0.38552  -0.38031  -0.37853  -0.37430
 Alpha  occ. eigenvalues --   -0.37239  -0.36927  -0.36622  -0.36416  -0.35171
 Alpha  occ. eigenvalues --   -0.35031  -0.34776  -0.33280  -0.32697  -0.32361
 Alpha  occ. eigenvalues --   -0.31820  -0.31777  -0.31631  -0.31426  -0.30516
 Alpha  occ. eigenvalues --   -0.30329  -0.29980  -0.28849  -0.28076  -0.24667
 Alpha virt. eigenvalues --   -0.11358  -0.03705  -0.02338  -0.01657  -0.00676
 Alpha virt. eigenvalues --   -0.00129  -0.00031   0.00119   0.00579   0.01532
 Alpha virt. eigenvalues --    0.01712   0.01902   0.02259   0.02579   0.03270

  Beta  occ. eigenvalues -- -256.21667-101.52845-101.52788-101.52706 -30.12292
  Beta  occ. eigenvalues --  -25.99105 -25.98985 -25.98956 -19.21186 -19.19901
  Beta  occ. eigenvalues --  -19.16321 -10.34301 -10.33669 -10.25257 -10.23426
  Beta  occ. eigenvalues --  -10.23029 -10.22192 -10.22110 -10.22028 -10.21340
  Beta  occ. eigenvalues --  -10.21328 -10.20426 -10.20409 -10.19389 -10.18751
  Beta  occ. eigenvalues --  -10.18467 -10.18286 -10.18142  -9.44560  -9.44511
  Beta  occ. eigenvalues --   -9.44446  -7.20306  -7.20254  -7.20192  -7.20039
  Beta  occ. eigenvalues --   -7.20023  -7.19993  -7.19978  -7.19920  -7.19914
  Beta  occ. eigenvalues --   -3.48020  -2.24334  -2.24210  -2.24159  -1.13137
  Beta  occ. eigenvalues --   -1.09903  -1.04672  -0.88764  -0.84823  -0.82053
  Beta  occ. eigenvalues --   -0.79742  -0.79128  -0.78894  -0.78853  -0.78573
  Beta  occ. eigenvalues --   -0.77433  -0.74987  -0.69716  -0.69131  -0.67397
  Beta  occ. eigenvalues --   -0.64738  -0.63078  -0.61641  -0.59676  -0.57701
  Beta  occ. eigenvalues --   -0.55929  -0.53392  -0.52678  -0.51938  -0.50743
  Beta  occ. eigenvalues --   -0.49972  -0.49258  -0.47442  -0.46896  -0.46400
  Beta  occ. eigenvalues --   -0.45400  -0.45221  -0.44368  -0.43273  -0.42868
  Beta  occ. eigenvalues --   -0.42476  -0.40981  -0.40461  -0.39938  -0.39281
  Beta  occ. eigenvalues --   -0.38858  -0.38619  -0.38437  -0.37889  -0.37425
  Beta  occ. eigenvalues --   -0.37250  -0.36923  -0.36647  -0.36633  -0.36515
  Beta  occ. eigenvalues --   -0.36406  -0.35105  -0.33940  -0.33760  -0.33489
  Beta  occ. eigenvalues --   -0.33060  -0.32811  -0.32419  -0.31742  -0.30914
  Beta  occ. eigenvalues --   -0.30182  -0.30125  -0.28914  -0.28061  -0.24590
  Beta virt. eigenvalues --   -0.15928  -0.15432  -0.14457  -0.14088  -0.13990
  Beta virt. eigenvalues --   -0.10408  -0.03672  -0.02304  -0.01523  -0.00602
  Beta virt. eigenvalues --   -0.00082   0.00013   0.00172   0.00694   0.01559

 Mulliken charges and spin densities:
               1          2
     1  C   -0.153579   0.004279
     2  C    3.224428  -0.001578
     3  C   -0.668100  -0.004591
     4  C    0.112599   0.000832
     5  C    0.266154   0.008059
     6  C   -0.159076  -0.001483
     7  C   -1.788200  -0.006959
     8  C    0.207343   0.010652
     9  C    0.601409   0.002320
    10  C    0.547444  -0.000389
    11  C    0.157436   0.005352
    12  C   -0.016470   0.010682
    13  C    0.141111  -0.001418
    14  O   -0.297789   0.095325
    15  Fe   0.740092   4.073039
    16  Cl  -0.483093   0.266116
    17  C    0.154283  -0.001980
    18  Cl  -0.450434   0.269215
    19  Cl  -0.453627   0.263425
    20  H   -0.277103   0.000138
    21  H   -0.160466   0.000013
    22  H   -0.142485  -0.000113
    23  H   -0.153287   0.000090
    24  H   -0.200265  -0.000094
    25  H   -0.144593  -0.000426
    26  C    0.786912   0.004980
    27  H   -0.137972   0.000454
    28  H   -0.046787   0.000024
    29  H   -0.091423   0.000005
    30  H   -0.121112   0.000585
    31  H   -0.239284  -0.000294
    32  H   -0.021366   0.000061
    33  H    0.056836   0.000558
    34  H   -0.024790   0.000414
    35  H   -0.018872   0.000400
    36  H    0.016831   0.000681
    37  H   -0.010604   0.000027
    38  O   -0.660887   0.000974
    39  O   -0.546642   0.001627
    40  C    0.437539  -0.000130
    41  C    0.037275  -0.000533
    42  H   -0.031643   0.000029
    43  H   -0.037671   0.000003
    44  H   -0.004088   0.000041
    45  H    0.025681   0.000046
    46  H    0.028335  -0.000461
 Sum of Mulliken charges =  -0.00000   5.00000

 Dipole moment (field-independent basis, Debye):
    X=              9.5938    Y=              0.4227    Z=             -0.5279  Tot=              9.6176
 Quadrupole moment (field-independent basis, Debye-Ang):
   XX=           -190.2250   YY=           -169.7499   ZZ=           -165.0680
   XY=            -11.2837   XZ=              8.0854   YZ=             -2.6795

 Normal termination of Gaussian 16 at Sun Jun 20 20:47:09 2021.
