 Gaussian 16, Revision A.03,

 -----------------------------------------------------------
 #p opt=modredundant freq=noraman ub3lyp jul-cc-pvdz pop=cm5
 -----------------------------------------------------------

 -----
 title
 -----
 Symbolic Z-matrix:
 Charge =  0 Multiplicity = 6

 SCF Done:  E(UB3LYP) =  -3531.44063411     A.U. after   25 cycles
 SCF Done:  E(UB3LYP) =  -3531.43925412     A.U. after   18 cycles
 SCF Done:  E(UB3LYP) =  -3531.43894493     A.U. after   18 cycles
 SCF Done:  E(UB3LYP) =  -3531.43875674     A.U. after   17 cycles
 SCF Done:  E(UB3LYP) =  -3531.44081828     A.U. after   12 cycles
 SCF Done:  E(UB3LYP) =  -3531.44069745     A.U. after   17 cycles
 SCF Done:  E(UB3LYP) =  -3531.44120280     A.U. after   15 cycles
 SCF Done:  E(UB3LYP) =  -3531.44121125     A.U. after   14 cycles
 SCF Done:  E(UB3LYP) =  -3531.44130355     A.U. after   13 cycles
 SCF Done:  E(UB3LYP) =  -3531.44130226     A.U. after   14 cycles
 SCF Done:  E(UB3LYP) =  -3531.44134042     A.U. after   12 cycles
 SCF Done:  E(UB3LYP) =  -3531.44134376     A.U. after   13 cycles
 SCF Done:  E(UB3LYP) =  -3531.44134688     A.U. after   14 cycles
 SCF Done:  E(UB3LYP) =  -3531.44134849     A.U. after   15 cycles
 SCF Done:  E(UB3LYP) =  -3531.44134407     A.U. after   15 cycles
 SCF Done:  E(UB3LYP) =  -3531.44133947     A.U. after   15 cycles
 SCF Done:  E(UB3LYP) =  -3531.44134788     A.U. after   15 cycles
 Optimization completed.
    -- Stationary point found.
 Normal termination of Gaussian 16 at Sun Jun 20 19:30:26 2021.

 ----------------------------------------------------------------------
 #P Geom=AllCheck Guess=TCheck SCRF=Check GenChk UB3LYP/Jul-CC-pVDZ Fre
 q
 ----------------------------------------------------------------------

 Structure from the checkpoint file:  "checkpoint.chk"
 -----
 title
 -----
 Charge =  0 Multiplicity = 6

 SCF Done:  E(UB3LYP) =  -3531.44134788     A.U. after    2 cycles

  Exact polarizability: 308.271   8.281 307.570  23.817   6.834 306.342
 Approx polarizability: 468.465  42.477 484.328  49.199   5.417 494.550

 ******    1 imaginary frequencies (negative Signs) ******

                      1                      2                      3
                      A                      A                      A
 Frequencies --    -16.2535                11.7913                20.2004
 Red. masses --      5.5250                 7.1925                 9.6669
 Frc consts  --      0.0009                 0.0006                 0.0023
 IR Inten    --      0.3461                 0.3494                 0.4239

                      4                      5                      6
                      A                      A                      A
 Frequencies --     31.8099                45.1201                55.5037
 Red. masses --      4.6391                 6.7782                 4.7547
 Frc consts  --      0.0028                 0.0081                 0.0086
 IR Inten    --      1.5002                 1.2725                 0.9571

                      7                      8                      9
                      A                      A                      A
 Frequencies --     61.1038                66.4241                77.0070
 Red. masses --      3.0209                 4.0169                 4.7824
 Frc consts  --      0.0066                 0.0104                 0.0167
 IR Inten    --      0.2707                 1.7009                 0.8375

                     10                     11                     12
                      A                      A                      A
 Frequencies --     80.6641                89.2882                97.8905
 Red. masses --      6.7567                 7.8260                 1.5695
 Frc consts  --      0.0259                 0.0368                 0.0089
 IR Inten    --      0.1913                 1.8293                 1.9301

                     13                     14                     15
                      A                      A                      A
 Frequencies --    102.8638               107.3387               115.4547
 Red. masses --      3.3248                 5.2479                12.6675
 Frc consts  --      0.0207                 0.0356                 0.0995
 IR Inten    --      0.5225                 1.6729                 0.0870

                     16                     17                     18
                      A                      A                      A
 Frequencies --    120.2747               130.5470               147.5868
 Red. masses --     13.4478                 3.4328                 2.4855
 Frc consts  --      0.1146                 0.0345                 0.0319
 IR Inten    --      2.0712                 1.8695                 1.3324

                     19                     20                     21
                      A                      A                      A
 Frequencies --    150.4779               163.6727               189.9014
 Red. masses --      3.4945                 7.2038                 3.1959
 Frc consts  --      0.0466                 0.1137                 0.0679
 IR Inten    --      3.0949                17.2693                 7.8252

                     22                     23                     24
                      A                      A                      A
 Frequencies --    207.4238               210.4001               215.1862
 Red. masses --      3.7618                 1.2705                 2.5762
 Frc consts  --      0.0954                 0.0331                 0.0703
 IR Inten    --      1.4395                 5.4703                 5.7011

                     25                     26                     27
                      A                      A                      A
 Frequencies --    259.4547               270.4938               286.5584
 Red. masses --      1.5556                 3.6611                 4.1115
 Frc consts  --      0.0617                 0.1578                 0.1989
 IR Inten    --      1.9158                41.9647                 4.9636

                     28                     29                     30
                      A                      A                      A
 Frequencies --    315.4415               329.5831               341.8925
 Red. masses --      2.3687                10.0777                 9.9733
 Frc consts  --      0.1389                 0.6450                 0.6869
 IR Inten    --      0.5637                 5.3946                23.6706

                     31                     32                     33
                      A                      A                      A
 Frequencies --    355.0550               378.8062               393.6154
 Red. masses --      8.1362                 3.9135                 4.0773
 Frc consts  --      0.6043                 0.3309                 0.3722
 IR Inten    --     40.8719                 5.0614                42.2890

                     34                     35                     36
                      A                      A                      A
 Frequencies --    396.8514               404.2526               414.9354
 Red. masses --      6.0648                30.4380                 2.9725
 Frc consts  --      0.5628                 2.9307                 0.3015
 IR Inten    --     37.3380                76.7067                 2.7935

                     37                     38                     39
                      A                      A                      A
 Frequencies --    421.6373               450.8551               477.4554
 Red. masses --      3.8751                 3.1005                 3.1185
 Frc consts  --      0.4059                 0.3713                 0.4188
 IR Inten    --     41.2729                 6.1683                 5.3486

                     40                     41                     42
                      A                      A                      A
 Frequencies --    504.2061               514.1339               544.1436
 Red. masses --      2.7684                 2.8103                 3.8632
 Frc consts  --      0.4147                 0.4377                 0.6739
 IR Inten    --     18.1566                 1.5797                22.5925

                     43                     44                     45
                      A                      A                      A
 Frequencies --    586.7188               624.4676               645.0392
 Red. masses --      4.2661                 6.3276                 4.2828
 Frc consts  --      0.8653                 1.4538                 1.0499
 IR Inten    --     76.6588                 6.0377                72.2589

                     46                     47                     48
                      A                      A                      A
 Frequencies --    696.5517               701.1977               755.0000
 Red. masses --      1.6113                 6.0407                 4.5265
 Frc consts  --      0.4606                 1.7499                 1.5202
 IR Inten    --     52.5262                15.1787                 5.4409

                     49                     50                     51
                      A                      A                      A
 Frequencies --    771.2081               790.6773               804.4884
 Red. masses --      2.3328                 2.3332                 1.1860
 Frc consts  --      0.8175                 0.8594                 0.4522
 IR Inten    --     28.3706                 6.2716                 2.2850

                     52                     53                     54
                      A                      A                      A
 Frequencies --    825.8840               850.2676               851.7062
 Red. masses --      4.0906                 1.2475                 1.4675
 Frc consts  --      1.6439                 0.5314                 0.6272
 IR Inten    --     15.1859                 0.2446                16.8493

                     55                     56                     57
                      A                      A                      A
 Frequencies --    865.5698               900.3782               915.4392
 Red. masses --      2.7561                 2.0007                 2.0699
 Frc consts  --      1.2166                 0.9556                 1.0220
 IR Inten    --     34.3810                 2.1998                15.7328

                     58                     59                     60
                      A                      A                      A
 Frequencies --    956.3892               958.3548               970.6258
 Red. masses --      1.4505                 1.4044                 3.1974
 Frc consts  --      0.7817                 0.7600                 1.7748
 IR Inten    --      1.2907                 2.3766                26.7690

                     61                     62                     63
                      A                      A                      A
 Frequencies --    987.6914               990.8715               996.1925
 Red. masses --      1.5812                 1.8318                 1.5428
 Frc consts  --      0.9088                 1.0596                 0.9021
 IR Inten    --     35.3266                12.8213                 5.3211

                     64                     65                     66
                      A                      A                      A
 Frequencies --   1003.8247              1012.5971              1016.1225
 Red. masses --      3.5521                 1.3678                 2.0413
 Frc consts  --      2.1089                 0.8263                 1.2418
 IR Inten    --      0.7964                 0.9683                 0.6819

                     67                     68                     69
                      A                      A                      A
 Frequencies --   1036.0506              1047.4635              1075.5053
 Red. masses --      2.6297                 2.4185                 2.2085
 Frc consts  --      1.6631                 1.5634                 1.5051
 IR Inten    --     38.6263                 3.0479                 2.9597

                     70                     71                     72
                      A                      A                      A
 Frequencies --   1092.2889              1099.5600              1116.1388
 Red. masses --      1.7649                 1.9711                 1.5784
 Frc consts  --      1.2406                 1.4041                 1.1585
 IR Inten    --      2.5280                13.2460                 8.4658

                     73                     74                     75
                      A                      A                      A
 Frequencies --   1133.0678              1139.5995              1164.0473
 Red. masses --      2.1718                 2.2399                 1.6803
 Frc consts  --      1.6428                 1.7139                 1.3415
 IR Inten    --     14.3637                10.3812                84.8658

                     76                     77                     78
                      A                      A                      A
 Frequencies --   1170.3903              1178.5830              1201.9430
 Red. masses --      1.5999                 1.0870                 1.5353
 Frc consts  --      1.2912                 0.8896                 1.3068
 IR Inten    --     16.4163                 1.5063                39.9058

                     79                     80                     81
                      A                      A                      A
 Frequencies --   1209.6002              1226.3702              1255.1339
 Red. masses --      1.2816                 2.0808                 1.9764
 Frc consts  --      1.1048                 1.8439                 1.8344
 IR Inten    --     48.4511               153.4287                21.8007

                     82                     83                     84
                      A                      A                      A
 Frequencies --   1269.5732              1285.0426              1323.4369
 Red. masses --      2.4337                 1.1169                 1.3881
 Frc consts  --      2.3111                 1.0867                 1.4324
 IR Inten    --    171.0289                 1.3980                 4.6673

                     85                     86                     87
                      A                      A                      A
 Frequencies --   1327.3126              1334.6806              1340.6126
 Red. masses --      1.5976                 1.5128                 1.7498
 Frc consts  --      1.6583                 1.5878                 1.8529
 IR Inten    --    140.4282                32.3891                22.3328

                     88                     89                     90
                      A                      A                      A
 Frequencies --   1365.7472              1369.7926              1377.8069
 Red. masses --      2.1530                 1.7773                 1.3017
 Frc consts  --      2.3661                 1.9648                 1.4559
 IR Inten    --      3.9431                13.7150                 8.1159

                     91                     92                     93
                      A                      A                      A
 Frequencies --   1381.9465              1404.7037              1408.3131
 Red. masses --      1.3900                 1.3079                 1.4256
 Frc consts  --      1.5640                 1.5205                 1.6659
 IR Inten    --     25.9005                 7.4928                22.9638

                     94                     95                     96
                      A                      A                      A
 Frequencies --   1415.6907              1459.3368              1463.9103
 Red. masses --      1.4116                 1.1294                 1.9294
 Frc consts  --      1.6668                 1.4171                 2.4361
 IR Inten    --     14.4729                19.5288                48.5530

                     97                     98                     99
                      A                      A                      A
 Frequencies --   1464.5868              1473.9752              1480.6887
 Red. masses --      1.1378                 1.0388                 1.0792
 Frc consts  --      1.4380                 1.3297                 1.3940
 IR Inten    --     13.8543                 4.8963                 3.4526

                    100                    101                    102
                      A                      A                      A
 Frequencies --   1481.7292              1486.0104              1489.9970
 Red. masses --      1.0554                 1.0539                 1.1010
 Frc consts  --      1.3652                 1.3711                 1.4402
 IR Inten    --     20.9465                 1.4686                 9.4609

                    103                    104                    105
                      A                      A                      A
 Frequencies --   1491.3137              1504.3693              1516.8608
 Red. masses --      1.1157                 1.0840                 2.3255
 Frc consts  --      1.4619                 1.4454                 3.1525
 IR Inten    --      9.8143                 6.0884                83.1391

                    106                    107                    108
                      A                      A                      A
 Frequencies --   1526.7536              1619.1565              1640.0593
 Red. masses --      4.3414                 5.4192                 5.6149
 Frc consts  --      5.9624                 8.3707                 8.8985
 IR Inten    --    555.1998                17.0940                40.4803

                    109                    110                    111
                      A                      A                      A
 Frequencies --   1695.6693              1768.1715              3017.4756
 Red. masses --      6.1137                11.3803                 1.0389
 Frc consts  --     10.3571                20.9630                 5.5735
 IR Inten    --    116.8675               218.2726                 9.4263

                    112                    113                    114
                      A                      A                      A
 Frequencies --   3028.8949              3036.4941              3042.2030
 Red. masses --      1.0424                 1.0653                 1.0357
 Frc consts  --      5.6346                 5.7873                 5.6475
 IR Inten    --     10.4550                29.6081                16.2475

                    115                    116                    117
                      A                      A                      A
 Frequencies --   3063.6095              3067.7338              3073.9349
 Red. masses --      1.0582                 1.0665                 1.0968
 Frc consts  --      5.8517                 5.9135                 6.1063
 IR Inten    --     12.3934                29.9571                 3.8079

                    118                    119                    120
                      A                      A                      A
 Frequencies --   3083.8606              3084.4868              3091.0628
 Red. masses --      1.0920                 1.0879                 1.0969
 Frc consts  --      6.1189                 6.0985                 6.1749
 IR Inten    --      9.4870                 3.6403                 3.8021

                    121                    122                    123
                      A                      A                      A
 Frequencies --   3110.1317              3118.9902              3127.1029
 Red. masses --      1.1063                 1.1027                 1.1010
 Frc consts  --      6.3051                 6.3203                 6.3435
 IR Inten    --      8.2566                15.0252                13.9603

                    124                    125                    126
                      A                      A                      A
 Frequencies --   3127.3529              3139.1640              3143.1786
 Red. masses --      1.0982                 1.1051                 1.0887
 Frc consts  --      6.3282                 6.4162                 6.3374
 IR Inten    --      5.4708                17.4090                10.4742

                    127                    128                    129
                      A                      A                      A
 Frequencies --   3146.6762              3175.2293              3188.7971
 Red. masses --      1.0968                 1.0863                 1.0912
 Frc consts  --      6.3985                 6.4528                 6.5377
 IR Inten    --     26.3536                 0.8631                 7.1728

                    130                    131                    132
                      A                      A                      A
 Frequencies --   3197.6050              3222.1706              3237.4560
 Red. masses --      1.0967                 1.0933                 1.0924
 Frc consts  --      6.6067                 6.6879                 6.7457
 IR Inten    --     10.2594                 3.8893                 5.0816

 - Thermochemistry -
 -------------------
 Temperature   298.150 Kelvin.  Pressure   1.00000 Atm.
 Atom     1 has atomic number  6 and mass  12.00000

 Molecular mass:   434.99839 amu.
 Principal axes and moments of inertia in atomic units:
                           1         2         3
     Eigenvalues --  9721.50152********************
           X            0.98895  -0.14824   0.00224
           Y            0.14810   0.98850   0.03049
           Z           -0.00674  -0.02982   0.99953
 This molecule is an asymmetric top.
 Rotational symmetry number  1.
 Warning -- assumption of classical behavior for rotation
           may cause significant error
 Rotational temperatures (Kelvin)      0.00891     0.00784     0.00671
 Rotational constants (GHZ):           0.18564     0.16336     0.13972
    1 imaginary frequencies ignored.
 Zero-point vibrational energy     944279.3 (Joules/Mol)
                                  225.68816 (Kcal/Mol)
 Warning -- explicit consideration of  42 degrees of freedom as
           vibrations may cause significant error
 Vibrational temperatures:     16.96    29.06    45.77    64.92    79.86
          (Kelvin)             87.91    95.57   110.80   116.06   128.47
                              140.84   148.00   154.44   166.11   173.05
                              187.83   212.34   216.50   235.49   273.23
                              298.44   302.72   309.60   373.30   389.18
                              412.29   453.85   474.20   491.91   510.84
                              545.02   566.32   570.98   581.63   597.00
                              606.64   648.68   686.95   725.44   739.72
                              782.90   844.16   898.47   928.07  1002.18
                             1008.87  1086.28  1109.60  1137.61  1157.48
                             1188.26  1223.35  1225.42  1245.36  1295.44
                             1317.11  1376.03  1378.86  1396.51  1421.07
                             1425.64  1433.30  1444.28  1456.90  1461.97
                             1490.65  1507.07  1547.41  1571.56  1582.02
                             1605.87  1630.23  1639.63  1674.80  1683.93
                             1695.72  1729.33  1740.34  1764.47  1805.86
                             1826.63  1848.89  1904.13  1909.71  1920.31
                             1928.84  1965.01  1970.83  1982.36  1988.31
                             2021.06  2026.25  2036.86  2099.66  2106.24
                             2107.21  2120.72  2130.38  2131.88  2138.04
                             2143.77  2145.67  2164.45  2182.42  2196.66
                             2329.61  2359.68  2439.69  2544.00  4341.47
                             4357.90  4368.84  4377.05  4407.85  4413.78
                             4422.71  4436.99  4437.89  4447.35  4474.79
                             4487.53  4499.20  4499.56  4516.56  4522.33
                             4527.37  4568.45  4587.97  4600.64  4635.98
                             4657.98

 Zero-point correction=                           0.359657 (Hartree/Particle)
 Thermal correction to Energy=                    0.387262
 Thermal correction to Enthalpy=                  0.388206
 Thermal correction to Gibbs Free Energy=         0.296325
 Sum of electronic and zero-point Energies=          -3531.081691
 Sum of electronic and thermal Energies=             -3531.054086
 Sum of electronic and thermal Enthalpies=           -3531.053142
 Sum of electronic and thermal Free Energies=        -3531.145023

                     E (Thermal)             CV                S
                      KCal/Mol        Cal/Mol-Kelvin    Cal/Mol-Kelvin
 Total                  243.011             97.654            193.380
 Electronic               0.000              0.000              3.561
 Translational            0.889              2.981             44.100
 Rotational               0.889              2.981             35.582
 Vibrational            241.233             91.693            110.137
 Vibration     1          0.593              1.987              7.684
 Vibration     2          0.593              1.986              6.614
 Vibration     3          0.594              1.983              5.713
 Vibration     4          0.595              1.979              5.021
 Vibration     5          0.596              1.975              4.611
 Vibration     6          0.597              1.973              4.421
 Vibration     7          0.598              1.970              4.257
 Vibration     8          0.599              1.964              3.966
 Vibration     9          0.600              1.962              3.875
 Vibration    10          0.602              1.957              3.676
 Vibration    11          0.603              1.951              3.496
 Vibration    12          0.605              1.947              3.399
 Vibration    13          0.606              1.943              3.316
 Vibration    14          0.608              1.937              3.175
 Vibration    15          0.609              1.932              3.096
 Vibration    16          0.612              1.923              2.938
 Vibration    17          0.617              1.905              2.703
 Vibration    18          0.618              1.902              2.666
 Vibration    19          0.623              1.887              2.507
 Vibration    20          0.633              1.854              2.229
 Vibration    21          0.641              1.829              2.066
 Vibration    22          0.643              1.825              2.040
 Vibration    23          0.645              1.818              1.999
 Vibration    24          0.668              1.747              1.665
 Vibration    25          0.674              1.728              1.593
 Vibration    26          0.684              1.699              1.494
 Vibration    27          0.703              1.644              1.334
 Vibration    28          0.712              1.616              1.262
 Vibration    29          0.721              1.592              1.203
 Vibration    30          0.731              1.565              1.144
 Vibration    31          0.749              1.515              1.044
 Vibration    32          0.761              1.484              0.986
 Vibration    33          0.763              1.477              0.974
 Vibration    34          0.769              1.461              0.947
 Vibration    35          0.778              1.438              0.909
 Vibration    36          0.784              1.423              0.886
 Vibration    37          0.810              1.359              0.793
 Vibration    38          0.834              1.300              0.717
 Vibration    39          0.859              1.241              0.648
 Vibration    40          0.869              1.219              0.624
 Vibration    41          0.899              1.153              0.556
 Vibration    42          0.944              1.060              0.473

                           ! Non-Optimized Parameters !
 Normal termination of Gaussian 16 at Mon Jun 21 00:01:21 2021.

 ----------------------------------------------------------------------
 #p ub3lyp jul-cc-pvdz pop=cm5 scrf=(pcm,solvent=dichloroethane) guess=
 read geom=allcheck
 ----------------------------------------------------------------------

 Structure from the checkpoint file:  "checkpoint.chk"
 -----
 title
 -----
 Charge =  0 Multiplicity = 6

 SCF Done:  E(UB3LYP) =  -3531.45880787     A.U. after   18 cycles
 Normal termination of Gaussian 16 at Mon Jun 21 00:29:49 2021.
 Gaussian 16:  ES64L-G16RevA.03 25-Dec-2016

 ----------------------------------------------------------------------
 #p ub3lyp jul-cc-pvdz pop=cm5 scrf=(pcm,solvent=water) guess=read geom
 =allcheck
 ----------------------------------------------------------------------

 Structure from the checkpoint file:  "checkpoint.chk"
 -----
 title
 -----
 Charge =  0 Multiplicity = 6

                         Standard orientation:
 ---------------------------------------------------------------------
 Center     Atomic      Atomic             Coordinates (Angstroms)
 Number     Number       Type             X           Y           Z
 ---------------------------------------------------------------------
      1          6           0        2.857714    0.733955    1.147116
      2          6           0        1.768436   -0.118332    0.869364
      3          6           0        1.432238   -1.118978    1.807205
      4          6           0        2.174972   -1.275333    2.973508
      5          6           0        3.259753   -0.429356    3.233386
      6          6           0        3.591574    0.578609    2.322243
      7          6           0        0.923671    0.033565   -0.336911
      8          6           0        1.127159    1.147226   -1.381923
      9          6           0        2.446277    1.103644   -2.164016
     10          6           0        2.568373   -0.266805   -2.846444
     11          6           0        2.342786   -1.366294   -1.845724
     12          6           0        1.338839   -2.273124   -1.829012
     13          6           0        0.195442   -2.304515   -2.800425
     14          8           0       -0.182628   -0.571776   -0.386601
     15         26           0       -2.009556   -0.704477    0.345675
     16         17           0       -3.374751   -0.180778   -1.297015
     17          6           0        1.322174   -3.378308   -0.811750
     18         17           0       -2.089901    0.681285    2.055917
     19         17           0       -2.210397   -2.813599    0.977381
     20          1           0        0.581552   -1.770402    1.620722
     21          1           0        1.900121   -2.051701    3.687966
     22          1           0        3.838269   -0.548590    4.150898
     23          1           0        4.421175    1.254898    2.530660
     24          1           0        3.113488    1.547580    0.474936
     25          1           0        0.295234    0.993440   -2.080538
     26          6           0        0.880773    2.522873   -0.734178
     27          1           0        2.444427    1.915132   -2.904702
     28          1           0        3.303010    1.288108   -1.507128
     29          1           0        1.851070   -0.330480   -3.674624
     30          1           0        3.571564   -0.365847   -3.288929
     31          1           0        3.139172   -1.491581   -1.107691
     32          1           0        2.165817   -3.315020   -0.114123
     33          1           0        0.378603   -3.377950   -0.245329
     34          1           0        1.372402   -4.353119   -1.323390
     35          1           0        0.211531   -3.256184   -3.355390
     36          1           0       -0.763862   -2.276025   -2.263353
     37          1           0        0.204820   -1.486049   -3.526935
     38          8           0       -0.428832    2.748226   -0.605151
     39          8           0        1.756729    3.297419   -0.411594
     40          6           0       -0.824437    4.005619    0.026371
     41          6           0       -2.331384    4.110730   -0.070786
     42          1           0       -0.473670    3.978281    1.066660
     43          1           0       -0.306887    4.822798   -0.492478
     44          1           0       -2.656969    5.046087    0.406944
     45          1           0       -2.658697    4.124672   -1.119388
     46          1           0       -2.816170    3.268909    0.439487
 ---------------------------------------------------------------------

 SCF Done:  E(UB3LYP) =  -3531.46212978     A.U. after   15 cycles

 The electronic state is 6-A.
 Alpha  occ. eigenvalues -- -256.21540-101.52829-101.52732-101.52684 -30.20925
 Alpha  occ. eigenvalues --  -26.06365 -26.06078 -26.06029 -19.21066 -19.19325
 Alpha  occ. eigenvalues --  -19.16133 -10.34100 -10.33539 -10.25161 -10.23271
 Alpha  occ. eigenvalues --  -10.22798 -10.21798 -10.21790 -10.21741 -10.21693
 Alpha  occ. eigenvalues --  -10.21109 -10.21100 -10.20417 -10.19634 -10.19307
 Alpha  occ. eigenvalues --  -10.18746 -10.18695 -10.18584  -9.44540  -9.44450
 Alpha  occ. eigenvalues --   -9.44415  -7.20409  -7.20322  -7.20283  -7.20103
 Alpha  occ. eigenvalues --   -7.20075  -7.20000  -7.19990  -7.19962  -7.19959
 Alpha  occ. eigenvalues --   -3.68580  -2.46315  -2.45769  -2.45675  -1.12985
 Alpha  occ. eigenvalues --   -1.09778  -1.04507  -0.88523  -0.85305  -0.82592
 Alpha  occ. eigenvalues --   -0.80785  -0.80044  -0.79982  -0.78931  -0.78691
 Alpha  occ. eigenvalues --   -0.77173  -0.75050  -0.70367  -0.69761  -0.67293
 Alpha  occ. eigenvalues --   -0.64726  -0.62866  -0.61906  -0.59978  -0.57761
 Alpha  occ. eigenvalues --   -0.56389  -0.53798  -0.53108  -0.52084  -0.50788
 Alpha  occ. eigenvalues --   -0.50135  -0.49415  -0.49069  -0.48696  -0.48561
 Alpha  occ. eigenvalues --   -0.48279  -0.47467  -0.47038  -0.46974  -0.45796
 Alpha  occ. eigenvalues --   -0.45591  -0.45143  -0.44158  -0.43175  -0.42658
 Alpha  occ. eigenvalues --   -0.42457  -0.41220  -0.40515  -0.40019  -0.39453
 Alpha  occ. eigenvalues --   -0.38952  -0.38319  -0.38023  -0.37811  -0.37722
 Alpha  occ. eigenvalues --   -0.37227  -0.37176  -0.36637  -0.36261  -0.35280
 Alpha  occ. eigenvalues --   -0.34892  -0.34559  -0.33701  -0.32489  -0.32102
 Alpha  occ. eigenvalues --   -0.31641  -0.31591  -0.31406  -0.31242  -0.30356
 Alpha  occ. eigenvalues --   -0.30142  -0.29776  -0.28679  -0.27815  -0.25196
 Alpha virt. eigenvalues --   -0.11179  -0.03465  -0.02283  -0.01689  -0.00885
 Alpha virt. eigenvalues --   -0.00116   0.00022   0.00089   0.00829   0.01530
 Alpha virt. eigenvalues --    0.01723   0.01952   0.02353   0.02563   0.03243

  Beta  occ. eigenvalues -- -256.21355-101.52632-101.52542-101.52494 -30.11981
  Beta  occ. eigenvalues --  -25.98777 -25.98684 -25.98650 -19.21066 -19.18952
  Beta  occ. eigenvalues --  -19.16131 -10.34098 -10.33513 -10.25160 -10.23257
  Beta  occ. eigenvalues --  -10.22784 -10.21796 -10.21787 -10.21718 -10.21693
  Beta  occ. eigenvalues --  -10.21108 -10.21101 -10.20415 -10.19635 -10.19285
  Beta  occ. eigenvalues --  -10.18747 -10.18695 -10.18585  -9.44346  -9.44265
  Beta  occ. eigenvalues --   -9.44229  -7.20093  -7.20007  -7.19975  -7.19826
  Beta  occ. eigenvalues --   -7.19810  -7.19747  -7.19736  -7.19705  -7.19700
  Beta  occ. eigenvalues --   -3.47724  -2.24020  -2.23924  -2.23875  -1.12978
  Beta  occ. eigenvalues --   -1.09061  -1.04503  -0.88490  -0.85249  -0.82534
  Beta  occ. eigenvalues --   -0.79538  -0.78912  -0.78720  -0.78657  -0.78626
  Beta  occ. eigenvalues --   -0.77167  -0.75014  -0.70348  -0.69654  -0.67177
  Beta  occ. eigenvalues --   -0.64687  -0.62843  -0.61729  -0.59575  -0.57570
  Beta  occ. eigenvalues --   -0.55778  -0.53527  -0.52771  -0.51952  -0.50594
  Beta  occ. eigenvalues --   -0.49732  -0.49196  -0.47671  -0.47121  -0.46703
  Beta  occ. eigenvalues --   -0.45683  -0.45245  -0.44154  -0.43196  -0.42638
  Beta  occ. eigenvalues --   -0.42452  -0.41249  -0.40494  -0.40015  -0.39422
  Beta  occ. eigenvalues --   -0.38857  -0.38542  -0.38258  -0.37858  -0.37800
  Beta  occ. eigenvalues --   -0.37257  -0.37167  -0.36557  -0.36435  -0.36393
  Beta  occ. eigenvalues --   -0.36248  -0.35191  -0.33912  -0.33660  -0.33544
  Beta  occ. eigenvalues --   -0.32932  -0.32740  -0.32346  -0.31580  -0.30663
  Beta  occ. eigenvalues --   -0.30016  -0.29835  -0.28810  -0.27809  -0.25071
  Beta virt. eigenvalues --   -0.15572  -0.15092  -0.14206  -0.13797  -0.13721
  Beta virt. eigenvalues --   -0.10247  -0.03442  -0.02251  -0.01570  -0.00812
  Beta virt. eigenvalues --   -0.00078   0.00055   0.00134   0.00994   0.01555

 Mulliken charges and spin densities:
               1          2
     1  C   -0.031408   0.002714
     2  C    3.137027  -0.001266
     3  C   -0.725514  -0.007264
     4  C    0.087669   0.002273
     5  C    0.280876   0.004404
     6  C   -0.161276   0.000126
     7  C   -2.021594  -0.015095
     8  C    0.398744   0.016640
     9  C    0.549516   0.003168
    10  C    0.594014  -0.001105
    11  C    0.221802   0.012175
    12  C   -0.006728   0.019506
    13  C    0.158866  -0.001767
    14  O   -0.297694   0.110680
    15  Fe   0.744493   4.069098
    16  Cl  -0.505241   0.258736
    17  C    0.166847  -0.002541
    18  Cl  -0.472823   0.262300
    19  Cl  -0.474919   0.257108
    20  H   -0.259978   0.000054
    21  H   -0.160503   0.000016
    22  H   -0.147409  -0.000049
    23  H   -0.155758   0.000105
    24  H   -0.182705  -0.000089
    25  H   -0.160637  -0.000896
    26  C    0.774231   0.004581
    27  H   -0.131908   0.000534
    28  H   -0.036971  -0.000010
    29  H   -0.089049   0.000008
    30  H   -0.110841   0.000974
    31  H   -0.255399  -0.000636
    32  H   -0.009375   0.000101
    33  H    0.073358   0.001104
    34  H   -0.022091   0.000915
    35  H   -0.010743   0.000886
    36  H    0.028022   0.001130
    37  H   -0.005304   0.000003
    38  O   -0.667206   0.001854
    39  O   -0.558588   0.001118
    40  C    0.426207  -0.000171
    41  C    0.043367  -0.000888
    42  H   -0.031484  -0.000071
    43  H   -0.040084   0.000009
    44  H   -0.005193   0.000049
    45  H    0.024671   0.000062
    46  H    0.028709  -0.000582
 Sum of Mulliken charges =  -0.00000   5.00000

 Dipole moment (field-independent basis, Debye):
    X=             10.0593    Y=              1.0746    Z=             -2.2229  Tot=             10.3579
 Quadrupole moment (field-independent basis, Debye-Ang):
   XX=           -184.4553   YY=           -173.0495   ZZ=           -164.9699
   XY=            -15.5841   XZ=              5.7517   YZ=              0.5895

 Normal termination of Gaussian 16 at Mon Jun 21 00:53:31 2021.
