 Gaussian 16, Revision A.03,

 -----------------------------------------------------------
 #p opt=modredundant freq=noraman ub3lyp jul-cc-pvdz pop=cm5
 -----------------------------------------------------------

 -----
 title
 -----
 Symbolic Z-matrix:
 Charge =  0 Multiplicity = 6

 SCF Done:  E(UB3LYP) =  -3531.42125255     A.U. after   23 cycles
 SCF Done:  E(UB3LYP) =  -3531.42061454     A.U. after   17 cycles
 SCF Done:  E(UB3LYP) =  -3531.41872005     A.U. after   19 cycles
 SCF Done:  E(UB3LYP) =  -3531.41834562     A.U. after   19 cycles
 SCF Done:  E(UB3LYP) =  -3531.42142832     A.U. after   13 cycles
 SCF Done:  E(UB3LYP) =  -3531.42110833     A.U. after   18 cycles
 SCF Done:  E(UB3LYP) =  -3531.42163054     A.U. after   17 cycles
 SCF Done:  E(UB3LYP) =  -3531.42176156     A.U. after   15 cycles
 SCF Done:  E(UB3LYP) =  -3531.42188634     A.U. after   14 cycles
 SCF Done:  E(UB3LYP) =  -3531.42188003     A.U. after   15 cycles
 SCF Done:  E(UB3LYP) =  -3531.42193006     A.U. after   11 cycles
 SCF Done:  E(UB3LYP) =  -3531.42193037     A.U. after   12 cycles
 SCF Done:  E(UB3LYP) =  -3531.42193066     A.U. after   12 cycles
 SCF Done:  E(UB3LYP) =  -3531.42193078     A.U. after   12 cycles
 SCF Done:  E(UB3LYP) =  -3531.42193087     A.U. after   10 cycles
 SCF Done:  E(UB3LYP) =  -3531.42193096     A.U. after   10 cycles
 SCF Done:  E(UB3LYP) =  -3531.42193099     A.U. after    9 cycles
 Optimization completed.
    -- Stationary point found.
 Normal termination of Gaussian 16 at Sun Jun 20 05:57:41 2021.

 ----------------------------------------------------------------------
 #P Geom=AllCheck Guess=TCheck SCRF=Check GenChk UB3LYP/Jul-CC-pVDZ Fre
 q
 ----------------------------------------------------------------------

 Structure from the checkpoint file:  "checkpoint.chk"
 -----
 title
 -----
 Charge =  0 Multiplicity = 6

 SCF Done:  E(UB3LYP) =  -3531.42193099     A.U. after    2 cycles

  Exact polarizability: 317.255  14.695 303.116  11.912  11.715 296.849
 Approx polarizability: 490.835  42.470 460.781   7.514  18.482 494.289

 ******    2 imaginary frequencies (negative Signs) ******

                      1                      2                      3
                      A                      A                      A
 Frequencies --    -70.1860               -19.7470                18.8680
 Red. masses --      6.1616                 5.9815                 5.1254
 Frc consts  --      0.0179                 0.0014                 0.0011
 IR Inten    --    166.9689                 0.9809                 1.9498

                      4                      5                      6
                      A                      A                      A
 Frequencies --     26.6331                29.8606                51.0569
 Red. masses --      4.9362                 8.8925                 4.3096
 Frc consts  --      0.0021                 0.0047                 0.0066
 IR Inten    --      2.3700                 0.7317                 1.8296

                      7                      8                      9
                      A                      A                      A
 Frequencies --     61.3591                62.2984                68.7887
 Red. masses --      3.3664                 6.3140                 4.2911
 Frc consts  --      0.0075                 0.0144                 0.0120
 IR Inten    --     12.4501                10.5114                 0.6821

                     10                     11                     12
                      A                      A                      A
 Frequencies --     83.6461                88.9381               101.7522
 Red. masses --      9.6903                 7.0451                 8.0445
 Frc consts  --      0.0399                 0.0328                 0.0491
 IR Inten    --      1.6487                 2.2588                 5.5205

                     13                     14                     15
                      A                      A                      A
 Frequencies --    104.4869               109.1257               118.3356
 Red. masses --      4.3016                 5.0532                 4.4113
 Frc consts  --      0.0277                 0.0355                 0.0364
 IR Inten    --      0.9390                29.5805                 1.3202

                     16                     17                     18
                      A                      A                      A
 Frequencies --    126.3115               129.6233               146.7387
 Red. masses --      1.8741                 5.2304                 3.7945
 Frc consts  --      0.0176                 0.0518                 0.0481
 IR Inten    --     13.9481                 1.9690                 9.7256

                     19                     20                     21
                      A                      A                      A
 Frequencies --    155.8301               159.0828               161.8006
 Red. masses --      2.6880                 1.4211                 1.9759
 Frc consts  --      0.0385                 0.0212                 0.0305
 IR Inten    --      3.1194                 0.7242                 1.1306

                     22                     23                     24
                      A                      A                      A
 Frequencies --    195.5210               206.4265               225.7674
 Red. masses --      3.0036                 3.0422                 4.8595
 Frc consts  --      0.0677                 0.0764                 0.1459
 IR Inten    --      1.0855                11.3262                40.6496

                     25                     26                     27
                      A                      A                      A
 Frequencies --    239.0855               260.4304               293.1313
 Red. masses --      3.4693                 1.7316                 3.9705
 Frc consts  --      0.1168                 0.0692                 0.2010
 IR Inten    --     12.3586                 2.7301                 2.7605

                     28                     29                     30
                      A                      A                      A
 Frequencies --    318.0844               322.9586               346.9871
 Red. masses --      2.3253                 8.3807                14.5098
 Frc consts  --      0.1386                 0.5150                 1.0293
 IR Inten    --      2.4679                 0.7083                44.9417

                     31                     32                     33
                      A                      A                      A
 Frequencies --    354.4756               371.4521               385.6048
 Red. masses --      6.4488                 4.0988                33.8387
 Frc consts  --      0.4774                 0.3332                 2.9645
 IR Inten    --     14.5844                13.7328                88.0901

                     34                     35                     36
                      A                      A                      A
 Frequencies --    394.0445               402.3774               411.9947
 Red. masses --     27.6566                 2.8033                 2.8772
 Frc consts  --      2.5301                 0.2674                 0.2877
 IR Inten    --     75.9046                 7.9508                 0.6035

                     37                     38                     39
                      A                      A                      A
 Frequencies --    432.4631               453.1216               481.9217
 Red. masses --      3.7363                 4.1625                 2.5069
 Frc consts  --      0.4117                 0.5035                 0.3430
 IR Inten    --     35.4970                 2.3139                11.0413

                     40                     41                     42
                      A                      A                      A
 Frequencies --    507.5347               528.6819               548.8573
 Red. masses --      2.8343                 3.2913                 3.1877
 Frc consts  --      0.4302                 0.5420                 0.5658
 IR Inten    --      4.9179                 2.8146                34.0499

                     43                     44                     45
                      A                      A                      A
 Frequencies --    606.3996               625.3585               640.9398
 Red. masses --      4.7929                 6.0530                 3.9737
 Frc consts  --      1.0384                 1.3947                 0.9618
 IR Inten    --     56.1016                15.3155               109.2125

                     46                     47                     48
                      A                      A                      A
 Frequencies --    696.2072               703.4557               755.8954
 Red. masses --      1.6237                 6.1767                 4.4361
 Frc consts  --      0.4637                 1.8009                 1.4934
 IR Inten    --     54.4430                23.8359                 4.3762

                     49                     50                     51
                      A                      A                      A
 Frequencies --    765.6341               799.7834               807.5439
 Red. masses --      2.3771                 1.7149                 1.8031
 Frc consts  --      0.8210                 0.6463                 0.6928
 IR Inten    --     13.8330                20.8335                 5.0787

                     52                     53                     54
                      A                      A                      A
 Frequencies --    820.0460               842.8621               864.1074
 Red. masses --      2.8090                 1.2575                 2.3863
 Frc consts  --      1.1130                 0.5263                 1.0498
 IR Inten    --     21.2354                 1.3949                13.2098

                     55                     56                     57
                      A                      A                      A
 Frequencies --    873.5962               898.4466               925.0991
 Red. masses --      1.6711                 1.7292                 2.0113
 Frc consts  --      0.7514                 0.8224                 1.0142
 IR Inten    --     26.3846                 5.1997                17.3417

                     58                     59                     60
                      A                      A                      A
 Frequencies --    939.6578               963.0777               965.1223
 Red. masses --      1.4251                 1.8127                 1.9418
 Frc consts  --      0.7414                 0.9906                 1.0657
 IR Inten    --      0.5749                 9.1113                20.8622

                     61                     62                     63
                      A                      A                      A
 Frequencies --    985.6013               988.7835              1000.1426
 Red. masses --      1.5739                 2.4412                 1.2437
 Frc consts  --      0.9008                 1.4062                 0.7330
 IR Inten    --      5.9985                43.2338                16.7640

                     64                     65                     66
                      A                      A                      A
 Frequencies --   1001.6393              1007.8310              1009.4142
 Red. masses --      1.9928                 2.2437                 1.9576
 Frc consts  --      1.1780                 1.3427                 1.1752
 IR Inten    --      0.6707                 3.9365                 9.8260

                     67                     68                     69
                      A                      A                      A
 Frequencies --   1037.4424              1047.3626              1067.6563
 Red. masses --      2.7457                 2.4021                 2.2928
 Frc consts  --      1.7411                 1.5525                 1.5398
 IR Inten    --     39.1086                 4.5550                 2.0089

                     70                     71                     72
                      A                      A                      A
 Frequencies --   1079.2884              1095.9935              1110.6477
 Red. masses --      1.8405                 1.7151                 1.5670
 Frc consts  --      1.2632                 1.2138                 1.1388
 IR Inten    --     11.2608                12.2588                10.0518

                     73                     74                     75
                      A                      A                      A
 Frequencies --   1132.4078              1136.6163              1161.9204
 Red. masses --      2.1543                 2.3701                 1.7035
 Frc consts  --      1.6277                 1.8040                 1.3550
 IR Inten    --     12.4558                 5.7660                51.3279

                     76                     77                     78
                      A                      A                      A
 Frequencies --   1170.4700              1175.8757              1195.1922
 Red. masses --      1.5697                 1.0897                 1.6103
 Frc consts  --      1.2671                 0.8877                 1.3553
 IR Inten    --      5.4730                 0.9804                54.6988

                     79                     80                     81
                      A                      A                      A
 Frequencies --   1203.9088              1221.0527              1234.0228
 Red. masses --      1.2316                 2.9889                 2.0377
 Frc consts  --      1.0518                 2.6256                 1.8282
 IR Inten    --     17.9262                85.6784               109.2036

                     82                     83                     84
                      A                      A                      A
 Frequencies --   1259.4964              1285.0306              1302.4431
 Red. masses --      1.9019                 1.1224                 1.8186
 Frc consts  --      1.7776                 1.0920                 1.8176
 IR Inten    --     29.0947                 9.8761               280.8729

                     85                     86                     87
                      A                      A                      A
 Frequencies --   1324.5106              1325.7718              1333.1983
 Red. masses --      1.5252                 1.4378                 1.6878
 Frc consts  --      1.5765                 1.4890                 1.7675
 IR Inten    --     80.5166                17.1424                22.1181

                     88                     89                     90
                      A                      A                      A
 Frequencies --   1360.1751              1363.4060              1365.4260
 Red. masses --      3.2577                 1.5845                 1.3575
 Frc consts  --      3.5510                 1.7354                 1.4912
 IR Inten    --      9.8574                42.7533                46.3451

                     91                     92                     93
                      A                      A                      A
 Frequencies --   1382.8774              1385.5151              1398.3067
 Red. masses --      1.4488                 1.3640                 1.5052
 Frc consts  --      1.6324                 1.5427                 1.7340
 IR Inten    --     86.6416                53.1545               126.0210

                     94                     95                     96
                      A                      A                      A
 Frequencies --   1412.3901              1417.0347              1447.1283
 Red. masses --      1.7450                 1.5368                 1.0621
 Frc consts  --      2.0510                 1.8182                 1.3105
 IR Inten    --    181.6022                28.8102                15.0539

                     97                     98                     99
                      A                      A                      A
 Frequencies --   1460.8136              1472.0149              1473.3638
 Red. masses --      1.0773                 1.4817                 1.0512
 Frc consts  --      1.3545                 1.8917                 1.3445
 IR Inten    --      2.9686                 8.6318                11.0309

                    100                    101                    102
                      A                      A                      A
 Frequencies --   1473.7584              1479.9993              1488.7056
 Red. masses --      1.4017                 1.1402                 1.0546
 Frc consts  --      1.7937                 1.4715                 1.3770
 IR Inten    --     52.0104                27.3462                 2.7643

                    103                    104                    105
                      A                      A                      A
 Frequencies --   1498.0922              1501.3444              1506.8595
 Red. masses --      1.1344                 1.1465                 1.0841
 Frc consts  --      1.5001                 1.5226                 1.4503
 IR Inten    --     10.5848                18.2461                 6.9308

                    106                    107                    108
                      A                      A                      A
 Frequencies --   1516.1752              1618.4595              1638.1106
 Red. masses --      1.9211                 5.5307                 5.2074
 Frc consts  --      2.6020                 8.5356                 8.2330
 IR Inten    --      3.1789                 9.9827               135.1393

                    109                    110                    111
                      A                      A                      A
 Frequencies --   1640.1878              1764.9885              3013.1720
 Red. masses --      5.5260                11.5491                 1.0486
 Frc consts  --      8.7589                21.1974                 5.6091
 IR Inten    --     30.7675               231.4507                 2.6142

                    112                    113                    114
                      A                      A                      A
 Frequencies --   3024.0685              3041.4837              3046.5338
 Red. masses --      1.0404                 1.0360                 1.0654
 Frc consts  --      5.6055                 5.6466                 5.8263
 IR Inten    --      3.9098                20.0359                22.6074

                    115                    116                    117
                      A                      A                      A
 Frequencies --   3060.2257              3070.1211              3076.1188
 Red. masses --      1.0595                 1.0622                 1.0855
 Frc consts  --      5.8459                 5.8991                 6.0520
 IR Inten    --     15.0273                23.9898                 1.4580

                    118                    119                    120
                      A                      A                      A
 Frequencies --   3078.0723              3096.2208              3101.6161
 Red. masses --      1.0964                 1.0874                 1.0974
 Frc consts  --      6.1201                 6.1417                 6.2201
 IR Inten    --      2.0206                 6.3605                 1.8519

                    121                    122                    123
                      A                      A                      A
 Frequencies --   3109.2174              3117.4521              3121.0537
 Red. masses --      1.1052                 1.1025                 1.1016
 Frc consts  --      6.2949                 6.3127                 6.3222
 IR Inten    --     10.1208                16.1610                15.9865

                    124                    125                    126
                      A                      A                      A
 Frequencies --   3140.0760              3145.5175              3163.1561
 Red. masses --      1.1044                 1.1014                 1.1002
 Frc consts  --      6.4157                 6.4207                 6.4860
 IR Inten    --     13.2320                 8.1383                 5.8820

                    127                    128                    129
                      A                      A                      A
 Frequencies --   3172.9170              3173.2649              3185.5604
 Red. masses --      1.0871                 1.0865                 1.0910
 Frc consts  --      6.4481                 6.4462                 6.5230
 IR Inten    --      4.8522                 4.9322                 7.2232

                    130                    131                    132
                      A                      A                      A
 Frequencies --   3195.6559              3226.4811              3227.0273
 Red. masses --      1.0968                 1.0926                 1.0915
 Frc consts  --      6.5994                 6.7015                 6.6970
 IR Inten    --     14.0984                 2.4799                 1.1924

 - Thermochemistry -
 -------------------
 Temperature   298.150 Kelvin.  Pressure   1.00000 Atm.
 Atom     1 has atomic number  6 and mass  12.00000

 Molecular mass:   434.99839 amu.
 Principal axes and moments of inertia in atomic units:
                           1         2         3
     Eigenvalues --  9144.86669********************
           X            0.99970  -0.01856   0.01596
           Y            0.01819   0.99957   0.02308
           Z           -0.01639  -0.02279   0.99961
 This molecule is an asymmetric top.
 Rotational symmetry number  1.
 Warning -- assumption of classical behavior for rotation
           may cause significant error
 Rotational temperatures (Kelvin)      0.00947     0.00787     0.00670
 Rotational constants (GHZ):           0.19735     0.16402     0.13965
    2 imaginary frequencies ignored.
 Zero-point vibrational energy     942194.1 (Joules/Mol)
                                  225.18980 (Kcal/Mol)
 Warning -- explicit consideration of  41 degrees of freedom as
           vibrations may cause significant error
 Vibrational temperatures:     27.15    38.32    42.96    73.46    88.28
          (Kelvin)             89.63    98.97   120.35   127.96   146.40
                              150.33   157.01   170.26   181.73   186.50
                              211.12   224.20   228.88   232.80   281.31
                              297.00   324.83   343.99   374.70   421.75
                              457.65   464.67   499.24   510.01   534.44
                              554.80   566.94   578.93   592.77   622.22
                              651.94   693.38   730.23   760.66   789.68
                              872.47   899.75   922.17  1001.69  1012.12
                             1087.56  1101.58  1150.71  1161.88  1179.86
                             1212.69  1243.26  1256.91  1292.66  1331.01
                             1351.96  1385.65  1388.60  1418.06  1422.64
                             1438.98  1441.14  1450.04  1452.32  1492.65
                             1506.92  1536.12  1552.86  1576.89  1597.97
                             1629.28  1635.34  1671.74  1684.05  1691.82
                             1719.61  1732.16  1756.82  1775.48  1812.13
                             1848.87  1873.93  1905.68  1907.49  1918.17
                             1956.99  1961.64  1964.54  1989.65  1993.45
                             2011.85  2032.11  2038.80  2082.09  2101.78
                             2117.90  2119.84  2120.41  2129.39  2141.92
                             2155.42  2160.10  2168.03  2181.44  2328.60
                             2356.88  2359.86  2539.42  4335.28  4350.96
                             4376.02  4383.28  4402.98  4417.22  4425.85
                             4428.66  4454.77  4462.53  4473.47  4485.32
                             4490.50  4517.87  4525.70  4551.08  4565.12
                             4565.62  4583.31  4597.84  4642.19  4642.97

 Zero-point correction=                           0.358863 (Hartree/Particle)
 Thermal correction to Energy=                    0.385681
 Thermal correction to Enthalpy=                  0.386625
 Thermal correction to Gibbs Free Energy=         0.297480
 Sum of electronic and zero-point Energies=          -3531.063068
 Sum of electronic and thermal Energies=             -3531.036250
 Sum of electronic and thermal Enthalpies=           -3531.035306
 Sum of electronic and thermal Free Energies=        -3531.124451

                     E (Thermal)             CV                S
                      KCal/Mol        Cal/Mol-Kelvin    Cal/Mol-Kelvin
 Total                  242.018             95.813            187.621
 Electronic               0.000              0.000              3.561
 Translational            0.889              2.981             44.100
 Rotational               0.889              2.981             35.518
 Vibrational            240.241             89.852            104.442
 Vibration     1          0.593              1.986              6.750
 Vibration     2          0.593              1.984              6.066
 Vibration     3          0.594              1.984              5.839
 Vibration     4          0.595              1.977              4.776
 Vibration     5          0.597              1.973              4.413
 Vibration     6          0.597              1.972              4.383
 Vibration     7          0.598              1.969              4.188
 Vibration     8          0.601              1.960              3.803
 Vibration     9          0.602              1.957              3.683
 Vibration    10          0.604              1.948              3.420
 Vibration    11          0.605              1.946              3.369
 Vibration    12          0.606              1.942              3.284
 Vibration    13          0.608              1.934              3.127
 Vibration    14          0.611              1.927              3.001
 Vibration    15          0.612              1.924              2.952
 Vibration    16          0.617              1.906              2.714
 Vibration    17          0.620              1.896              2.600
 Vibration    18          0.621              1.892              2.561
 Vibration    19          0.622              1.889              2.529
 Vibration    20          0.636              1.846              2.175
 Vibration    21          0.641              1.831              2.075
 Vibration    22          0.650              1.802              1.912
 Vibration    23          0.657              1.781              1.810
 Vibration    24          0.668              1.745              1.659
 Vibration    25          0.688              1.687              1.456
 Vibration    26          0.704              1.639              1.320
 Vibration    27          0.708              1.629              1.295
 Vibration    28          0.725              1.581              1.180
 Vibration    29          0.730              1.566              1.146
 Vibration    30          0.743              1.531              1.074
 Vibration    31          0.754              1.501              1.017
 Vibration    32          0.761              1.483              0.985
 Vibration    33          0.768              1.465              0.954
 Vibration    34          0.776              1.444              0.920
 Vibration    35          0.793              1.400              0.851
 Vibration    36          0.812              1.354              0.786
 Vibration    37          0.838              1.290              0.705
 Vibration    38          0.863              1.233              0.640
 Vibration    39          0.884              1.187              0.590
 Vibration    40          0.904              1.142              0.547
 Vibration    41          0.965              1.018              0.439

                           ! Non-Optimized Parameters !
 Normal termination of Gaussian 16 at Sun Jun 20 10:04:15 2021.

 ----------------------------------------------------------------------
 #p ub3lyp jul-cc-pvdz pop=cm5 scrf=(pcm,solvent=dichloroethane) guess=
 read geom=allcheck
 ----------------------------------------------------------------------

 Structure from the checkpoint file:  "checkpoint.chk"
 -----
 title
 -----
 Charge =  0 Multiplicity = 6

 SCF Done:  E(UB3LYP) =  -3531.44223455     A.U. after   18 cycles
 Normal termination of Gaussian 16 at Sun Jun 20 10:28:18 2021.
 Gaussian 16:  ES64L-G16RevA.03 25-Dec-2016

 ----------------------------------------------------------------------
 #p ub3lyp jul-cc-pvdz pop=cm5 scrf=(pcm,solvent=water) guess=read geom
 =allcheck
 ----------------------------------------------------------------------

 Structure from the checkpoint file:  "checkpoint.chk"
 -----
 title
 -----
 Charge =  0 Multiplicity = 6

                         Standard orientation:
 ---------------------------------------------------------------------
 Center     Atomic      Atomic             Coordinates (Angstroms)
 Number     Number       Type             X           Y           Z
 ---------------------------------------------------------------------
      1          6           0        3.229296   -0.275575    0.437819
      2          6           0        1.861178   -0.482822    0.702514
      3          6           0        1.443603   -0.602799    2.041015
      4          6           0        2.368623   -0.530481    3.084017
      5          6           0        3.724601   -0.337713    2.808256
      6          6           0        4.150321   -0.205032    1.480700
      7          6           0        0.818882   -0.527518   -0.380252
      8          6           0        0.968629    0.378336   -1.647432
      9          6           0        1.823744   -0.242270   -2.754910
     10          6           0        1.421519   -1.718513   -2.835196
     11          6           0        1.400920   -2.253382   -1.425542
     12          6           0        0.373966   -2.945739   -0.833491
     13          6           0       -0.983224   -3.091778   -1.433216
     14          8           0       -0.392222   -0.726657    0.025940
     15         26           0       -2.136270    0.022997    0.387489
     16         17           0       -2.924132    0.789936   -1.535818
     17          6           0        0.564501   -3.602842    0.492261
     18         17           0       -1.914196    1.547172    1.971238
     19         17           0       -3.309888   -1.700162    1.155235
     20          1           0        0.385377   -0.719545    2.261529
     21          1           0        2.023589   -0.614641    4.115133
     22          1           0        4.447936   -0.279407    3.623101
     23          1           0        5.204558   -0.037545    1.257287
     24          1           0        3.584308   -0.151971   -0.581961
     25          1           0       -0.063283    0.489287   -2.004463
     26          6           0        1.461989    1.780981   -1.268347
     27          1           0        1.651110    0.284689   -3.702651
     28          1           0        2.890685   -0.132611   -2.526489
     29          1           0        0.440994   -1.817793   -3.316211
     30          1           0        2.138152   -2.290432   -3.443028
     31          1           0        2.382641   -2.364436   -0.965825
     32          1           0        1.597439   -3.553012    0.851900
     33          1           0       -0.108379   -3.138854    1.230923
     34          1           0        0.257829   -4.658504    0.423119
     35          1           0       -1.045589   -4.101013   -1.877187
     36          1           0       -1.762239   -3.032840   -0.662615
     37          1           0       -1.201950   -2.364898   -2.220129
     38          8           0        0.473284    2.505308   -0.736426
     39          8           0        2.592310    2.180950   -1.456262
     40          6           0        0.797172    3.872016   -0.338071
     41          6           0       -0.505139    4.596969   -0.070726
     42          1           0        1.434431    3.813854    0.555242
     43          1           0        1.379799    4.332658   -1.145768
     44          1           0       -0.283245    5.625092    0.250590
     45          1           0       -1.121880    4.642177   -0.978715
     46          1           0       -1.080055    4.095895    0.717952
 ---------------------------------------------------------------------

 SCF Done:  E(UB3LYP) =  -3531.44623080     A.U. after   17 cycles

 The electronic state is 6-A.
 Alpha  occ. eigenvalues -- -256.20727-101.52260-101.52197-101.52140 -30.20129
 Alpha  occ. eigenvalues --  -26.05479 -26.05351 -26.05247 -19.20675 -19.17303
 Alpha  occ. eigenvalues --  -19.15603 -10.33465 -10.32767 -10.25705 -10.24925
 Alpha  occ. eigenvalues --  -10.22698 -10.22113 -10.21325 -10.21097 -10.21009
 Alpha  occ. eigenvalues --  -10.20936 -10.20671 -10.20578 -10.20240 -10.20173
 Alpha  occ. eigenvalues --  -10.19956 -10.19731 -10.18520  -9.43979  -9.43927
 Alpha  occ. eigenvalues --   -9.43863  -7.19845  -7.19795  -7.19734  -7.19527
 Alpha  occ. eigenvalues --   -7.19522  -7.19474  -7.19467  -7.19408  -7.19399
 Alpha  occ. eigenvalues --   -3.67812  -2.45393  -2.45131  -2.44940  -1.12535
 Alpha  occ. eigenvalues --   -1.07488  -1.04014  -0.88022  -0.86623  -0.83485
 Alpha  occ. eigenvalues --   -0.80236  -0.79517  -0.79434  -0.78810  -0.78274
 Alpha  occ. eigenvalues --   -0.76561  -0.75098  -0.71919  -0.70817  -0.66721
 Alpha  occ. eigenvalues --   -0.64593  -0.62414  -0.61728  -0.59634  -0.57476
 Alpha  occ. eigenvalues --   -0.56005  -0.54370  -0.53150  -0.51609  -0.50475
 Alpha  occ. eigenvalues --   -0.49791  -0.49311  -0.48922  -0.48238  -0.47963
 Alpha  occ. eigenvalues --   -0.47807  -0.47685  -0.47048  -0.46815  -0.46035
 Alpha  occ. eigenvalues --   -0.45218  -0.44842  -0.43682  -0.43262  -0.42777
 Alpha  occ. eigenvalues --   -0.42406  -0.40938  -0.40703  -0.40303  -0.40047
 Alpha  occ. eigenvalues --   -0.39195  -0.38703  -0.38062  -0.37672  -0.37562
 Alpha  occ. eigenvalues --   -0.37298  -0.36937  -0.36209  -0.35945  -0.35704
 Alpha  occ. eigenvalues --   -0.34703  -0.34337  -0.33921  -0.32191  -0.31962
 Alpha  occ. eigenvalues --   -0.31102  -0.31049  -0.30729  -0.30445  -0.30018
 Alpha  occ. eigenvalues --   -0.29682  -0.29211  -0.28344  -0.27292  -0.25986
 Alpha virt. eigenvalues --   -0.11030  -0.03229  -0.02827  -0.01639  -0.01213
 Alpha virt. eigenvalues --   -0.00163   0.00005   0.00033   0.01454   0.01572
 Alpha virt. eigenvalues --    0.01755   0.01971   0.02537   0.03197   0.03421

  Beta  occ. eigenvalues -- -256.20542-101.52080-101.52014-101.51964 -30.11178
  Beta  occ. eigenvalues --  -25.97926 -25.97914 -25.97857 -19.20676 -19.16782
  Beta  occ. eigenvalues --  -19.15601 -10.33466 -10.32762 -10.25672 -10.24925
  Beta  occ. eigenvalues --  -10.22685 -10.22092 -10.21285 -10.21098 -10.21011
  Beta  occ. eigenvalues --  -10.20940 -10.20668 -10.20576 -10.20237 -10.20174
  Beta  occ. eigenvalues --  -10.19957 -10.19732 -10.18519  -9.43802  -9.43747
  Beta  occ. eigenvalues --   -9.43690  -7.19547  -7.19494  -7.19434  -7.19286
  Beta  occ. eigenvalues --   -7.19280  -7.19229  -7.19217  -7.19174  -7.19169
  Beta  occ. eigenvalues --   -3.46944  -2.23216  -2.23158  -2.23111  -1.12533
  Beta  occ. eigenvalues --   -1.06483  -1.04011  -0.87960  -0.86543  -0.83431
  Beta  occ. eigenvalues --   -0.79076  -0.78813  -0.78280  -0.78211  -0.78138
  Beta  occ. eigenvalues --   -0.76557  -0.75066  -0.71901  -0.70710  -0.66576
  Beta  occ. eigenvalues --   -0.64519  -0.62380  -0.61665  -0.59212  -0.57216
  Beta  occ. eigenvalues --   -0.55571  -0.54292  -0.52288  -0.51538  -0.50251
  Beta  occ. eigenvalues --   -0.49617  -0.48822  -0.48171  -0.47733  -0.47148
  Beta  occ. eigenvalues --   -0.45895  -0.44946  -0.43692  -0.43266  -0.42807
  Beta  occ. eigenvalues --   -0.42361  -0.40906  -0.40709  -0.40296  -0.40058
  Beta  occ. eigenvalues --   -0.39209  -0.38581  -0.38127  -0.37904  -0.37583
  Beta  occ. eigenvalues --   -0.37364  -0.36969  -0.36255  -0.36010  -0.35842
  Beta  occ. eigenvalues --   -0.35797  -0.35685  -0.34512  -0.33262  -0.33052
  Beta  occ. eigenvalues --   -0.32512  -0.32324  -0.32031  -0.31305  -0.30216
  Beta  occ. eigenvalues --   -0.29574  -0.29188  -0.28456  -0.27292  -0.25907
  Beta virt. eigenvalues --   -0.14658  -0.14240  -0.13394  -0.13136  -0.12787
  Beta virt. eigenvalues --   -0.10298  -0.03181  -0.02801  -0.01567  -0.01144
  Beta virt. eigenvalues --   -0.00122   0.00034   0.00065   0.01476   0.01607

 Mulliken charges and spin densities:
               1          2
     1  C    0.179802  -0.000932
     2  C    2.843853   0.005618
     3  C   -0.494963  -0.011277
     4  C    0.050597   0.005158
     5  C    0.263907  -0.001891
     6  C   -0.069075   0.002824
     7  C   -2.398023  -0.006899
     8  C    0.411506   0.010073
     9  C    0.547853   0.002495
    10  C    0.688394  -0.001302
    11  C    0.450834   0.020311
    12  C   -0.234310   0.020755
    13  C    0.225252   0.000182
    14  O   -0.339020   0.155565
    15  Fe   0.656380   4.063222
    16  Cl  -0.516928   0.238838
    17  C    0.317670  -0.000661
    18  Cl  -0.477490   0.248555
    19  Cl  -0.502923   0.241117
    20  H   -0.247252   0.001162
    21  H   -0.160207  -0.000004
    22  H   -0.155098   0.000038
    23  H   -0.155669   0.000169
    24  H   -0.239358  -0.000114
    25  H   -0.192079  -0.000189
    26  C    0.787272  -0.000005
    27  H   -0.145146   0.000333
    28  H   -0.014566  -0.000041
    29  H   -0.089295   0.000045
    30  H   -0.114566   0.001074
    31  H   -0.252468  -0.000953
    32  H    0.001822   0.000030
    33  H    0.097938   0.000624
    34  H   -0.006170   0.000983
    35  H    0.018389   0.001066
    36  H    0.065716   0.001527
    37  H    0.053291  -0.000036
    38  O   -0.666314   0.002486
    39  O   -0.628834   0.000890
    40  C    0.426555   0.000714
    41  C    0.036916  -0.001355
    42  H   -0.035920   0.000034
    43  H   -0.036823   0.000019
    44  H   -0.006516   0.000036
    45  H    0.025936   0.000074
    46  H    0.029127  -0.000356
 Sum of Mulliken charges =  -0.00000   5.00000

 Dipole moment (field-independent basis, Debye):
    X=             10.4401    Y=             -5.8240    Z=             -2.9582  Tot=             12.3153
 Quadrupole moment (field-independent basis, Debye-Ang):
   XX=           -196.8514   YY=           -156.0337   ZZ=           -169.4506
   XY=             -7.5475   XZ=              9.8676   YZ=              7.3844

 Normal termination of Gaussian 16 at Sun Jun 20 10:50:47 2021.
