 Gaussian 16, Revision A.03,

 -----------------------------------------------------------
 #p opt=modredundant freq=noraman ub3lyp jul-cc-pvdz pop=cm5
 -----------------------------------------------------------

 -----
 title
 -----
 Symbolic Z-matrix:
 Charge =  0 Multiplicity = 6

 SCF Done:  E(UB3LYP) =  -3531.45144646     A.U. after   24 cycles
 SCF Done:  E(UB3LYP) =  -3531.45170474     A.U. after   16 cycles
 SCF Done:  E(UB3LYP) =  -3531.45048345     A.U. after   20 cycles
 SCF Done:  E(UB3LYP) =  -3531.45194318     A.U. after   15 cycles
 SCF Done:  E(UB3LYP) =  -3531.45181177     A.U. after   15 cycles
 SCF Done:  E(UB3LYP) =  -3531.45206906     A.U. after   14 cycles
 SCF Done:  E(UB3LYP) =  -3531.45207629     A.U. after   13 cycles
 SCF Done:  E(UB3LYP) =  -3531.45208896     A.U. after   12 cycles
 SCF Done:  E(UB3LYP) =  -3531.45208884     A.U. after   12 cycles
 SCF Done:  E(UB3LYP) =  -3531.45209478     A.U. after   12 cycles
 SCF Done:  E(UB3LYP) =  -3531.45209564     A.U. after   13 cycles
 SCF Done:  E(UB3LYP) =  -3531.45209627     A.U. after   11 cycles
 SCF Done:  E(UB3LYP) =  -3531.45209687     A.U. after   11 cycles
 SCF Done:  E(UB3LYP) =  -3531.45209741     A.U. after   11 cycles
 SCF Done:  E(UB3LYP) =  -3531.45209768     A.U. after    9 cycles
 SCF Done:  E(UB3LYP) =  -3531.45209790     A.U. after   10 cycles
 SCF Done:  E(UB3LYP) =  -3531.45209807     A.U. after    9 cycles
 Optimization completed.
    -- Stationary point found.
 Normal termination of Gaussian 16 at Sun Jun 20 16:32:04 2021.

 ----------------------------------------------------------------------
 #P Geom=AllCheck Guess=TCheck SCRF=Check GenChk UB3LYP/Jul-CC-pVDZ Fre
 q
 ----------------------------------------------------------------------

 Structure from the checkpoint file:  "checkpoint.chk"
 -----
 title
 -----
 Charge =  0 Multiplicity = 6

 SCF Done:  E(UB3LYP) =  -3531.45209807     A.U. after    1 cycles

  Exact polarizability: 306.180  11.164 305.876  26.529  -1.566 303.207
 Approx polarizability: 474.774  47.189 464.502  52.652 -12.983 486.861

 ******    1 imaginary frequencies (negative Signs) ******

                      1                      2                      3
                      A                      A                      A
 Frequencies --     -7.1752                14.3527                23.2958
 Red. masses --      5.7814                 7.7016                 6.5955
 Frc consts  --      0.0002                 0.0009                 0.0021
 IR Inten    --      0.3778                 0.4771                 0.6123

                      4                      5                      6
                      A                      A                      A
 Frequencies --     31.7874                41.7145                52.1325
 Red. masses --      5.6082                 7.2210                 5.0268
 Frc consts  --      0.0033                 0.0074                 0.0080
 IR Inten    --      1.0798                 1.2978                 0.6287

                      7                      8                      9
                      A                      A                      A
 Frequencies --     63.9519                65.7706                74.6809
 Red. masses --      4.4396                 2.9219                 4.4790
 Frc consts  --      0.0107                 0.0074                 0.0147
 IR Inten    --      0.4780                 0.6230                 0.5528

                     10                     11                     12
                      A                      A                      A
 Frequencies --     78.9681                82.2842                92.6816
 Red. masses --      7.0202                 8.0565                 3.5055
 Frc consts  --      0.0258                 0.0321                 0.0177
 IR Inten    --      0.6300                 1.0138                 0.8353

                     13                     14                     15
                      A                      A                      A
 Frequencies --     96.5435               107.0119               109.6279
 Red. masses --      3.9646                 3.2576                 4.6328
 Frc consts  --      0.0218                 0.0220                 0.0328
 IR Inten    --      1.6128                 0.2074                 0.2406

                     16                     17                     18
                      A                      A                      A
 Frequencies --    115.9695               120.6969               133.1224
 Red. masses --      6.7051                12.6541                 1.4183
 Frc consts  --      0.0531                 0.1086                 0.0148
 IR Inten    --      0.9794                 1.7622                 1.1984

                     19                     20                     21
                      A                      A                      A
 Frequencies --    148.7926               153.9010               175.2805
 Red. masses --      3.2585                 6.1715                 4.4995
 Frc consts  --      0.0425                 0.0861                 0.0814
 IR Inten    --      3.0488                10.7991                 9.7186

                     22                     23                     24
                      A                      A                      A
 Frequencies --    204.7274               207.4879               212.9671
 Red. masses --      1.2828                 2.9991                 3.3083
 Frc consts  --      0.0317                 0.0761                 0.0884
 IR Inten    --      4.7920                 2.2357                 1.8402

                     25                     26                     27
                      A                      A                      A
 Frequencies --    258.8628               260.2751               279.5201
 Red. masses --      1.4552                 3.1010                 4.1373
 Frc consts  --      0.0575                 0.1238                 0.1905
 IR Inten    --      1.5561                19.5660                 1.1483

                     28                     29                     30
                      A                      A                      A
 Frequencies --    300.2215               312.4743               343.2241
 Red. masses --      8.8549                 2.3200                24.1985
 Frc consts  --      0.4702                 0.1335                 1.6796
 IR Inten    --     17.3575                 0.6008                33.9209

                     31                     32                     33
                      A                      A                      A
 Frequencies --    353.1819               379.9871               388.9221
 Red. masses --      5.2006                 3.6866                 2.9524
 Frc consts  --      0.3822                 0.3136                 0.2631
 IR Inten    --     19.6308                 1.8900                 6.5568

                     34                     35                     36
                      A                      A                      A
 Frequencies --    399.9828               407.7757               413.1943
 Red. masses --     27.6368                20.6927                 3.1676
 Frc consts  --      2.6051                 2.0273                 0.3186
 IR Inten    --     75.9630                75.3394                 7.0550

                     37                     38                     39
                      A                      A                      A
 Frequencies --    422.3057               442.8408               472.5784
 Red. masses --      3.6503                 2.7580                 3.3672
 Frc consts  --      0.3836                 0.3187                 0.4431
 IR Inten    --     20.9911                 8.3275                 0.3543

                     40                     41                     42
                      A                      A                      A
 Frequencies --    490.6651               512.9003               541.3025
 Red. masses --      2.4094                 2.8246                 4.1800
 Frc consts  --      0.3418                 0.4378                 0.7216
 IR Inten    --      6.7270                 1.4468                16.8142

                     43                     44                     45
                      A                      A                      A
 Frequencies --    577.9459               623.7813               658.5500
 Red. masses --      5.0927                 6.4002                 4.6992
 Frc consts  --      1.0022                 1.4673                 1.2007
 IR Inten    --     49.9138                 2.0301                39.5857

                     46                     47                     48
                      A                      A                      A
 Frequencies --    693.5834               697.3170               750.7964
 Red. masses --      5.6316                 1.6009                 4.2362
 Frc consts  --      1.5962                 0.4586                 1.4069
 IR Inten    --      4.3839                58.9952                 4.5894

                     49                     50                     51
                      A                      A                      A
 Frequencies --    774.5104               784.9823               806.1313
 Red. masses --      2.3194                 2.1952                 1.1312
 Frc consts  --      0.8197                 0.7970                 0.4331
 IR Inten    --     29.5337                 1.9153                 1.3557

                     52                     53                     54
                      A                      A                      A
 Frequencies --    834.3311               841.8661               853.5965
 Red. masses --      4.6846                 1.4931                 1.2520
 Frc consts  --      1.9213                 0.6235                 0.5375
 IR Inten    --      6.3263                20.3689                 1.2667

                     55                     56                     57
                      A                      A                      A
 Frequencies --    864.6782               899.1141               905.2524
 Red. masses --      2.7857                 2.1779                 2.1801
 Frc consts  --      1.2272                 1.0373                 1.0526
 IR Inten    --     24.7363                 0.0875                16.6837

                     58                     59                     60
                      A                      A                      A
 Frequencies --    961.0482               962.0531               976.4042
 Red. masses --      1.4875                 1.4464                 3.0170
 Frc consts  --      0.8094                 0.7888                 1.6947
 IR Inten    --      3.1413                 2.3583                18.3697

                     61                     62                     63
                      A                      A                      A
 Frequencies --    992.0137               996.7563               999.6787
 Red. masses --      2.3213                 1.3893                 1.6475
 Frc consts  --      1.3459                 0.8132                 0.9700
 IR Inten    --     33.6698                 5.5279                 4.8126

                     64                     65                     66
                      A                      A                      A
 Frequencies --   1003.0477              1014.4952              1021.6205
 Red. masses --      2.8692                 1.3494                 2.1094
 Frc consts  --      1.7008                 0.8183                 1.2972
 IR Inten    --      0.3220                 0.8234                 0.0505

                     67                     68                     69
                      A                      A                      A
 Frequencies --   1036.5410              1047.0218              1077.6634
 Red. masses --      2.5957                 2.3998                 2.0981
 Frc consts  --      1.6432                 1.5500                 1.4357
 IR Inten    --     43.7040                 2.5657                 0.8660

                     70                     71                     72
                      A                      A                      A
 Frequencies --   1095.4849              1099.7988              1117.2304
 Red. masses --      1.7199                 2.2598                 1.5843
 Frc consts  --      1.2161                 1.6104                 1.1651
 IR Inten    --      0.9049                15.9932                 6.1528

                     73                     74                     75
                      A                      A                      A
 Frequencies --   1133.3153              1138.2202              1165.2909
 Red. masses --      2.1722                 2.1456                 1.6911
 Frc consts  --      1.6438                 1.6378                 1.3529
 IR Inten    --     16.1099                 8.0962                88.6310

                     76                     77                     78
                      A                      A                      A
 Frequencies --   1169.7772              1179.3672              1206.8175
 Red. masses --      1.5871                 1.0856                 1.4352
 Frc consts  --      1.2796                 0.8896                 1.2316
 IR Inten    --     14.8705                 1.0960                49.2167

                     79                     80                     81
                      A                      A                      A
 Frequencies --   1209.6753              1228.3596              1253.1437
 Red. masses --      1.3828                 1.9685                 1.9749
 Frc consts  --      1.1922                 1.7500                 1.8272
 IR Inten    --     71.5504               155.9758                31.4632

                     82                     83                     84
                      A                      A                      A
 Frequencies --   1276.6887              1284.1433              1323.5895
 Red. masses --      1.9567                 1.1478                 1.3948
 Frc consts  --      1.8791                 1.1152                 1.4396
 IR Inten    --    162.6575                 8.5416                 6.5063

                     85                     86                     87
                      A                      A                      A
 Frequencies --   1327.2287              1338.6534              1343.6197
 Red. masses --      1.8493                 1.5033                 1.6513
 Frc consts  --      1.9194                 1.5872                 1.7565
 IR Inten    --    120.5951                15.4511                27.2299

                     88                     89                     90
                      A                      A                      A
 Frequencies --   1368.0628              1371.6263              1379.3515
 Red. masses --      2.0155                 1.9359                 1.3351
 Frc consts  --      2.2225                 2.1459                 1.4966
 IR Inten    --      4.2111                10.8547                 5.5809

                     91                     92                     93
                      A                      A                      A
 Frequencies --   1380.7691              1405.3248              1410.4492
 Red. masses --      1.3649                 1.4125                 1.3035
 Frc consts  --      1.5331                 1.6436                 1.5278
 IR Inten    --     17.1392                 7.6489                13.4016

                     94                     95                     96
                      A                      A                      A
 Frequencies --   1416.1557              1461.0851              1466.6309
 Red. masses --      1.3952                 1.0602                 1.3906
 Frc consts  --      1.6485                 1.3334                 1.7623
 IR Inten    --     12.3769                 3.8466                12.5450

                     97                     98                     99
                      A                      A                      A
 Frequencies --   1467.8841              1474.6513              1479.5660
 Red. masses --      1.5387                 1.0385                 1.0807
 Frc consts  --      1.9534                 1.3305                 1.3939
 IR Inten    --     17.2361                 5.2332                 1.8617

                    100                    101                    102
                      A                      A                      A
 Frequencies --   1481.9199              1486.3033              1487.0060
 Red. masses --      1.0539                 1.0897                 1.0581
 Frc consts  --      1.3636                 1.4183                 1.3785
 IR Inten    --     15.3288                 8.6169                 2.2191

                    103                    104                    105
                      A                      A                      A
 Frequencies --   1490.8917              1505.3363              1518.8129
 Red. masses --      1.0865                 1.0830                 2.1595
 Frc consts  --      1.4228                 1.4459                 2.9350
 IR Inten    --      9.6126                 6.4898                 5.9120

                    106                    107                    108
                      A                      A                      A
 Frequencies --   1569.7831              1620.9969              1642.4430
 Red. masses --      7.1715                 5.5566                 5.7372
 Frc consts  --     10.4121                 8.6025                 9.1187
 IR Inten    --    653.2299                64.0205                40.2865

                    109                    110                    111
                      A                      A                      A
 Frequencies --   1714.8649              1769.6113              3014.5695
 Red. masses --      6.4189                11.5787                 1.0381
 Frc consts  --     11.1217                21.3631                 5.5582
 IR Inten    --     64.9371               215.0012                15.1975

                    112                    113                    114
                      A                      A                      A
 Frequencies --   3024.0899              3026.4044              3042.0486
 Red. masses --      1.0581                 1.0486                 1.0355
 Frc consts  --      5.7011                 5.6588                 5.6459
 IR Inten    --     25.0999                21.0289                14.9064

                    115                    116                    117
                      A                      A                      A
 Frequencies --   3061.7416              3066.7344              3070.8799
 Red. masses --      1.0582                 1.0636                 1.0978
 Frc consts  --      5.8446                 5.8936                 6.0997
 IR Inten    --     14.1684                22.9198                 3.2053

                    118                    119                    120
                      A                      A                      A
 Frequencies --   3077.0445              3077.9665              3082.3181
 Red. masses --      1.0971                 1.0850                 1.0959
 Frc consts  --      6.1203                 6.0562                 6.1343
 IR Inten    --     25.0332                 2.6609                 5.8179

                    121                    122                    123
                      A                      A                      A
 Frequencies --   3108.2404              3115.4233              3118.8554
 Red. masses --      1.1075                 1.1006                 1.1004
 Frc consts  --      6.3040                 6.2937                 6.3065
 IR Inten    --      6.9642                 8.2767                 8.8768

                    124                    125                    126
                      A                      A                      A
 Frequencies --   3118.9614              3125.1955              3136.8646
 Red. masses --      1.0995                 1.0903                 1.1053
 Frc consts  --      6.3015                 6.2743                 6.4083
 IR Inten    --      9.7691                33.7553                16.3121

                    127                    128                    129
                      A                      A                      A
 Frequencies --   3138.3588              3175.8187              3189.6204
 Red. masses --      1.0969                 1.0864                 1.0910
 Frc consts  --      6.3654                 6.4556                 6.5398
 IR Inten    --     23.6876                 1.1136                 7.1969

                    130                    131                    132
                      A                      A                      A
 Frequencies --   3197.9057              3216.5337              3224.2866
 Red. masses --      1.0961                 1.0941                 1.0935
 Frc consts  --      6.6041                 6.6694                 6.6980
 IR Inten    --      7.4576                 5.7320                 6.5052

 - Thermochemistry -
 -------------------
 Temperature   298.150 Kelvin.  Pressure   1.00000 Atm.
 Atom     1 has atomic number  6 and mass  12.00000

 Molecular mass:   434.99839 amu.
 Principal axes and moments of inertia in atomic units:
                           1         2         3
     Eigenvalues --  ******************************
           X            0.99296  -0.11836   0.00470
           Y            0.11820   0.99265   0.02590
           Z           -0.00773  -0.02516   0.99965
 This molecule is an asymmetric top.
 Rotational symmetry number  1.
 Warning -- assumption of classical behavior for rotation
           may cause significant error
 Rotational temperatures (Kelvin)      0.00856     0.00770     0.00651
 Rotational constants (GHZ):           0.17832     0.16036     0.13557
    1 imaginary frequencies ignored.
 Zero-point vibrational energy     943330.5 (Joules/Mol)
                                  225.46139 (Kcal/Mol)
 Warning -- explicit consideration of  42 degrees of freedom as
           vibrations may cause significant error
 Vibrational temperatures:     20.65    33.52    45.73    60.02    75.01
          (Kelvin)             92.01    94.63   107.45   113.62   118.39
                              133.35   138.90   153.97   157.73   166.85
                              173.66   191.53   214.08   221.43   252.19
                              294.56   298.53   306.41   372.45   374.48
                              402.17   431.95   449.58   493.82   508.15
                              546.72   559.57   575.49   586.70   594.49
                              607.60   637.15   679.93   705.96   737.95
                              778.81   831.54   897.48   947.51   997.91
                             1003.28  1080.23  1114.35  1129.41  1159.84
                             1200.42  1211.26  1228.14  1244.08  1293.62
                             1302.46  1382.73  1384.18  1404.83  1427.29
                             1434.11  1438.31  1443.16  1459.63  1469.88
                             1491.35  1506.43  1550.52  1576.16  1582.37
                             1607.45  1630.59  1637.64  1676.59  1683.05
                             1696.85  1736.34  1740.45  1767.34  1802.99
                             1836.87  1847.60  1904.35  1909.59  1926.02
                             1933.17  1968.34  1973.46  1984.58  1986.62
                             2021.95  2029.32  2037.53  2102.18  2110.15
                             2111.96  2121.69  2128.77  2132.15  2138.46
                             2139.47  2145.06  2165.84  2185.23  2258.57
                             2332.25  2363.11  2467.31  2546.08  4337.29
                             4350.99  4354.32  4376.83  4405.16  4412.35
                             4418.31  4427.18  4428.51  4434.77  4472.06
                             4482.40  4487.34  4487.49  4496.46  4513.25
                             4515.40  4569.29  4589.15  4601.07  4627.87
                             4639.03

 Zero-point correction=                           0.359296 (Hartree/Particle)
 Thermal correction to Energy=                    0.387142
 Thermal correction to Enthalpy=                  0.388087
 Thermal correction to Gibbs Free Energy=         0.295563
 Sum of electronic and zero-point Energies=          -3531.092802
 Sum of electronic and thermal Energies=             -3531.064956
 Sum of electronic and thermal Enthalpies=           -3531.064011
 Sum of electronic and thermal Free Energies=        -3531.156535

                     E (Thermal)             CV                S
                      KCal/Mol        Cal/Mol-Kelvin    Cal/Mol-Kelvin
 Total                  242.936             97.861            194.732
 Electronic               0.000              0.000              3.561
 Translational            0.889              2.981             44.100
 Rotational               0.889              2.981             35.671
 Vibrational            241.158             91.899            111.400
 Vibration     1          0.593              1.986              7.293
 Vibration     2          0.593              1.985              6.331
 Vibration     3          0.594              1.983              5.715
 Vibration     4          0.594              1.981              5.176
 Vibration     5          0.596              1.977              4.735
 Vibration     6          0.597              1.972              4.331
 Vibration     7          0.597              1.971              4.276
 Vibration     8          0.599              1.966              4.026
 Vibration     9          0.600              1.963              3.916
 Vibration    10          0.600              1.961              3.836
 Vibration    11          0.602              1.954              3.603
 Vibration    12          0.603              1.952              3.523
 Vibration    13          0.606              1.944              3.322
 Vibration    14          0.606              1.941              3.275
 Vibration    15          0.608              1.936              3.166
 Vibration    16          0.609              1.932              3.089
 Vibration    17          0.613              1.920              2.900
 Vibration    18          0.618              1.904              2.688
 Vibration    19          0.619              1.898              2.623
 Vibration    20          0.627              1.873              2.378
 Vibration    21          0.640              1.833              2.090
 Vibration    22          0.641              1.829              2.066
 Vibration    23          0.644              1.821              2.018
 Vibration    24          0.668              1.748              1.669
 Vibration    25          0.668              1.745              1.660
 Vibration    26          0.680              1.711              1.537
 Vibration    27          0.693              1.673              1.416
 Vibration    28          0.701              1.650              1.349
 Vibration    29          0.722              1.589              1.197
 Vibration    30          0.729              1.569              1.152
 Vibration    31          0.750              1.513              1.039
 Vibration    32          0.757              1.494              1.004
 Vibration    33          0.766              1.470              0.963
 Vibration    34          0.772              1.453              0.935
 Vibration    35          0.777              1.442              0.915
 Vibration    36          0.785              1.422              0.884
 Vibration    37          0.802              1.377              0.818
 Vibration    38          0.829              1.311              0.730
 Vibration    39          0.846              1.271              0.682
 Vibration    40          0.868              1.221              0.627
 Vibration    41          0.896              1.159              0.562
 Vibration    42          0.934              1.079              0.489

                           ! Non-Optimized Parameters !
 Normal termination of Gaussian 16 at Sun Jun 20 21:13:11 2021.

 ----------------------------------------------------------------------
 #p ub3lyp jul-cc-pvdz pop=cm5 scrf=(pcm,solvent=dichloroethane) guess=
 read geom=allcheck
 ----------------------------------------------------------------------

 Structure from the checkpoint file:  "checkpoint.chk"
 -----
 title
 -----
 Charge =  0 Multiplicity = 6

 SCF Done:  E(UB3LYP) =  -3531.46902055     A.U. after   18 cycles
 Normal termination of Gaussian 16 at Sun Jun 20 21:33:55 2021.
 Gaussian 16:  ES64L-G16RevA.03 25-Dec-2016

 ----------------------------------------------------------------------
 #p ub3lyp jul-cc-pvdz pop=cm5 scrf=(pcm,solvent=water) guess=read geom
 =allcheck
 ----------------------------------------------------------------------

 Structure from the checkpoint file:  "checkpoint.chk"
 -----
 title
 -----
 Charge =  0 Multiplicity = 6

                         Standard orientation:
 ---------------------------------------------------------------------
 Center     Atomic      Atomic             Coordinates (Angstroms)
 Number     Number       Type             X           Y           Z
 ---------------------------------------------------------------------
      1          6           0        2.768024    0.430313    1.373519
      2          6           0        1.596756   -0.269898    1.013087
      3          6           0        1.070151   -1.228923    1.905716
      4          6           0        1.705167   -1.490057    3.115447
      5          6           0        2.866771   -0.789201    3.463225
      6          6           0        3.390345    0.173978    2.594323
      7          6           0        0.874694    0.003362   -0.242605
      8          6           0        1.428694    0.902459   -1.354048
      9          6           0        2.770292    0.478302   -1.975106
     10          6           0        2.642556   -0.881905   -2.679492
     11          6           0        2.207876   -1.961196   -1.726904
     12          6           0        1.070162   -2.684492   -1.750895
     13          6           0       -0.026311   -2.532901   -2.769504
     14          8           0       -0.305170   -0.392288   -0.389184
     15         26           0       -2.178012   -0.354184    0.285163
     16         17           0       -3.405252    0.262960   -1.426464
     17          6           0        0.820388   -3.756886   -0.722505
     18         17           0       -2.148774    1.095671    1.939711
     19         17           0       -2.613556   -2.408390    0.962593
     20          1           0        0.165229   -1.773270    1.643282
     21          1           0        1.289680   -2.235844    3.793559
     22          1           0        3.360506   -0.990233    4.415397
     23          1           0        4.285447    0.732429    2.869820
     24          1           0        3.179742    1.199937    0.725455
     25          1           0        0.650202    0.865029   -2.127329
     26          6           0        1.449693    2.364981   -0.866288
     27          1           0        3.070796    1.254834   -2.691717
     28          1           0        3.559676    0.440621   -1.215491
     29          1           0        1.947334   -0.791069   -3.524814
     30          1           0        3.624047   -1.141479   -3.108073
     31          1           0        2.929394   -2.191519   -0.935991
     32          1           0        1.629878   -3.814953    0.016519
     33          1           0       -0.132177   -3.585286   -0.197793
     34          1           0        0.730887   -4.740395   -1.211735
     35          1           0       -0.200796   -3.493768   -3.279148
     36          1           0       -0.974048   -2.267728   -2.276441
     37          1           0        0.182118   -1.776492   -3.533564
     38          8           0        0.203347    2.826328   -0.729991
     39          8           0        2.456493    3.007016   -0.656087
     40          6           0        0.055034    4.200248   -0.255260
     41          6           0       -1.424122    4.522553   -0.248079
     42          1           0        0.501943    4.258312    0.746318
     43          1           0        0.628392    4.853525   -0.926034
     44          1           0       -1.565623    5.550604    0.115380
     45          1           0       -1.847861    4.450669   -1.259005
     46          1           0       -1.971942    3.837897    0.412188
 ---------------------------------------------------------------------

 SCF Done:  E(UB3LYP) =  -3531.47211625     A.U. after   14 cycles

 The electronic state is 6-A.
 Alpha  occ. eigenvalues -- -256.21877-101.53072-101.53003-101.52907 -30.21260
 Alpha  occ. eigenvalues --  -26.06733 -26.06393 -26.06353 -19.21189 -19.20320
 Alpha  occ. eigenvalues --  -19.16331 -10.34310 -10.33703 -10.25266 -10.23443
 Alpha  occ. eigenvalues --  -10.23045 -10.22197 -10.22091 -10.22017 -10.21337
 Alpha  occ. eigenvalues --  -10.21320 -10.20435 -10.20403 -10.19401 -10.18756
 Alpha  occ. eigenvalues --  -10.18508 -10.18303 -10.18167  -9.44784  -9.44721
 Alpha  occ. eigenvalues --   -9.44643  -7.20653  -7.20591  -7.20511  -7.20353
 Alpha  occ. eigenvalues --   -7.20318  -7.20281  -7.20258  -7.20191  -7.20188
 Alpha  occ. eigenvalues --   -3.68899  -2.46691  -2.46046  -2.45973  -1.13152
 Alpha  occ. eigenvalues --   -1.10586  -1.04685  -0.88795  -0.84877  -0.82089
 Alpha  occ. eigenvalues --   -0.81035  -0.80293  -0.80232  -0.79146  -0.78611
 Alpha  occ. eigenvalues --   -0.77435  -0.75041  -0.69719  -0.69249  -0.67500
 Alpha  occ. eigenvalues --   -0.64758  -0.63108  -0.61948  -0.60015  -0.57862
 Alpha  occ. eigenvalues --   -0.56621  -0.53871  -0.52804  -0.52051  -0.50983
 Alpha  occ. eigenvalues --   -0.50279  -0.49520  -0.49197  -0.48947  -0.48795
 Alpha  occ. eigenvalues --   -0.48523  -0.47453  -0.47037  -0.46848  -0.45773
 Alpha  occ. eigenvalues --   -0.45376  -0.44936  -0.44375  -0.43303  -0.42953
 Alpha  occ. eigenvalues --   -0.42504  -0.41016  -0.40414  -0.39938  -0.39386
 Alpha  occ. eigenvalues --   -0.38816  -0.38528  -0.38035  -0.37852  -0.37434
 Alpha  occ. eigenvalues --   -0.37251  -0.36927  -0.36602  -0.36439  -0.35210
 Alpha  occ. eigenvalues --   -0.35049  -0.34797  -0.33305  -0.32720  -0.32386
 Alpha  occ. eigenvalues --   -0.31841  -0.31799  -0.31640  -0.31444  -0.30531
 Alpha  occ. eigenvalues --   -0.30349  -0.29984  -0.28856  -0.28069  -0.24674
 Alpha virt. eigenvalues --   -0.11305  -0.03719  -0.02335  -0.01677  -0.00692
 Alpha virt. eigenvalues --   -0.00133  -0.00036   0.00132   0.00610   0.01529
 Alpha virt. eigenvalues --    0.01719   0.01887   0.02267   0.02539   0.03237

  Beta  occ. eigenvalues -- -256.21691-101.52870-101.52807-101.52712 -30.12319
  Beta  occ. eigenvalues --  -25.99132 -25.99011 -25.98981 -19.21188 -19.19986
  Beta  occ. eigenvalues --  -19.16327 -10.34306 -10.33674 -10.25266 -10.23428
  Beta  occ. eigenvalues --  -10.23033 -10.22193 -10.22084 -10.22014 -10.21338
  Beta  occ. eigenvalues --  -10.21323 -10.20426 -10.20402 -10.19401 -10.18755
  Beta  occ. eigenvalues --  -10.18501 -10.18304 -10.18167  -9.44586  -9.44529
  Beta  occ. eigenvalues --   -9.44452  -7.20333  -7.20272  -7.20198  -7.20065
  Beta  occ. eigenvalues --   -7.20049  -7.20011  -7.19996  -7.19927  -7.19920
  Beta  occ. eigenvalues --   -3.48045  -2.24360  -2.24233  -2.24186  -1.13142
  Beta  occ. eigenvalues --   -1.09952  -1.04679  -0.88762  -0.84827  -0.82051
  Beta  occ. eigenvalues --   -0.79756  -0.79119  -0.78911  -0.78862  -0.78596
  Beta  occ. eigenvalues --   -0.77427  -0.75004  -0.69707  -0.69138  -0.67397
  Beta  occ. eigenvalues --   -0.64729  -0.63082  -0.61681  -0.59683  -0.57719
  Beta  occ. eigenvalues --   -0.55954  -0.53434  -0.52708  -0.51940  -0.50734
  Beta  occ. eigenvalues --   -0.49994  -0.49253  -0.47405  -0.46916  -0.46299
  Beta  occ. eigenvalues --   -0.45420  -0.45163  -0.44369  -0.43318  -0.42949
  Beta  occ. eigenvalues --   -0.42505  -0.41031  -0.40404  -0.39925  -0.39302
  Beta  occ. eigenvalues --   -0.38872  -0.38590  -0.38441  -0.37883  -0.37429
  Beta  occ. eigenvalues --   -0.37260  -0.36928  -0.36662  -0.36641  -0.36503
  Beta  occ. eigenvalues --   -0.36428  -0.35147  -0.33961  -0.33780  -0.33520
  Beta  occ. eigenvalues --   -0.33063  -0.32852  -0.32423  -0.31778  -0.30925
  Beta  occ. eigenvalues --   -0.30197  -0.30123  -0.28907  -0.28056  -0.24602
  Beta virt. eigenvalues --   -0.15975  -0.15457  -0.14426  -0.14094  -0.14014
  Beta virt. eigenvalues --   -0.10381  -0.03688  -0.02302  -0.01542  -0.00613
  Beta virt. eigenvalues --   -0.00088   0.00003   0.00184   0.00720   0.01555

 Mulliken charges and spin densities:
               1          2
     1  C   -0.159449   0.004313
     2  C    3.220391  -0.001670
     3  C   -0.666727  -0.005892
     4  C    0.110742   0.001045
     5  C    0.264161   0.007807
     6  C   -0.149906  -0.001244
     7  C   -1.775268  -0.005979
     8  C    0.218829   0.010750
     9  C    0.582467   0.001929
    10  C    0.577743  -0.000124
    11  C    0.162338   0.003877
    12  C   -0.019544   0.010290
    13  C    0.113600  -0.001431
    14  O   -0.313078   0.095186
    15  Fe   0.752407   4.074441
    16  Cl  -0.479958   0.266860
    17  C    0.154437  -0.001647
    18  Cl  -0.445389   0.269481
    19  Cl  -0.454849   0.263943
    20  H   -0.287782   0.000211
    21  H   -0.160068   0.000014
    22  H   -0.142956  -0.000107
    23  H   -0.153642   0.000094
    24  H   -0.198170  -0.000093
    25  H   -0.142936  -0.000387
    26  C    0.782680   0.004097
    27  H   -0.137791   0.000492
    28  H   -0.044576   0.000028
    29  H   -0.093748   0.000014
    30  H   -0.120467   0.000511
    31  H   -0.241583  -0.000248
    32  H   -0.018608   0.000061
    33  H    0.050751   0.000349
    34  H   -0.023039   0.000365
    35  H   -0.018433   0.000366
    36  H    0.018332   0.000606
    37  H   -0.009026   0.000022
    38  O   -0.660151   0.000916
    39  O   -0.548552   0.001673
    40  C    0.438356  -0.000192
    41  C    0.035610  -0.000405
    42  H   -0.031436   0.000043
    43  H   -0.036307   0.000007
    44  H   -0.003837   0.000035
    45  H    0.026127   0.000039
    46  H    0.028302  -0.000445
 Sum of Mulliken charges =  -0.00000   5.00000

 Dipole moment (field-independent basis, Debye):
    X=              9.6399    Y=              0.3613    Z=             -0.3698  Tot=              9.6538
 Quadrupole moment (field-independent basis, Debye-Ang):
   XX=           -191.0160   YY=           -169.4914   ZZ=           -164.7977
   XY=            -10.8451   XZ=              8.0030   YZ=             -2.1370

 Normal termination of Gaussian 16 at Sun Jun 20 21:50:04 2021.
