 Gaussian 16, Revision A.03,

 -----------------------------------------------------------
 #p opt=modredundant freq=noraman ub3lyp jul-cc-pvdz pop=cm5
 -----------------------------------------------------------

 -----
 title
 -----
 Symbolic Z-matrix:
 Charge =  0 Multiplicity = 6

 SCF Done:  E(UB3LYP) =  -3531.43001484     A.U. after   25 cycles
 SCF Done:  E(UB3LYP) =  -3531.42790372     A.U. after   23 cycles
 SCF Done:  E(UB3LYP) =  -3531.42898096     A.U. after   18 cycles
 SCF Done:  E(UB3LYP) =  -3531.43116114     A.U. after   11 cycles
 SCF Done:  E(UB3LYP) =  -3531.42787543     A.U. after   22 cycles
 SCF Done:  E(UB3LYP) =  -3531.43037382     A.U. after   17 cycles
 SCF Done:  E(UB3LYP) =  -3531.43128199     A.U. after   12 cycles
 SCF Done:  E(UB3LYP) =  -3531.43145861     A.U. after   15 cycles
 SCF Done:  E(UB3LYP) =  -3531.43145761     A.U. after   14 cycles
 SCF Done:  E(UB3LYP) =  -3531.43146009     A.U. after   15 cycles
 SCF Done:  E(UB3LYP) =  -3531.43216007     A.U. after   12 cycles
 SCF Done:  E(UB3LYP) =  -3531.43215979     A.U. after   10 cycles
 SCF Done:  E(UB3LYP) =  -3531.43215946     A.U. after   10 cycles
 SCF Done:  E(UB3LYP) =  -3531.43215934     A.U. after    9 cycles
 SCF Done:  E(UB3LYP) =  -3531.43215945     A.U. after    9 cycles
 SCF Done:  E(UB3LYP) =  -3531.43215942     A.U. after    9 cycles
 SCF Done:  E(UB3LYP) =  -3531.43215946     A.U. after    9 cycles
 Optimization completed.
    -- Stationary point found.
 Normal termination of Gaussian 16 at Sun Jun 20 19:55:20 2021.

 ----------------------------------------------------------------------
 #P Geom=AllCheck Guess=TCheck SCRF=Check GenChk UB3LYP/Jul-CC-pVDZ Fre
 q
 ----------------------------------------------------------------------

 Structure from the checkpoint file:  "checkpoint.chk"
 -----
 title
 -----
 Charge =  0 Multiplicity = 6

 SCF Done:  E(UB3LYP) =  -3531.43215946     A.U. after    1 cycles

  Exact polarizability: 317.680 -13.486 303.740  15.821  -7.083 301.938
 Approx polarizability: 490.462 -47.755 463.642  20.244  -2.013 499.357

 ******    1 imaginary frequencies (negative Signs) ******

                      1                      2                      3
                      A                      A                      A
 Frequencies --    -22.8306                15.4987                21.9266
 Red. masses --      6.2499                 4.8080                 6.6732
 Frc consts  --      0.0019                 0.0007                 0.0019
 IR Inten    --      0.3538                 0.1091                 1.2674

                      4                      5                      6
                      A                      A                      A
 Frequencies --     28.5873                48.6298                50.6430
 Red. masses --      7.9304                 6.5315                 3.5718
 Frc consts  --      0.0038                 0.0091                 0.0054
 IR Inten    --      0.7513                 1.8376                 0.6675

                      7                      8                      9
                      A                      A                      A
 Frequencies --     56.5701                63.9377                79.9165
 Red. masses --      5.2122                 3.0652                10.0881
 Frc consts  --      0.0098                 0.0074                 0.0380
 IR Inten    --      2.0873                 1.5691                 0.3303

                     10                     11                     12
                      A                      A                      A
 Frequencies --     87.2664                91.3139                98.7256
 Red. masses --      8.7843                 6.8271                 4.3780
 Frc consts  --      0.0394                 0.0335                 0.0251
 IR Inten    --      0.2400                 5.1461                 0.8865

                     13                     14                     15
                      A                      A                      A
 Frequencies --    104.3259               115.7365               120.2026
 Red. masses --      5.6361                15.1198                 1.5933
 Frc consts  --      0.0361                 0.1193                 0.0136
 IR Inten    --      0.6412                 0.2336                 2.0578

                     16                     17                     18
                      A                      A                      A
 Frequencies --    124.1802               143.1685               147.9668
 Red. masses --      9.9505                 3.1511                 3.2905
 Frc consts  --      0.0904                 0.0381                 0.0424
 IR Inten    --      2.1768                 5.6524                 1.4057

                     19                     20                     21
                      A                      A                      A
 Frequencies --    164.9349               174.0711               190.4631
 Red. masses --      2.7657                 3.4001                 1.4539
 Frc consts  --      0.0443                 0.0607                 0.0311
 IR Inten    --     14.7232                10.5996                 4.3684

                     22                     23                     24
                      A                      A                      A
 Frequencies --    202.7419               204.9454               225.6115
 Red. masses --      2.9383                 1.8936                 3.3256
 Frc consts  --      0.0712                 0.0469                 0.0997
 IR Inten    --      0.4436                 2.7450                 9.0471

                     25                     26                     27
                      A                      A                      A
 Frequencies --    259.2256               267.1265               290.1988
 Red. masses --      1.6577                 4.3870                 3.9108
 Frc consts  --      0.0656                 0.1844                 0.1940
 IR Inten    --      4.9417                78.8204                 2.6686

                     28                     29                     30
                      A                      A                      A
 Frequencies --    318.0627               333.3054               351.1978
 Red. masses --      2.2348                15.4843                 7.5359
 Frc consts  --      0.1332                 1.0135                 0.5476
 IR Inten    --      0.5060                13.8536                13.5678

                     31                     32                     33
                      A                      A                      A
 Frequencies --    354.4675               377.4465               394.6178
 Red. masses --      6.9846                 4.6097                16.4448
 Frc consts  --      0.5171                 0.3869                 1.5088
 IR Inten    --     31.0484                17.3404                82.7618

                     34                     35                     36
                      A                      A                      A
 Frequencies --    397.6359               400.5766               410.7358
 Red. masses --      4.0063                 6.8449                 2.8648
 Frc consts  --      0.3732                 0.6471                 0.2848
 IR Inten    --     27.5645                53.9320                 0.9175

                     37                     38                     39
                      A                      A                      A
 Frequencies --    423.4502               453.3515               478.1026
 Red. masses --      3.7432                 3.6651                 3.0805
 Frc consts  --      0.3955                 0.4438                 0.4149
 IR Inten    --     47.8006                 1.3495                10.1188

                     40                     41                     42
                      A                      A                      A
 Frequencies --    507.2484               519.0600               551.0046
 Red. masses --      3.1344                 2.9087                 3.1182
 Frc consts  --      0.4752                 0.4617                 0.5578
 IR Inten    --     12.4661                 3.9018                25.8826

                     43                     44                     45
                      A                      A                      A
 Frequencies --    585.5483               624.4527               645.3865
 Red. masses --      4.2441                 6.2057                 4.1170
 Frc consts  --      0.8574                 1.4257                 1.0103
 IR Inten    --     76.9872                 8.4561                90.8490

                     46                     47                     48
                      A                      A                      A
 Frequencies --    689.8856               701.1183               753.4505
 Red. masses --      1.6087                 6.2106                 4.5124
 Frc consts  --      0.4511                 1.7987                 1.5093
 IR Inten    --     56.9686                15.2863                 7.1863

                     49                     50                     51
                      A                      A                      A
 Frequencies --    767.9962               787.8937               803.8446
 Red. masses --      2.3363                 2.2531                 1.2756
 Frc consts  --      0.8119                 0.8241                 0.4856
 IR Inten    --     19.3432                11.7834                 2.7386

                     52                     53                     54
                      A                      A                      A
 Frequencies --    822.2793               841.5240               854.1364
 Red. masses --      3.2682                 1.2605                 1.5011
 Frc consts  --      1.3019                 0.5259                 0.6452
 IR Inten    --     16.3334                 0.7987                13.4772

                     55                     56                     57
                      A                      A                      A
 Frequencies --    865.0375               897.4194               918.2099
 Red. masses --      2.6622                 1.9561                 2.0456
 Frc consts  --      1.1737                 0.9282                 1.0161
 IR Inten    --     38.2640                 3.5574                17.8596

                     58                     59                     60
                      A                      A                      A
 Frequencies --    945.4239               956.0908               968.3301
 Red. masses --      1.4198                 1.3379                 3.4998
 Frc consts  --      0.7477                 0.7206                 1.9335
 IR Inten    --      0.4454                 5.5118                29.7539

                     61                     62                     63
                      A                      A                      A
 Frequencies --    986.7216               990.0726               990.6271
 Red. masses --      1.9262                 1.4733                 1.5582
 Frc consts  --      1.1049                 0.8509                 0.9009
 IR Inten    --     15.5388                15.9289                 9.5320

                     64                     65                     66
                      A                      A                      A
 Frequencies --   1003.1278              1009.1207              1011.5782
 Red. masses --      3.3562                 1.5256                 2.0046
 Frc consts  --      1.9898                 0.9153                 1.2086
 IR Inten    --      1.4609                 1.3285                 4.1525

                     67                     68                     69
                      A                      A                      A
 Frequencies --   1036.4593              1047.0244              1072.4134
 Red. masses --      2.6704                 2.4206                 2.3033
 Frc consts  --      1.6902                 1.5635                 1.5607
 IR Inten    --     41.8766                 3.1799                 4.1058

                     70                     71                     72
                      A                      A                      A
 Frequencies --   1089.0508              1095.2278              1113.2215
 Red. masses --      1.8134                 1.9540                 1.5610
 Frc consts  --      1.2672                 1.3810                 1.1398
 IR Inten    --     10.4637                14.7687                 8.9978

                     73                     74                     75
                      A                      A                      A
 Frequencies --   1132.9299              1137.3383              1161.9639
 Red. masses --      2.1394                 2.2206                 1.6869
 Frc consts  --      1.6179                 1.6924                 1.3419
 IR Inten    --     14.1297                 9.3676                72.9074

                     76                     77                     78
                      A                      A                      A
 Frequencies --   1170.5678              1177.3946              1200.5781
 Red. masses --      1.5647                 1.0861                 1.3986
 Frc consts  --      1.2632                 0.8871                 1.1877
 IR Inten    --      2.8472                 1.6403                47.1174

                     79                     80                     81
                      A                      A                      A
 Frequencies --   1207.2571              1224.8986              1254.0859
 Red. masses --      1.3842                 2.1133                 1.9508
 Frc consts  --      1.1887                 1.8681                 1.8076
 IR Inten    --     52.2815               133.4927                23.6018

                     82                     83                     84
                      A                      A                      A
 Frequencies --   1263.8494              1285.8997              1323.5470
 Red. masses --      2.5957                 1.1176                 1.4356
 Frc consts  --      2.4428                 1.0888                 1.4817
 IR Inten    --    144.9966                 0.4649                18.4545

                     85                     86                     87
                      A                      A                      A
 Frequencies --   1327.5746              1333.4225              1337.1276
 Red. masses --      1.4618                 1.5848                 1.6580
 Frc consts  --      1.5179                 1.6602                 1.7465
 IR Inten    --    106.1046                75.4842                29.1483

                     88                     89                     90
                      A                      A                      A
 Frequencies --   1362.7158              1365.9662              1374.5809
 Red. masses --      1.7567                 2.4532                 1.3217
 Frc consts  --      1.9220                 2.6969                 1.4713
 IR Inten    --      5.5693                14.4410                 8.9661

                     91                     92                     93
                      A                      A                      A
 Frequencies --   1382.3444              1398.1988              1408.3023
 Red. masses --      1.3831                 1.2986                 1.4486
 Frc consts  --      1.5571                 1.4958                 1.6927
 IR Inten    --     28.0399                12.3395                17.6545

                     94                     95                     96
                      A                      A                      A
 Frequencies --   1415.8214              1453.9534              1460.2665
 Red. masses --      1.4079                 1.6324                 1.4257
 Frc consts  --      1.6628                 2.0332                 1.7912
 IR Inten    --     14.6379               150.3699                61.7684

                     97                     98                     99
                      A                      A                      A
 Frequencies --   1470.0218              1473.5454              1474.3254
 Red. masses --      1.0758                 1.0387                 1.0619
 Frc consts  --      1.3697                 1.3289                 1.3599
 IR Inten    --      2.0832                 5.8138                14.1894

                    100                    101                    102
                      A                      A                      A
 Frequencies --   1479.9325              1487.6092              1492.1813
 Red. masses --      1.1175                 1.0569                 1.2740
 Frc consts  --      1.4421                 1.3781                 1.6713
 IR Inten    --      9.7208                 4.8764                88.6738

                    103                    104                    105
                      A                      A                      A
 Frequencies --   1497.0551              1503.4068              1505.8259
 Red. masses --      1.6833                 1.4252                 1.0850
 Frc consts  --      2.2228                 1.8979                 1.4496
 IR Inten    --    250.7687               155.3282                11.2197

                    106                    107                    108
                      A                      A                      A
 Frequencies --   1517.9636              1618.3427              1639.7538
 Red. masses --      2.0004                 5.4726                 5.6448
 Frc consts  --      2.7157                 8.4447                 8.9424
 IR Inten    --     28.7371                 7.4032                37.8022

                    109                    110                    111
                      A                      A                      A
 Frequencies --   1685.7735              1767.7999              3018.2756
 Red. masses --      6.1016                11.4908                 1.0451
 Frc consts  --     10.2163                21.1577                 5.6097
 IR Inten    --    130.3552               225.8563                 3.6158

                    112                    113                    114
                      A                      A                      A
 Frequencies --   3024.1716              3039.2627              3042.2857
 Red. masses --      1.0439                 1.0661                 1.0359
 Frc consts  --      5.6250                 5.8020                 5.6489
 IR Inten    --     10.5340                27.7033                17.6861

                    115                    116                    117
                      A                      A                      A
 Frequencies --   3061.5779              3066.9229              3078.1569
 Red. masses --      1.0589                 1.0663                 1.0958
 Frc consts  --      5.8477                 5.9091                 6.1175
 IR Inten    --     14.0834                29.6010                 6.3091

                    118                    119                    120
                      A                      A                      A
 Frequencies --   3079.7647              3094.4357              3102.7270
 Red. masses --      1.0852                 1.0956                 1.0858
 Frc consts  --      6.0644                 6.1812                 6.1589
 IR Inten    --      0.3612                 4.0630                 0.5852

                    121                    122                    123
                      A                      A                      A
 Frequencies --   3109.7739              3118.4782              3125.0926
 Red. masses --      1.1062                 1.1022                 1.0980
 Frc consts  --      6.3029                 6.3150                 6.3179
 IR Inten    --      8.8845                16.3678                14.1541

                    124                    125                    126
                      A                      A                      A
 Frequencies --   3131.6507              3140.0731              3152.3604
 Red. masses --      1.1020                 1.1047                 1.0886
 Frc consts  --      6.3674                 6.4175                 6.3734
 IR Inten    --      9.5166                14.1603                10.9095

                    127                    128                    129
                      A                      A                      A
 Frequencies --   3155.2812              3174.7677              3188.1943
 Red. masses --      1.1003                 1.0862                 1.0913
 Frc consts  --      6.4543                 6.4506                 6.5355
 IR Inten    --     12.8124                 0.5395                 6.5677

                    130                    131                    132
                      A                      A                      A
 Frequencies --   3197.2021              3227.5838              3244.5441
 Red. masses --      1.0969                 1.0926                 1.0915
 Frc consts  --      6.6064                 6.7058                 6.7700
 IR Inten    --     12.2120                 1.6348                 1.8423

 - Thermochemistry -
 -------------------
 Temperature   298.150 Kelvin.  Pressure   1.00000 Atm.
 Atom     1 has atomic number  6 and mass  12.00000

 Molecular mass:   434.99839 amu.
 Principal axes and moments of inertia in atomic units:
                           1         2         3
     Eigenvalues --  9329.17130********************
           X            0.99746   0.07011   0.01282
           Y           -0.06972   0.99715  -0.02869
           Z           -0.01479   0.02773   0.99951
 This molecule is an asymmetric top.
 Rotational symmetry number  1.
 Warning -- assumption of classical behavior for rotation
           may cause significant error
 Rotational temperatures (Kelvin)      0.00928     0.00784     0.00667
 Rotational constants (GHZ):           0.19345     0.16326     0.13889
    1 imaginary frequencies ignored.
 Zero-point vibrational energy     944257.7 (Joules/Mol)
                                  225.68300 (Kcal/Mol)
 Warning -- explicit consideration of  42 degrees of freedom as
           vibrations may cause significant error
 Vibrational temperatures:     22.30    31.55    41.13    69.97    72.86
          (Kelvin)             81.39    91.99   114.98   125.56   131.38
                              142.04   150.10   166.52   172.94   178.67
                              205.99   212.89   237.30   250.45   274.03
                              291.70   294.87   324.60   372.97   384.34
                              417.53   457.62   479.55   505.30   510.00
                              543.06   567.77   572.11   576.34   590.96
                              609.25   652.27   687.88   729.82   746.81
                              792.77   842.47   898.45   928.57   992.59
                             1008.75  1084.05  1104.98  1133.60  1156.55
                             1183.08  1210.77  1228.91  1244.60  1291.19
                             1321.10  1360.25  1375.60  1393.21  1419.67
                             1424.49  1425.29  1443.28  1451.90  1455.44
                             1491.23  1506.43  1542.96  1566.90  1575.79
                             1601.68  1630.03  1636.38  1671.81  1684.19
                             1694.01  1727.36  1736.97  1762.36  1804.35
                             1818.40  1850.12  1904.29  1910.08  1918.50
                             1923.83  1960.64  1965.32  1977.72  1988.89
                             2011.70  2026.23  2037.05  2091.91  2101.00
                             2115.03  2120.10  2121.23  2129.29  2140.34
                             2146.92  2153.93  2163.07  2166.55  2184.01
                             2328.43  2359.24  2425.45  2543.47  4342.63
                             4351.11  4372.82  4377.17  4404.93  4412.62
                             4428.78  4431.09  4452.20  4464.13  4474.27
                             4486.79  4496.31  4505.75  4517.86  4535.54
                             4539.75  4567.78  4587.10  4600.06  4643.77
                             4668.18

 Zero-point correction=                           0.359649 (Hartree/Particle)
 Thermal correction to Energy=                    0.387134
 Thermal correction to Enthalpy=                  0.388078
 Thermal correction to Gibbs Free Energy=         0.296855
 Sum of electronic and zero-point Energies=          -3531.072511
 Sum of electronic and thermal Energies=             -3531.045026
 Sum of electronic and thermal Enthalpies=           -3531.044082
 Sum of electronic and thermal Free Energies=        -3531.135304

                     E (Thermal)             CV                S
                      KCal/Mol        Cal/Mol-Kelvin    Cal/Mol-Kelvin
 Total                  242.930             97.652            191.994
 Electronic               0.000              0.000              3.561
 Translational            0.889              2.981             44.100
 Rotational               0.889              2.981             35.548
 Vibrational            241.153             91.690            108.785
 Vibration     1          0.593              1.986              7.141
 Vibration     2          0.593              1.985              6.452
 Vibration     3          0.593              1.984              5.925
 Vibration     4          0.595              1.978              4.872
 Vibration     5          0.595              1.977              4.792
 Vibration     6          0.596              1.975              4.573
 Vibration     7          0.597              1.972              4.332
 Vibration     8          0.600              1.963              3.893
 Vibration     9          0.601              1.958              3.720
 Vibration    10          0.602              1.955              3.632
 Vibration    11          0.604              1.950              3.479
 Vibration    12          0.605              1.946              3.372
 Vibration    13          0.608              1.936              3.170
 Vibration    14          0.609              1.932              3.097
 Vibration    15          0.610              1.929              3.034
 Vibration    16          0.616              1.910              2.761
 Vibration    17          0.617              1.905              2.698
 Vibration    18          0.623              1.886              2.492
 Vibration    19          0.627              1.874              2.391
 Vibration    20          0.634              1.853              2.223
 Vibration    21          0.639              1.836              2.108
 Vibration    22          0.640              1.833              2.088
 Vibration    23          0.650              1.802              1.914
 Vibration    24          0.668              1.747              1.667
 Vibration    25          0.672              1.733              1.615
 Vibration    26          0.686              1.692              1.473
 Vibration    27          0.704              1.639              1.320
 Vibration    28          0.715              1.609              1.244
 Vibration    29          0.728              1.573              1.161
 Vibration    30          0.730              1.566              1.146
 Vibration    31          0.748              1.518              1.049
 Vibration    32          0.762              1.482              0.983
 Vibration    33          0.764              1.475              0.971
 Vibration    34          0.766              1.469              0.961
 Vibration    35          0.775              1.447              0.924
 Vibration    36          0.786              1.419              0.880
 Vibration    37          0.812              1.353              0.786
 Vibration    38          0.835              1.299              0.715
 Vibration    39          0.862              1.234              0.640
 Vibration    40          0.874              1.208              0.612
 Vibration    41          0.906              1.137              0.542
 Vibration    42          0.943              1.063              0.475

                           ! Non-Optimized Parameters !
 Normal termination of Gaussian 16 at Sun Jun 20 23:54:26 2021.

 ----------------------------------------------------------------------
 #p ub3lyp jul-cc-pvdz pop=cm5 scrf=(pcm,solvent=dichloroethane) guess=
 read geom=allcheck
 ----------------------------------------------------------------------

 Structure from the checkpoint file:  "checkpoint.chk"
 -----
 title
 -----
 Charge =  0 Multiplicity = 6

 SCF Done:  E(UB3LYP) =  -3531.44990145     A.U. after   18 cycles
 Normal termination of Gaussian 16 at Mon Jun 21 00:15:37 2021.
 Gaussian 16:  ES64L-G16RevA.03 25-Dec-2016

 ----------------------------------------------------------------------
 #p ub3lyp jul-cc-pvdz pop=cm5 scrf=(pcm,solvent=water) guess=read geom
 =allcheck
 ----------------------------------------------------------------------

 Structure from the checkpoint file:  "checkpoint.chk"
 -----
 title
 -----
 Charge =  0 Multiplicity = 6

                         Standard orientation:
 ---------------------------------------------------------------------
 Center     Atomic      Atomic             Coordinates (Angstroms)
 Number     Number       Type             X           Y           Z
 ---------------------------------------------------------------------
      1          6           0       -3.204237    0.283398   -0.565406
      2          6           0       -1.918596   -0.271554   -0.734323
      3          6           0       -1.576391   -0.819536   -1.988991
      4          6           0       -2.496002   -0.827090   -3.035105
      5          6           0       -3.772934   -0.286583   -2.849761
      6          6           0       -4.120553    0.273223   -1.614828
      7          6           0       -0.885235   -0.256544    0.330967
      8          6           0       -0.958732    0.689741    1.550452
      9          6           0       -1.991748    0.316082    2.625769
     10          6           0       -1.833919   -1.169398    2.982459
     11          6           0       -1.806216   -1.983701    1.719752
     12          6           0       -0.764919   -2.708651    1.242932
     13          6           0        0.560290   -2.837844    1.935633
     14          8           0        0.247175   -0.756777    0.053037
     15         26           0        2.103290   -0.326721   -0.427349
     16         17           0        3.073184    0.477208    1.384207
     17          6           0       -0.915069   -3.546486    0.008775
     18         17           0        1.982850    1.090292   -2.113145
     19         17           0        2.948227   -2.262873   -1.076147
     20          1           0       -0.575519   -1.215306   -2.142752
     21          1           0       -2.211419   -1.245679   -4.000879
     22          1           0       -4.492878   -0.290092   -3.669783
     23          1           0       -5.108462    0.711721   -1.470534
     24          1           0       -3.490376    0.745721    0.373968
     25          1           0        0.047223    0.630055    1.985032
     26          6           0       -1.143542    2.145427    1.084494
     27          1           0       -1.830448    0.956372    3.504021
     28          1           0       -3.008440    0.527454    2.276581
     29          1           0       -0.919938   -1.317338    3.571013
     30          1           0       -2.674812   -1.485296    3.618562
     31          1           0       -2.754308   -2.051665    1.182132
     32          1           0       -1.914233   -3.467759   -0.435271
     33          1           0       -0.156278   -3.272111   -0.739090
     34          1           0       -0.728055   -4.603206    0.259530
     35          1           0        0.558179   -3.776516    2.515388
     36          1           0        1.378619   -2.918152    1.209804
     37          1           0        0.784418   -2.019815    2.626618
     38          8           0        0.010138    2.643113    0.632699
     39          8           0       -2.189129    2.757287    1.145290
     40          6           0       -0.007410    4.023818    0.155758
     41          6           0        1.427780    4.453233   -0.063727
     42          1           0       -0.597804    4.046714   -0.770482
     43          1           0       -0.522545    4.635543    0.907299
     44          1           0        1.438776    5.487915   -0.436102
     45          1           0        1.996597    4.415475    0.875241
     46          1           0        1.922858    3.807858   -0.800066
 ---------------------------------------------------------------------

 SCF Done:  E(UB3LYP) =  -3531.45333848     A.U. after   16 cycles

 The electronic state is 6-A.
 Alpha  occ. eigenvalues -- -256.21235-101.52547-101.52541-101.52538 -30.20618
 Alpha  occ. eigenvalues --  -26.06028 -26.05806 -26.05720 -19.20924 -19.18681
 Alpha  occ. eigenvalues --  -19.15941 -10.33889 -10.33429 -10.25075 -10.23181
 Alpha  occ. eigenvalues --  -10.22615 -10.22495 -10.21652 -10.21639 -10.21555
 Alpha  occ. eigenvalues --  -10.21014 -10.20972 -10.20471 -10.19700 -10.19535
 Alpha  occ. eigenvalues --  -10.18865 -10.18804 -10.18608  -9.44267  -9.44262
 Alpha  occ. eigenvalues --   -9.44259  -7.20137  -7.20130  -7.20126  -7.19821
 Alpha  occ. eigenvalues --   -7.19811  -7.19810  -7.19805  -7.19802  -7.19801
 Alpha  occ. eigenvalues --   -3.68285  -2.45959  -2.45546  -2.45373  -1.12837
 Alpha  occ. eigenvalues --   -1.09285  -1.04338  -0.88382  -0.85457  -0.82833
 Alpha  occ. eigenvalues --   -0.80580  -0.79817  -0.79810  -0.78770  -0.78686
 Alpha  occ. eigenvalues --   -0.77034  -0.75023  -0.70661  -0.69992  -0.67095
 Alpha  occ. eigenvalues --   -0.64734  -0.62748  -0.61753  -0.59872  -0.57722
 Alpha  occ. eigenvalues --   -0.56099  -0.53759  -0.53236  -0.51889  -0.50610
 Alpha  occ. eigenvalues --   -0.50069  -0.49248  -0.49058  -0.48486  -0.48367
 Alpha  occ. eigenvalues --   -0.48049  -0.47424  -0.47111  -0.46998  -0.45750
 Alpha  occ. eigenvalues --   -0.45640  -0.45078  -0.44025  -0.43098  -0.42636
 Alpha  occ. eigenvalues --   -0.42342  -0.40994  -0.40525  -0.40055  -0.39683
 Alpha  occ. eigenvalues --   -0.38918  -0.38338  -0.37983  -0.37753  -0.37640
 Alpha  occ. eigenvalues --   -0.37316  -0.37124  -0.36480  -0.36144  -0.35223
 Alpha  occ. eigenvalues --   -0.34847  -0.34236  -0.33862  -0.32433  -0.32226
 Alpha  occ. eigenvalues --   -0.31389  -0.31361  -0.31033  -0.30969  -0.30251
 Alpha  occ. eigenvalues --   -0.29941  -0.29634  -0.28546  -0.27705  -0.25135
 Alpha virt. eigenvalues --   -0.11040  -0.03351  -0.02300  -0.01707  -0.01093
 Alpha virt. eigenvalues --   -0.00149   0.00021   0.00073   0.01061   0.01524
 Alpha virt. eigenvalues --    0.01688   0.01988   0.02446   0.02768   0.03171

  Beta  occ. eigenvalues -- -256.21050-101.52356-101.52353-101.52352 -30.11678
  Beta  occ. eigenvalues --  -25.98457 -25.98398 -25.98345 -19.20923 -19.18275
  Beta  occ. eigenvalues --  -19.15939 -10.33888 -10.33412 -10.25075 -10.23170
  Beta  occ. eigenvalues --  -10.22598 -10.22467 -10.21653 -10.21639 -10.21556
  Beta  occ. eigenvalues --  -10.21012 -10.20972 -10.20468 -10.19701 -10.19497
  Beta  occ. eigenvalues --  -10.18866 -10.18805 -10.18607  -9.44080  -9.44079
  Beta  occ. eigenvalues --   -9.44075  -7.19826  -7.19823  -7.19821  -7.19560
  Beta  occ. eigenvalues --   -7.19560  -7.19557  -7.19553  -7.19546  -7.19546
  Beta  occ. eigenvalues --   -3.47435  -2.23709  -2.23653  -2.23594  -1.12832
  Beta  occ. eigenvalues --   -1.08502  -1.04335  -0.88347  -0.85389  -0.82772
  Beta  occ. eigenvalues --   -0.79365  -0.78742  -0.78678  -0.78504  -0.78464
  Beta  occ. eigenvalues --   -0.77030  -0.74990  -0.70638  -0.69885  -0.66967
  Beta  occ. eigenvalues --   -0.64680  -0.62720  -0.61657  -0.59440  -0.57499
  Beta  occ. eigenvalues --   -0.55568  -0.53563  -0.52706  -0.51809  -0.50429
  Beta  occ. eigenvalues --   -0.49587  -0.48993  -0.47947  -0.47389  -0.46947
  Beta  occ. eigenvalues --   -0.45698  -0.45183  -0.44031  -0.43120  -0.42631
  Beta  occ. eigenvalues --   -0.42295  -0.41020  -0.40492  -0.40062  -0.39674
  Beta  occ. eigenvalues --   -0.38775  -0.38446  -0.38176  -0.37939  -0.37717
  Beta  occ. eigenvalues --   -0.37267  -0.37129  -0.36502  -0.36248  -0.36189
  Beta  occ. eigenvalues --   -0.36104  -0.35208  -0.34010  -0.33540  -0.33280
  Beta  occ. eigenvalues --   -0.32753  -0.32642  -0.32225  -0.31393  -0.30602
  Beta  occ. eigenvalues --   -0.29817  -0.29610  -0.28715  -0.27705  -0.25004
  Beta virt. eigenvalues --   -0.15284  -0.14777  -0.13923  -0.13538  -0.13454
  Beta virt. eigenvalues --   -0.10163  -0.03336  -0.02259  -0.01612  -0.01010
  Beta virt. eigenvalues --   -0.00110   0.00056   0.00111   0.01205   0.01544

 Mulliken charges and spin densities:
               1          2
     1  C    0.241192   0.000119
     2  C    3.030975  -0.003330
     3  C   -0.638006  -0.006939
     4  C    0.081130   0.002862
     5  C    0.297513   0.001438
     6  C   -0.115600   0.001743
     7  C   -2.392996  -0.001579
     8  C    0.424438   0.012392
     9  C    0.509423   0.003835
    10  C    0.637738  -0.002076
    11  C    0.251396   0.023720
    12  C   -0.047945   0.017160
    13  C    0.184533  -0.000936
    14  O   -0.303626   0.117378
    15  Fe   0.687182   4.065821
    16  Cl  -0.511257   0.249445
    17  C    0.273482  -0.000507
    18  Cl  -0.474107   0.256893
    19  Cl  -0.485453   0.254852
    20  H   -0.257038  -0.000236
    21  H   -0.157761   0.000012
    22  H   -0.150099  -0.000010
    23  H   -0.153517   0.000139
    24  H   -0.227162  -0.000104
    25  H   -0.181440  -0.000855
    26  C    0.760676   0.001807
    27  H   -0.128735   0.000258
    28  H   -0.011349  -0.000019
    29  H   -0.086365   0.000029
    30  H   -0.113214   0.001269
    31  H   -0.269076  -0.001032
    32  H   -0.014781   0.000032
    33  H    0.065704   0.000480
    34  H   -0.024507   0.001200
    35  H   -0.007976   0.001312
    36  H    0.051153   0.001625
    37  H    0.044958  -0.000133
    38  O   -0.657027   0.002052
    39  O   -0.578078   0.000932
    40  C    0.425294   0.000739
    41  C    0.041564  -0.001493
    42  H   -0.033089   0.000021
    43  H   -0.036478   0.000018
    44  H   -0.007515   0.000054
    45  H    0.027068   0.000066
    46  H    0.028781  -0.000452
 Sum of Mulliken charges =  -0.00000   5.00000

 Dipole moment (field-independent basis, Debye):
    X=            -10.3974    Y=             -1.4625    Z=              2.3182  Tot=             10.7526
 Quadrupole moment (field-independent basis, Debye-Ang):
   XX=           -188.3790   YY=           -167.5555   ZZ=           -167.6336
   XY=             12.0259   XZ=              9.6368   YZ=             -4.2291

 Normal termination of Gaussian 16 at Mon Jun 21 00:34:15 2021.
