 Gaussian 16, Revision A.03,

 -----------------------------------------------------------
 #p opt=modredundant freq=noraman ub3lyp jul-cc-pvdz pop=cm5
 -----------------------------------------------------------

 -----
 title
 -----
 Symbolic Z-matrix:
 Charge =  0 Multiplicity = 6

 SCF Done:  E(UB3LYP) =  -3531.40535925     A.U. after   25 cycles
 SCF Done:  E(UB3LYP) =  -3531.40603892     A.U. after   15 cycles
 SCF Done:  E(UB3LYP) =  -3531.40389985     A.U. after   16 cycles
 SCF Done:  E(UB3LYP) =  -3531.40565308     A.U. after   16 cycles
 SCF Done:  E(UB3LYP) =  -3531.40625544     A.U. after   12 cycles
 SCF Done:  E(UB3LYP) =  -3531.40648270     A.U. after   14 cycles
 SCF Done:  E(UB3LYP) =  -3531.40694270     A.U. after   16 cycles
 SCF Done:  E(UB3LYP) =  -3531.40723085     A.U. after   16 cycles
 SCF Done:  E(UB3LYP) =  -3531.40813342     A.U. after   15 cycles
 SCF Done:  E(UB3LYP) =  -3531.40983673     A.U. after   16 cycles
 SCF Done:  E(UB3LYP) =  -3531.41154741     A.U. after   13 cycles
 SCF Done:  E(UB3LYP) =  -3531.41154818     A.U. after   13 cycles
 SCF Done:  E(UB3LYP) =  -3531.41154859     A.U. after   11 cycles
 SCF Done:  E(UB3LYP) =  -3531.41154885     A.U. after   11 cycles
 SCF Done:  E(UB3LYP) =  -3531.41154896     A.U. after   10 cycles
 SCF Done:  E(UB3LYP) =  -3531.41154903     A.U. after   10 cycles
 SCF Done:  E(UB3LYP) =  -3531.41154907     A.U. after    9 cycles
 Optimization completed.
    -- Stationary point found.
 Normal termination of Gaussian 16 at Sun Jun 20 08:55:38 2021.

 ----------------------------------------------------------------------
 #P Geom=AllCheck Guess=TCheck SCRF=Check GenChk UB3LYP/Jul-CC-pVDZ Fre
 q
 ----------------------------------------------------------------------

 Structure from the checkpoint file:  "checkpoint.chk"
 -----
 title
 -----
 Charge =  0 Multiplicity = 6

 SCF Done:  E(UB3LYP) =  -3531.41154907     A.U. after    2 cycles

  Exact polarizability: 331.103   7.072 290.266  12.847  12.098 282.961
 Approx polarizability: 497.002   7.476 442.190  10.338  27.550 466.195

 ******    1 imaginary frequencies (negative Signs) ******

                      1                      2                      3
                      A                      A                      A
 Frequencies --   -264.8804                14.8866                24.4989
 Red. masses --      6.3172                 5.1411                 5.2938
 Frc consts  --      0.2611                 0.0007                 0.0019
 IR Inten    --     94.1123                 1.1317                 1.7661

                      4                      5                      6
                      A                      A                      A
 Frequencies --     29.0758                34.5875                36.9608
 Red. masses --      6.7647                 6.5060                 4.3815
 Frc consts  --      0.0034                 0.0046                 0.0035
 IR Inten    --      1.4807                 0.5422                 1.6269

                      7                      8                      9
                      A                      A                      A
 Frequencies --     50.7123                63.2075                70.2003
 Red. masses --      4.8087                 2.8239                 4.0094
 Frc consts  --      0.0073                 0.0066                 0.0116
 IR Inten    --      0.1436                 0.1437                 2.4088

                     10                     11                     12
                      A                      A                      A
 Frequencies --     81.6173                87.8851                95.3305
 Red. masses --      7.1662                10.3535                 5.5837
 Frc consts  --      0.0281                 0.0471                 0.0299
 IR Inten    --      1.3041                 0.9268                 1.0915

                     13                     14                     15
                      A                      A                      A
 Frequencies --     96.9266               111.1859               117.1858
 Red. masses --      7.7044                 3.6106                 3.8752
 Frc consts  --      0.0426                 0.0263                 0.0314
 IR Inten    --      7.0004                 2.0380                 0.9652

                     16                     17                     18
                      A                      A                      A
 Frequencies --    124.7046               132.9914               149.3798
 Red. masses --      5.5019                 5.2728                 1.4601
 Frc consts  --      0.0504                 0.0549                 0.0192
 IR Inten    --      3.5763                 0.4302                 1.3380

                     19                     20                     21
                      A                      A                      A
 Frequencies --    155.6872               181.0881               185.3138
 Red. masses --      3.9552                 2.9274                 3.0937
 Frc consts  --      0.0565                 0.0566                 0.0626
 IR Inten    --      2.0497                18.0311                 0.8646

                     22                     23                     24
                      A                      A                      A
 Frequencies --    208.2555               215.3625               242.9735
 Red. masses --      1.3667                 2.4349                 3.7315
 Frc consts  --      0.0349                 0.0665                 0.1298
 IR Inten    --      3.1415                15.6442                 2.4043

                     25                     26                     27
                      A                      A                      A
 Frequencies --    252.0547               266.3146               287.3607
 Red. masses --      1.7913                 3.9133                 3.3422
 Frc consts  --      0.0670                 0.1635                 0.1626
 IR Inten    --      1.9448                 7.8238                 3.6487

                     28                     29                     30
                      A                      A                      A
 Frequencies --    301.4899               314.8507               330.5621
 Red. masses --      4.3542                 3.2591                26.1069
 Frc consts  --      0.2332                 0.1904                 1.6808
 IR Inten    --      1.7650                29.8053                51.8945

                     31                     32                     33
                      A                      A                      A
 Frequencies --    354.3297               358.7190               373.5709
 Red. masses --      5.5442                30.7120                 3.7854
 Frc consts  --      0.4101                 2.3284                 0.3113
 IR Inten    --      7.0814                74.9959                12.6007

                     34                     35                     36
                      A                      A                      A
 Frequencies --    393.6743               411.9875               413.1344
 Red. masses --     23.0622                 3.1461                 3.0971
 Frc consts  --      2.1058                 0.3146                 0.3115
 IR Inten    --     77.5758                10.2340                 4.1600

                     37                     38                     39
                      A                      A                      A
 Frequencies --    432.7053               468.6148               497.5564
 Red. masses --      4.2853                 3.7116                 2.7690
 Frc consts  --      0.4727                 0.4802                 0.4039
 IR Inten    --     10.4878                 8.6772                 3.0653

                     40                     41                     42
                      A                      A                      A
 Frequencies --    531.2167               538.9778               568.3081
 Red. masses --      2.5185                 3.1469                 2.9737
 Frc consts  --      0.4187                 0.5386                 0.5659
 IR Inten    --     23.5452                 1.4312                36.8460

                     43                     44                     45
                      A                      A                      A
 Frequencies --    624.6129               630.0764               672.7422
 Red. masses --      4.8422                 4.9474                 4.9778
 Frc consts  --      1.1130                 1.1572                 1.3274
 IR Inten    --     10.8969                 7.4651               137.4253

                     46                     47                     48
                      A                      A                      A
 Frequencies --    704.7308               718.2230               762.5450
 Red. masses --      1.8569                 3.2373                 3.5391
 Frc consts  --      0.5434                 0.9839                 1.2125
 IR Inten    --     31.0859                50.1460                 4.7517

                     49                     50                     51
                      A                      A                      A
 Frequencies --    769.4748               804.6875               826.0327
 Red. masses --      2.8904                 1.1281                 2.3391
 Frc consts  --      1.0083                 0.4304                 0.9404
 IR Inten    --     18.3384                 1.2540                 7.8183

                     52                     53                     54
                      A                      A                      A
 Frequencies --    827.4466               835.2323               847.6319
 Red. masses --      1.3462                 4.8088                 1.2904
 Frc consts  --      0.5430                 1.9765                 0.5463
 IR Inten    --      4.6477                39.5962                 4.1415

                     55                     56                     57
                      A                      A                      A
 Frequencies --    868.7681               886.1206               919.4015
 Red. masses --      2.5109                 2.0182                 2.5160
 Frc consts  --      1.1166                 0.9337                 1.2530
 IR Inten    --     17.7430                 4.9383                 5.1068

                     58                     59                     60
                      A                      A                      A
 Frequencies --    929.9961               953.5995               983.6298
 Red. masses --      1.5405                 2.3606                 1.5940
 Frc consts  --      0.7850                 1.2648                 0.9086
 IR Inten    --      8.9526                16.7222                16.3414

                     61                     62                     63
                      A                      A                      A
 Frequencies --    984.4316               997.1826              1000.5741
 Red. masses --      1.6440                 1.8793                 1.4187
 Frc consts  --      0.9387                 1.1010                 0.8368
 IR Inten    --     24.7736                 7.5540                 1.3691

                     64                     65                     66
                      A                      A                      A
 Frequencies --   1002.8496              1007.6849              1014.6608
 Red. masses --      2.2740                 3.2490                 1.7274
 Frc consts  --      1.3474                 1.9438                 1.0478
 IR Inten    --      3.4167                 7.2208                20.6874

                     67                     68                     69
                      A                      A                      A
 Frequencies --   1037.6437              1039.8737              1047.3441
 Red. masses --      1.6787                 3.0249                 2.3021
 Frc consts  --      1.0649                 1.9272                 1.4878
 IR Inten    --     28.9105                19.0608                 7.4119

                     70                     71                     72
                      A                      A                      A
 Frequencies --   1054.9968              1101.4148              1112.8907
 Red. masses --      2.2774                 1.6158                 2.0868
 Frc consts  --      1.4935                 1.1549                 1.5228
 IR Inten    --     15.8083                24.2269                13.6373

                     73                     74                     75
                      A                      A                      A
 Frequencies --   1123.6604              1133.7015              1151.0613
 Red. masses --      2.6676                 2.1937                 1.8652
 Frc consts  --      1.9845                 1.6612                 1.4561
 IR Inten    --     55.7344                13.7760               129.2121

                     76                     77                     78
                      A                      A                      A
 Frequencies --   1157.8677              1167.9320              1172.8192
 Red. masses --      2.0667                 1.5678                 1.0863
 Frc consts  --      1.6325                 1.2600                 0.8804
 IR Inten    --     17.4532                 4.0834                 0.4965

                     79                     80                     81
                      A                      A                      A
 Frequencies --   1189.0070              1200.0422              1231.2422
 Red. masses --      2.0259                 1.2225                 1.6493
 Frc consts  --      1.6874                 1.0373                 1.4731
 IR Inten    --     91.0415                16.9225                77.7810

                     82                     83                     84
                      A                      A                      A
 Frequencies --   1240.1189              1249.4755              1281.9923
 Red. masses --      2.7230                 1.7328                 1.1022
 Frc consts  --      2.4673                 1.5938                 1.0673
 IR Inten    --    264.4286                58.4687                 0.7986

                     85                     86                     87
                      A                      A                      A
 Frequencies --   1310.0155              1315.3862              1316.6084
 Red. masses --      1.4158                 1.4209                 1.3886
 Frc consts  --      1.4316                 1.4485                 1.4183
 IR Inten    --     50.8587                47.9758               116.7757

                     88                     89                     90
                      A                      A                      A
 Frequencies --   1323.5970              1331.3290              1345.2980
 Red. masses --      1.3352                 1.5752                 1.2257
 Frc consts  --      1.3782                 1.6450                 1.3070
 IR Inten    --     12.9362                18.4790                15.8303

                     91                     92                     93
                      A                      A                      A
 Frequencies --   1355.3833              1364.6710              1375.6328
 Red. masses --      3.5814                 1.4458                 1.6739
 Frc consts  --      3.8764                 1.5864                 1.8663
 IR Inten    --      1.2852                40.1492                59.0568

                     94                     95                     96
                      A                      A                      A
 Frequencies --   1390.1235              1417.4495              1425.2013
 Red. masses --      1.5748                 1.4558                 1.0844
 Frc consts  --      1.7930                 1.7233                 1.2977
 IR Inten    --     51.4202                14.0033                14.3695

                     97                     98                     99
                      A                      A                      A
 Frequencies --   1432.0872              1445.3349              1468.6812
 Red. masses --      1.5973                 1.0791                 2.2492
 Frc consts  --      1.9301                 1.3282                 2.8585
 IR Inten    --     52.6314                 9.8935                15.9861

                    100                    101                    102
                      A                      A                      A
 Frequencies --   1473.5515              1483.2088              1485.1234
 Red. masses --      1.0392                 1.0516                 1.0951
 Frc consts  --      1.3294                 1.3631                 1.4231
 IR Inten    --      5.9726                 7.5534                 2.4068

                    103                    104                    105
                      A                      A                      A
 Frequencies --   1488.7052              1496.3078              1505.5053
 Red. masses --      1.2416                 1.2305                 1.2217
 Frc consts  --      1.6213                 1.6232                 1.6315
 IR Inten    --     13.3120                20.7909                19.1843

                    106                    107                    108
                      A                      A                      A
 Frequencies --   1506.5456              1514.8665              1621.2107
 Red. masses --      1.3061                 2.1001                 5.8062
 Frc consts  --      1.7466                 2.8395                 8.9913
 IR Inten    --      3.6426                 5.5143                 0.3927

                    109                    110                    111
                      A                      A                      A
 Frequencies --   1640.4360              1762.3025              2956.0360
 Red. masses --      5.7381                11.8133                 1.0549
 Frc consts  --      9.0978                21.6163                 5.4310
 IR Inten    --      1.4553               226.5114               122.1346

                    112                    113                    114
                      A                      A                      A
 Frequencies --   2981.7723              3032.7479              3042.0738
 Red. masses --      1.0498                 1.0803                 1.0360
 Frc consts  --      5.4995                 5.8543                 5.6487
 IR Inten    --     39.3651                 9.8405                13.9174

                    115                    116                    117
                      A                      A                      A
 Frequencies --   3048.0902              3054.2031              3056.7942
 Red. masses --      1.0858                 1.0616                 1.0580
 Frc consts  --      5.9436                 5.8346                 5.8247
 IR Inten    --      5.7560                22.9089                16.9098

                    118                    119                    120
                      A                      A                      A
 Frequencies --   3064.5345              3082.5841              3090.0090
 Red. masses --      1.0633                 1.0841                 1.0868
 Frc consts  --      5.8832                 6.0693                 6.1139
 IR Inten    --     16.2105                 1.7662                 5.8790

                    121                    122                    123
                      A                      A                      A
 Frequencies --   3101.9979              3107.2171              3118.3467
 Red. masses --      1.1080                 1.1009                 1.1006
 Frc consts  --      6.2814                 6.2622                 6.3058
 IR Inten    --      6.7844                 7.6929                24.4337

                    124                    125                    126
                      A                      A                      A
 Frequencies --   3120.2116              3134.6414              3166.3166
 Red. masses --      1.1034                 1.1048                 1.0987
 Frc consts  --      6.3290                 6.3957                 6.4900
 IR Inten    --     16.0316                23.6074                 7.4850

                    127                    128                    129
                      A                      A                      A
 Frequencies --   3168.7603              3172.8987              3177.7905
 Red. masses --      1.0849                 1.1000                 1.0887
 Frc consts  --      6.4185                 6.5248                 6.4775
 IR Inten    --      0.2232                 3.7996                 4.4873

                    130                    131                    132
                      A                      A                      A
 Frequencies --   3187.0793              3195.9377              3222.6278
 Red. masses --      1.0933                 1.0981                 1.0921
 Frc consts  --      6.5427                 6.6083                 6.6827
 IR Inten    --     14.9574                12.5008                 3.0811

 - Thermochemistry -
 -------------------
 Temperature   298.150 Kelvin.  Pressure   1.00000 Atm.
 Atom     1 has atomic number  6 and mass  12.00000

 Molecular mass:   434.99839 amu.
 Principal axes and moments of inertia in atomic units:
                           1         2         3
     Eigenvalues --  8510.14125********************
           X            0.99732   0.07076   0.01836
           Y           -0.07099   0.99741   0.01188
           Z           -0.01748  -0.01315   0.99976
 This molecule is an asymmetric top.
 Rotational symmetry number  1.
 Warning -- assumption of classical behavior for rotation
           may cause significant error
 Rotational temperatures (Kelvin)      0.01018     0.00745     0.00650
 Rotational constants (GHZ):           0.21207     0.15522     0.13536
    1 imaginary frequencies ignored.
 Zero-point vibrational energy     937561.8 (Joules/Mol)
                                  224.08265 (Kcal/Mol)
 Warning -- explicit consideration of  41 degrees of freedom as
           vibrations may cause significant error
 Vibrational temperatures:     21.42    35.25    41.83    49.76    53.18
          (Kelvin)             72.96    90.94   101.00   117.43   126.45
                              137.16   139.46   159.97   168.60   179.42
                              191.34   214.92   224.00   260.55   266.63
                              299.63   309.86   349.58   362.65   383.17
                              413.45   433.78   453.00   475.61   509.80
                              516.12   537.49   566.41   592.76   594.41
                              622.57   674.23   715.87   764.30   775.47
                              817.67   898.68   906.54   967.93  1013.95
                             1033.36  1097.13  1107.10  1157.77  1188.48
                             1190.51  1201.71  1219.55  1249.96  1274.93
                             1322.81  1338.06  1372.02  1415.22  1416.38
                             1434.72  1439.60  1442.88  1449.83  1459.87
                             1492.94  1496.15  1506.89  1517.91  1584.69
                             1601.20  1616.70  1631.14  1656.12  1665.91
                             1680.39  1687.43  1710.72  1726.59  1771.48
                             1784.25  1797.72  1844.50  1884.82  1892.55
                             1894.31  1904.36  1915.49  1935.58  1950.09
                             1963.46  1979.23  2000.08  2039.39  2050.55
                             2060.45  2079.51  2113.10  2120.11  2134.01
                             2136.76  2141.91  2152.85  2166.09  2167.58
                             2179.56  2332.56  2360.22  2535.56  4253.08
                             4290.11  4363.45  4376.87  4385.52  4394.32
                             4398.05  4409.18  4435.15  4445.83  4463.08
                             4470.59  4486.61  4489.29  4510.05  4555.62
                             4559.14  4565.09  4572.13  4585.50  4598.24
                             4636.64

 Zero-point correction=                           0.357098 (Hartree/Particle)
 Thermal correction to Energy=                    0.384712
 Thermal correction to Enthalpy=                  0.385656
 Thermal correction to Gibbs Free Energy=         0.293387
 Sum of electronic and zero-point Energies=          -3531.054451
 Sum of electronic and thermal Energies=             -3531.026838
 Sum of electronic and thermal Enthalpies=           -3531.025893
 Sum of electronic and thermal Free Energies=        -3531.118162

                     E (Thermal)             CV                S
                      KCal/Mol        Cal/Mol-Kelvin    Cal/Mol-Kelvin
 Total                  241.410             97.736            194.196
 Electronic               0.000              0.000              3.561
 Translational            0.889              2.981             44.100
 Rotational               0.889              2.981             35.532
 Vibrational            239.633             91.774            111.003
 Vibration     1          0.593              1.986              7.221
 Vibration     2          0.593              1.985              6.231
 Vibration     3          0.593              1.984              5.891
 Vibration     4          0.594              1.983              5.547
 Vibration     5          0.594              1.982              5.416
 Vibration     6          0.595              1.977              4.789
 Vibration     7          0.597              1.972              4.354
 Vibration     8          0.598              1.968              4.148
 Vibration     9          0.600              1.962              3.852
 Vibration    10          0.601              1.958              3.707
 Vibration    11          0.603              1.953              3.548
 Vibration    12          0.603              1.951              3.515
 Vibration    13          0.607              1.940              3.248
 Vibration    14          0.608              1.935              3.146
 Vibration    15          0.610              1.928              3.026
 Vibration    16          0.613              1.920              2.902
 Vibration    17          0.618              1.903              2.680
 Vibration    18          0.620              1.896              2.602
 Vibration    19          0.630              1.865              2.317
 Vibration    20          0.631              1.860              2.274
 Vibration    21          0.642              1.828              2.059
 Vibration    22          0.645              1.818              1.998
 Vibration    23          0.659              1.774              1.781
 Vibration    24          0.664              1.759              1.716
 Vibration    25          0.672              1.735              1.620
 Vibration    26          0.685              1.697              1.489
 Vibration    27          0.693              1.671              1.409
 Vibration    28          0.702              1.645              1.337
 Vibration    29          0.713              1.614              1.257
 Vibration    30          0.730              1.566              1.147
 Vibration    31          0.734              1.557              1.128
 Vibration    32          0.745              1.526              1.065
 Vibration    33          0.761              1.484              0.986
 Vibration    34          0.776              1.444              0.920
 Vibration    35          0.777              1.442              0.916
 Vibration    36          0.794              1.399              0.850
 Vibration    37          0.826              1.320              0.741
 Vibration    38          0.853              1.255              0.664
 Vibration    39          0.886              1.181              0.584
 Vibration    40          0.894              1.164              0.567
 Vibration    41          0.924              1.100              0.508

                           ! Non-Optimized Parameters !
 Normal termination of Gaussian 16 at Sun Jun 20 13:07:03 2021.

 ----------------------------------------------------------------------
 #p ub3lyp jul-cc-pvdz pop=cm5 scrf=(pcm,solvent=dichloroethane) guess=
 read geom=allcheck
 ----------------------------------------------------------------------

 Structure from the checkpoint file:  "checkpoint.chk"
 -----
 title
 -----
 Charge =  0 Multiplicity = 6

 SCF Done:  E(UB3LYP) =  -3531.43799537     A.U. after   18 cycles
 Normal termination of Gaussian 16 at Sun Jun 20 13:29:07 2021.
 Gaussian 16:  ES64L-G16RevA.03 25-Dec-2016

 ----------------------------------------------------------------------
 #p ub3lyp jul-cc-pvdz pop=cm5 scrf=(pcm,solvent=water) guess=read geom
 =allcheck
 ----------------------------------------------------------------------

 Structure from the checkpoint file:  "checkpoint.chk"
 -----
 title
 -----
 Charge =  0 Multiplicity = 6

                         Standard orientation:
 ---------------------------------------------------------------------
 Center     Atomic      Atomic             Coordinates (Angstroms)
 Number     Number       Type             X           Y           Z
 ---------------------------------------------------------------------
      1          6           0        2.838439   -1.671014    0.336888
      2          6           0        1.641484   -1.013109    0.671117
      3          6           0        1.512793   -0.464872    1.955694
      4          6           0        2.550546   -0.580552    2.886643
      5          6           0        3.731698   -1.244448    2.548230
      6          6           0        3.873527   -1.786384    1.265156
      7          6           0        0.499612   -0.854797   -0.334797
      8          6           0        0.903606   -0.130544   -1.692699
      9          6           0        1.045578   -1.192295   -2.786226
     10          6           0       -0.051059   -2.208919   -2.452961
     11          6           0        0.058199   -2.381596   -0.938152
     12          6           0       -1.107362   -2.716288   -0.147521
     13          6           0       -2.463181   -2.648595   -0.707745
     14          8           0       -0.599803   -0.302836    0.261913
     15         26           0       -2.033070    0.885429    0.335628
     16         17           0       -2.903276    0.866009   -1.744575
     17          6           0       -0.964637   -3.105591    1.263413
     18         17           0       -1.461195    2.899447    1.026229
     19         17           0       -3.420343   -0.148823    1.772981
     20          1           0        0.598831    0.063874    2.216217
     21          1           0        2.430735   -0.145654    3.880007
     22          1           0        4.540322   -1.336503    3.274941
     23          1           0        4.796427   -2.295006    0.983205
     24          1           0        2.984186   -2.084885   -0.661084
     25          1           0        0.040632    0.509460   -1.914511
     26          6           0        2.124838    0.769599   -1.569341
     27          1           0        0.927808   -0.758898   -3.787197
     28          1           0        2.044454   -1.647306   -2.748241
     29          1           0       -1.027579   -1.795385   -2.734135
     30          1           0        0.075057   -3.165126   -2.979488
     31          1           0        0.895791   -3.029528   -0.656235
     32          1           0        0.069088   -3.157139    1.613332
     33          1           0       -1.545271   -2.371688    1.855082
     34          1           0       -1.478415   -4.069763    1.418817
     35          1           0       -3.243657   -2.867880    0.025631
     36          1           0       -2.639014   -1.648393   -1.148674
     37          1           0       -2.524462   -3.344450   -1.562958
     38          8           0        1.837599    1.874852   -0.869186
     39          8           0        3.211158    0.526182   -2.055329
     40          6           0        2.926057    2.818611   -0.661502
     41          6           0        2.367156    4.000535    0.103409
     42          1           0        3.724344    2.302022   -0.111146
     43          1           0        3.322778    3.105219   -1.644780
     44          1           0        3.171668    4.728609    0.282613
     45          1           0        1.567641    4.494708   -0.464311
     46          1           0        1.954920    3.685799    1.070953
 ---------------------------------------------------------------------

 SCF Done:  E(UB3LYP) =  -3531.44287176     A.U. after   14 cycles

 The electronic state is 6-A.
 Alpha  occ. eigenvalues -- -256.19704-101.51836-101.51829-101.51523 -30.19112
 Alpha  occ. eigenvalues --  -26.04427 -26.04346 -26.04253 -19.20261 -19.15712
 Alpha  occ. eigenvalues --  -19.15213 -10.32841 -10.32052 -10.30321 -10.24789
 Alpha  occ. eigenvalues --  -10.23183 -10.22037 -10.21931 -10.21843 -10.21295
 Alpha  occ. eigenvalues --  -10.20437 -10.20388 -10.20280 -10.20226 -10.20120
 Alpha  occ. eigenvalues --  -10.20040 -10.19878 -10.18590  -9.43569  -9.43526
 Alpha  occ. eigenvalues --   -9.43235  -7.19423  -7.19394  -7.19127  -7.19106
 Alpha  occ. eigenvalues --   -7.19099  -7.19079  -7.19054  -7.18787  -7.18756
 Alpha  occ. eigenvalues --   -3.66847  -2.44373  -2.44178  -2.44051  -1.12107
 Alpha  occ. eigenvalues --   -1.04003  -1.03567  -0.89213  -0.87123  -0.84511
 Alpha  occ. eigenvalues --   -0.79724  -0.79091  -0.78933  -0.78785  -0.77675
 Alpha  occ. eigenvalues --   -0.75917  -0.75491  -0.74608  -0.71714  -0.66438
 Alpha  occ. eigenvalues --   -0.64257  -0.61934  -0.61389  -0.59536  -0.57111
 Alpha  occ. eigenvalues --   -0.56863  -0.54509  -0.53233  -0.51469  -0.50960
 Alpha  occ. eigenvalues --   -0.50323  -0.49001  -0.48871  -0.48411  -0.47511
 Alpha  occ. eigenvalues --   -0.47155  -0.46999  -0.46685  -0.46283  -0.45960
 Alpha  occ. eigenvalues --   -0.44920  -0.44532  -0.44025  -0.43302  -0.43055
 Alpha  occ. eigenvalues --   -0.42694  -0.42067  -0.41370  -0.40934  -0.40597
 Alpha  occ. eigenvalues --   -0.39960  -0.38864  -0.37742  -0.37450  -0.37047
 Alpha  occ. eigenvalues --   -0.36807  -0.36513  -0.36112  -0.35736  -0.35409
 Alpha  occ. eigenvalues --   -0.34846  -0.34093  -0.33839  -0.31796  -0.31421
 Alpha  occ. eigenvalues --   -0.30756  -0.30622  -0.30497  -0.30026  -0.29740
 Alpha  occ. eigenvalues --   -0.29465  -0.28555  -0.28334  -0.26746  -0.26162
 Alpha virt. eigenvalues --   -0.13850  -0.03101  -0.02756  -0.01536  -0.01203
 Alpha virt. eigenvalues --   -0.00186  -0.00078   0.00010   0.01438   0.01541
 Alpha virt. eigenvalues --    0.01820   0.02023   0.02314   0.03493   0.03707

  Beta  occ. eigenvalues -- -256.19519-101.51677-101.51661-101.51366 -30.10179
  Beta  occ. eigenvalues --  -25.96955 -25.96910 -25.96824 -19.20261 -19.15209
  Beta  occ. eigenvalues --  -19.14902 -10.32841 -10.32047 -10.30304 -10.24789
  Beta  occ. eigenvalues --  -10.23149 -10.22035 -10.21932 -10.21823 -10.21269
  Beta  occ. eigenvalues --  -10.20434 -10.20388 -10.20279 -10.20227 -10.20120
  Beta  occ. eigenvalues --  -10.20042 -10.19877 -10.18590  -9.43404  -9.43369
  Beta  occ. eigenvalues --   -9.43081  -7.19152  -7.19108  -7.18891  -7.18880
  Beta  occ. eigenvalues --   -7.18874  -7.18857  -7.18827  -7.18574  -7.18571
  Beta  occ. eigenvalues --   -3.46027  -2.22339  -2.22299  -2.22147  -1.12104
  Beta  occ. eigenvalues --   -1.03562  -1.02436  -0.89041  -0.87081  -0.84442
  Beta  occ. eigenvalues --   -0.78932  -0.78677  -0.77954  -0.77700  -0.77530
  Beta  occ. eigenvalues --   -0.75907  -0.75457  -0.74599  -0.71577  -0.66274
  Beta  occ. eigenvalues --   -0.64162  -0.61873  -0.61343  -0.59301  -0.57049
  Beta  occ. eigenvalues --   -0.56260  -0.54380  -0.52443  -0.51253  -0.50702
  Beta  occ. eigenvalues --   -0.50208  -0.48774  -0.48413  -0.47937  -0.46482
  Beta  occ. eigenvalues --   -0.45883  -0.44811  -0.44394  -0.43328  -0.43093
  Beta  occ. eigenvalues --   -0.42729  -0.42057  -0.41436  -0.40961  -0.40536
  Beta  occ. eigenvalues --   -0.39964  -0.38833  -0.37664  -0.37569  -0.37216
  Beta  occ. eigenvalues --   -0.36973  -0.36694  -0.36071  -0.35776  -0.35528
  Beta  occ. eigenvalues --   -0.35384  -0.35150  -0.34769  -0.32849  -0.32580
  Beta  occ. eigenvalues --   -0.32227  -0.31860  -0.31745  -0.31681  -0.29824
  Beta  occ. eigenvalues --   -0.29440  -0.28602  -0.28213  -0.26750  -0.26125
  Beta virt. eigenvalues --   -0.13917  -0.13558  -0.13282  -0.12498  -0.12186
  Beta virt. eigenvalues --   -0.11227  -0.03063  -0.02728  -0.01423  -0.01165
  Beta virt. eigenvalues --   -0.00143  -0.00045   0.00040   0.01451   0.01568

 Mulliken charges and spin densities:
               1          2
     1  C   -0.042298   0.001450
     2  C    2.681679   0.001501
     3  C   -0.534779  -0.009318
     4  C    0.000369   0.003952
     5  C    0.221155  -0.001240
     6  C   -0.090716   0.001879
     7  C   -2.042923   0.006065
     8  C    0.378815   0.013138
     9  C    0.680472   0.001080
    10  C    0.633939   0.000619
    11  C    0.614628   0.020169
    12  C   -0.408439   0.002623
    13  C    0.296600  -0.001627
    14  O   -0.518160   0.263468
    15  Fe   0.653437   4.045022
    16  Cl  -0.566882   0.206644
    17  C    0.337339  -0.000732
    18  Cl  -0.491294   0.233662
    19  Cl  -0.550274   0.210360
    20  H   -0.196008   0.001210
    21  H   -0.158587   0.000002
    22  H   -0.164147   0.000020
    23  H   -0.159559   0.000221
    24  H   -0.185019  -0.000095
    25  H   -0.234931   0.000361
    26  C    0.914781  -0.004638
    27  H   -0.158012   0.000422
    28  H   -0.062107  -0.000144
    29  H   -0.078296  -0.000245
    30  H   -0.148911   0.000551
    31  H   -0.183474  -0.000200
    32  H    0.051088   0.000044
    33  H    0.136101  -0.000242
    34  H    0.036388   0.000019
    35  H   -0.001165  -0.000116
    36  H    0.169607   0.002129
    37  H    0.078584  -0.000006
    38  O   -0.695530  -0.000007
    39  O   -0.670744   0.001607
    40  C    0.448744   0.001031
    41  C    0.055740  -0.000610
    42  H   -0.036402   0.000006
    43  H   -0.042528   0.000003
    44  H   -0.008943   0.000025
    45  H    0.021874   0.000006
    46  H    0.018789  -0.000068
 Sum of Mulliken charges =  -0.00000   5.00000

 Dipole moment (field-independent basis, Debye):
    X=              5.9571    Y=            -13.1220    Z=             -1.2935  Tot=             14.4688
 Quadrupole moment (field-independent basis, Debye-Ang):
   XX=           -196.9982   YY=           -149.2696   ZZ=           -176.8206
   XY=             21.9734   XZ=             14.8546   YZ=              1.8757

 Normal termination of Gaussian 16 at Sun Jun 20 13:46:26 2021.
