 Gaussian 16, Revision A.03,

 -----------------------------------------------------------
 #p opt=modredundant freq=noraman ub3lyp jul-cc-pvdz pop=cm5
 -----------------------------------------------------------

 -----
 title
 -----
 Symbolic Z-matrix:
 Charge =  0 Multiplicity = 6

 SCF Done:  E(UB3LYP) =  -3531.44001500     A.U. after   24 cycles
 SCF Done:  E(UB3LYP) =  -3531.43941126     A.U. after   22 cycles
 SCF Done:  E(UB3LYP) =  -3531.43847393     A.U. after   18 cycles
 SCF Done:  E(UB3LYP) =  -3531.43818968     A.U. after   17 cycles
 SCF Done:  E(UB3LYP) =  -3531.44023847     A.U. after   12 cycles
 SCF Done:  E(UB3LYP) =  -3531.43996172     A.U. after   17 cycles
 SCF Done:  E(UB3LYP) =  -3531.44052606     A.U. after   16 cycles
 SCF Done:  E(UB3LYP) =  -3531.44067972     A.U. after   15 cycles
 SCF Done:  E(UB3LYP) =  -3531.44075902     A.U. after   13 cycles
 SCF Done:  E(UB3LYP) =  -3531.44077998     A.U. after   13 cycles
 SCF Done:  E(UB3LYP) =  -3531.44080991     A.U. after   10 cycles
 SCF Done:  E(UB3LYP) =  -3531.44081005     A.U. after   10 cycles
 SCF Done:  E(UB3LYP) =  -3531.44081021     A.U. after   11 cycles
 SCF Done:  E(UB3LYP) =  -3531.44081036     A.U. after   11 cycles
 SCF Done:  E(UB3LYP) =  -3531.44081048     A.U. after   10 cycles
 SCF Done:  E(UB3LYP) =  -3531.44081056     A.U. after   10 cycles
 SCF Done:  E(UB3LYP) =  -3531.44081059     A.U. after    8 cycles
 Optimization completed.
    -- Stationary point found.
 Normal termination of Gaussian 16 at Sun Jun 20 16:27:01 2021.

 ----------------------------------------------------------------------
 #P Geom=AllCheck Guess=TCheck SCRF=Check GenChk UB3LYP/Jul-CC-pVDZ Fre
 q
 ----------------------------------------------------------------------

 Structure from the checkpoint file:  "checkpoint.chk"
 -----
 title
 -----
 Charge =  0 Multiplicity = 6

 SCF Done:  E(UB3LYP) =  -3531.44081059     A.U. after    2 cycles

  Exact polarizability: 316.288  14.585 310.831  14.050   6.061 297.534
 Approx polarizability: 484.088  46.827 469.957  11.582  -0.806 494.960

 ******    1 imaginary frequencies (negative Signs) ******

                      1                      2                      3
                      A                      A                      A
 Frequencies --    -15.9966                13.3079                23.6177
 Red. masses --      7.6756                 5.0922                 4.2263
 Frc consts  --      0.0012                 0.0005                 0.0014
 IR Inten    --      0.3270                 0.9142                 0.5973

                      4                      5                      6
                      A                      A                      A
 Frequencies --     30.0548                46.2326                52.3940
 Red. masses --      8.4163                 4.0704                 4.9910
 Frc consts  --      0.0045                 0.0051                 0.0081
 IR Inten    --      0.3458                 0.5701                 1.3105

                      7                      8                      9
                      A                      A                      A
 Frequencies --     59.1256                63.2859                78.5632
 Red. masses --      3.8374                 4.6555                 7.7822
 Frc consts  --      0.0079                 0.0110                 0.0283
 IR Inten    --      0.4373                 2.3424                 0.2494

                     10                     11                     12
                      A                      A                      A
 Frequencies --     86.4054                90.4001               100.6615
 Red. masses --      8.3947                 8.2153                 2.8565
 Frc consts  --      0.0369                 0.0396                 0.0171
 IR Inten    --      0.2999                 3.9763                 0.2383

                     13                     14                     15
                      A                      A                      A
 Frequencies --    101.3837               108.7796               118.2854
 Red. masses --      4.0821                 3.3334                 6.6532
 Frc consts  --      0.0247                 0.0232                 0.0548
 IR Inten    --      1.2995                 0.7385                 0.1931

                     16                     17                     18
                      A                      A                      A
 Frequencies --    122.1464               127.7933               138.2704
 Red. masses --      2.6966                 5.2524                 1.8920
 Frc consts  --      0.0237                 0.0505                 0.0213
 IR Inten    --      1.2048                 1.9805                 2.1154

                     19                     20                     21
                      A                      A                      A
 Frequencies --    145.8057               171.8545               181.0700
 Red. masses --      4.4665                 7.7794                 1.1507
 Frc consts  --      0.0559                 0.1354                 0.0222
 IR Inten    --      4.0589                20.1168                 8.3064

                     22                     23                     24
                      A                      A                      A
 Frequencies --    200.8119               206.8845               220.9146
 Red. masses --      4.3846                 2.4485                 2.9579
 Frc consts  --      0.1042                 0.0617                 0.0851
 IR Inten    --      1.6782                 1.7132                 7.2729

                     25                     26                     27
                      A                      A                      A
 Frequencies --    257.7645               264.6572               289.9902
 Red. masses --      1.6866                 4.0163                 4.4878
 Frc consts  --      0.0660                 0.1657                 0.2224
 IR Inten    --      8.5221                72.1486                 5.3024

                     28                     29                     30
                      A                      A                      A
 Frequencies --    303.8010               311.7992               343.0165
 Red. masses --      4.1808                 3.0780                22.7908
 Frc consts  --      0.2273                 0.1763                 1.5799
 IR Inten    --      6.4024                 3.4959                49.1843

                     31                     32                     33
                      A                      A                      A
 Frequencies --    355.1629               382.2646               394.7407
 Red. masses --      4.9494                 4.5515                 4.4551
 Frc consts  --      0.3678                 0.3919                 0.4090
 IR Inten    --      2.1794                14.0386                37.5009

                     34                     35                     36
                      A                      A                      A
 Frequencies --    397.6621               400.9817               410.7600
 Red. masses --      6.6990                19.4034                 2.8725
 Frc consts  --      0.6242                 1.8381                 0.2856
 IR Inten    --     56.3050                66.9582                 1.1792

                     37                     38                     39
                      A                      A                      A
 Frequencies --    424.9464               453.1545               480.7997
 Red. masses --      3.8274                 3.3435                 2.7892
 Frc consts  --      0.4072                 0.4045                 0.3799
 IR Inten    --     42.6047                 2.0224                 6.4352

                     40                     41                     42
                      A                      A                      A
 Frequencies --    500.2637               517.9050               540.4953
 Red. masses --      2.9187                 3.1433                 3.6042
 Frc consts  --      0.4304                 0.4967                 0.6204
 IR Inten    --      8.3118                 4.4297                26.3246

                     43                     44                     45
                      A                      A                      A
 Frequencies --    583.0767               624.9413               647.2368
 Red. masses --      4.6915                 6.2792                 4.1195
 Frc consts  --      0.9398                 1.4449                 1.0168
 IR Inten    --     73.0816                 4.9898                92.2659

                     46                     47                     48
                      A                      A                      A
 Frequencies --    692.4987               700.9756               753.2854
 Red. masses --      1.6366                 6.0473                 4.3680
 Frc consts  --      0.4624                 1.7507                 1.4603
 IR Inten    --     59.2418                13.3583                 5.1867

                     49                     50                     51
                      A                      A                      A
 Frequencies --    768.4539               799.0276               805.0815
 Red. masses --      2.2982                 2.0480                 1.3570
 Frc consts  --      0.7996                 0.7704                 0.5182
 IR Inten    --     18.9434                13.6201                 0.4073

                     52                     53                     54
                      A                      A                      A
 Frequencies --    823.5875               844.2471               858.7855
 Red. masses --      3.4106                 1.2591                 1.6045
 Frc consts  --      1.3630                 0.5288                 0.6972
 IR Inten    --     15.5149                 0.9140                 5.4562

                     55                     56                     57
                      A                      A                      A
 Frequencies --    866.8114               904.9416               921.0365
 Red. masses --      2.3793                 1.9568                 1.9302
 Frc consts  --      1.0533                 0.9441                 0.9647
 IR Inten    --     41.7962                 5.5228                15.7751

                     58                     59                     60
                      A                      A                      A
 Frequencies --    945.6430               959.2075               971.3980
 Red. masses --      1.4159                 1.4235                 3.3947
 Frc consts  --      0.7460                 0.7717                 1.8873
 IR Inten    --      0.3423                 2.5723                22.7397

                     61                     62                     63
                      A                      A                      A
 Frequencies --    988.1520               989.5989               995.0702
 Red. masses --      1.7749                 1.4949                 1.5729
 Frc consts  --      1.0211                 0.8625                 0.9176
 IR Inten    --     15.9680                30.9953                 9.8994

                     64                     65                     66
                      A                      A                      A
 Frequencies --   1003.3991              1008.1862              1020.3761
 Red. masses --      3.0188                 1.5887                 1.9993
 Frc consts  --      1.7907                 0.9514                 1.2265
 IR Inten    --      0.9677                 1.3030                 6.5595

                     67                     68                     69
                      A                      A                      A
 Frequencies --   1037.5405              1047.4035              1073.7581
 Red. masses --      2.6594                 2.3404                 2.2127
 Frc consts  --      1.6867                 1.5128                 1.5031
 IR Inten    --     46.7644                 2.9180                 1.5158

                     70                     71                     72
                      A                      A                      A
 Frequencies --   1089.2742              1097.3150              1111.9821
 Red. masses --      1.7949                 1.9617                 1.5634
 Frc consts  --      1.2548                 1.3917                 1.1390
 IR Inten    --      0.9610                15.2864                 8.7956

                     73                     74                     75
                      A                      A                      A
 Frequencies --   1132.8702              1138.8174              1162.6214
 Red. masses --      2.1468                 2.2481                 1.6724
 Frc consts  --      1.6233                 1.7178                 1.3319
 IR Inten    --     14.7966                 7.3218                69.0479

                     76                     77                     78
                      A                      A                      A
 Frequencies --   1170.7717              1176.9200              1201.4893
 Red. masses --      1.5654                 1.0873                 1.3220
 Frc consts  --      1.2642                 0.8874                 1.1244
 IR Inten    --      3.3106                 1.6867                46.1837

                     79                     80                     81
                      A                      A                      A
 Frequencies --   1207.0900              1227.3769              1253.5829
 Red. masses --      1.4524                 2.1832                 2.0639
 Frc consts  --      1.2469                 1.9377                 1.9110
 IR Inten    --     53.7608               164.8029                26.0864

                     82                     83                     84
                      A                      A                      A
 Frequencies --   1262.4587              1285.5297              1326.6713
 Red. masses --      2.4352                 1.1165                 1.5070
 Frc consts  --      2.2868                 1.0871                 1.5628
 IR Inten    --    123.0161                 0.3445                60.7030

                     85                     86                     87
                      A                      A                      A
 Frequencies --   1331.5761              1333.7263              1337.4454
 Red. masses --      1.3747                 1.6401                 1.6316
 Frc consts  --      1.4361                 1.7189                 1.7196
 IR Inten    --     14.5961               111.0480                18.7377

                     88                     89                     90
                      A                      A                      A
 Frequencies --   1363.6082              1368.2631              1380.1626
 Red. masses --      3.4300                 1.4475                 1.3094
 Frc consts  --      3.7577                 1.5967                 1.4695
 IR Inten    --      3.9759                10.8156                14.4603

                     91                     92                     93
                      A                      A                      A
 Frequencies --   1383.0502              1400.4281              1409.7857
 Red. masses --      1.3891                 1.3052                 1.4571
 Frc consts  --      1.5655                 1.5082                 1.7063
 IR Inten    --     22.2458                 8.5087                20.5952

                     94                     95                     96
                      A                      A                      A
 Frequencies --   1416.0301              1456.4415              1462.8205
 Red. masses --      1.4037                 1.0992                 2.2753
 Frc consts  --      1.6583                 1.3737                 2.8686
 IR Inten    --     12.0035                24.9859                98.0024

                     97                     98                     99
                      A                      A                      A
 Frequencies --   1467.0165              1473.1931              1478.2579
 Red. masses --      1.0744                 1.0387                 1.0819
 Frc consts  --      1.3623                 1.3282                 1.3930
 IR Inten    --      1.3842                 6.4907                15.6712

                    100                    101                    102
                      A                      A                      A
 Frequencies --   1480.9827              1487.7260              1490.0279
 Red. masses --      1.0567                 1.0579                 1.1390
 Frc consts  --      1.3655                 1.3796                 1.4899
 IR Inten    --     12.1990                 7.9686                34.5687

                    103                    104                    105
                      A                      A                      A
 Frequencies --   1493.8585              1506.3159              1509.7923
 Red. masses --      1.1455                 1.0849                 3.3454
 Frc consts  --      1.5062                 1.4504                 4.4930
 IR Inten    --     18.0070                 4.2795               414.0174

                    106                    107                    108
                      A                      A                      A
 Frequencies --   1519.7349              1619.5262              1639.8950
 Red. masses --      2.2908                 5.5559                 5.6428
 Frc consts  --      3.1173                 8.5859                 8.9408
 IR Inten    --    189.2034                 9.4717                28.8844

                    109                    110                    111
                      A                      A                      A
 Frequencies --   1686.7849              1767.3744              3016.0027
 Red. masses --      5.9479                11.5582                 1.0391
 Frc consts  --      9.9709                21.2715                 5.5688
 IR Inten    --    141.3666               223.8016                 5.5003

                    112                    113                    114
                      A                      A                      A
 Frequencies --   3024.6870              3031.3828              3042.3398
 Red. masses --      1.0433                 1.0673                 1.0360
 Frc consts  --      5.6237                 5.7787                 5.6494
 IR Inten    --     10.3526                27.4708                17.6520

                    115                    116                    117
                      A                      A                      A
 Frequencies --   3060.3591              3067.3102              3070.8490
 Red. masses --      1.0594                 1.0633                 1.0973
 Frc consts  --      5.8457                 5.8940                 6.0968
 IR Inten    --     15.4579                25.5717                 8.9409

                    118                    119                    120
                      A                      A                      A
 Frequencies --   3075.9571              3081.3940              3094.6001
 Red. masses --      1.0856                 1.0941                 1.0962
 Frc consts  --      6.0515                 6.1207                 6.1853
 IR Inten    --      2.7038                 6.0472                 3.9762

                    121                    122                    123
                      A                      A                      A
 Frequencies --   3109.1898              3118.3139              3119.3781
 Red. masses --      1.1059                 1.1020                 1.1001
 Frc consts  --      6.2987                 6.3137                 6.3067
 IR Inten    --      8.4872                16.0421                14.7417

                    124                    125                    126
                      A                      A                      A
 Frequencies --   3129.0722              3139.7624              3151.7042
 Red. masses --      1.1007                 1.1045                 1.0950
 Frc consts  --      6.3494                 6.4150                 6.4085
 IR Inten    --     11.0138                14.5295                 3.3845

                    127                    128                    129
                      A                      A                      A
 Frequencies --   3154.0598              3174.3337              3187.1895
 Red. masses --      1.0896                 1.0861                 1.0911
 Frc consts  --      6.3862                 6.4479                 6.5303
 IR Inten    --     25.0784                 0.3871                 6.7289

                    130                    131                    132
                      A                      A                      A
 Frequencies --   3196.6219              3221.7871              3237.7492
 Red. masses --      1.0968                 1.0929                 1.0918
 Frc consts  --      6.6031                 6.6839                 6.7436
 IR Inten    --     12.3380                 2.0493                 1.6291

 - Thermochemistry -
 -------------------
 Temperature   298.150 Kelvin.  Pressure   1.00000 Atm.
 Atom     1 has atomic number  6 and mass  12.00000

 Molecular mass:   434.99839 amu.
 Principal axes and moments of inertia in atomic units:
                           1         2         3
     Eigenvalues --  9456.74447********************
           X            0.99791  -0.06307   0.01438
           Y            0.06274   0.99778   0.02221
           Z           -0.01574  -0.02126   0.99965
 This molecule is an asymmetric top.
 Rotational symmetry number  1.
 Warning -- assumption of classical behavior for rotation
           may cause significant error
 Rotational temperatures (Kelvin)      0.00916     0.00771     0.00638
 Rotational constants (GHZ):           0.19084     0.16072     0.13299
    1 imaginary frequencies ignored.
 Zero-point vibrational energy     943641.7 (Joules/Mol)
                                  225.53578 (Kcal/Mol)
 Warning -- explicit consideration of  42 degrees of freedom as
           vibrations may cause significant error
 Vibrational temperatures:     19.15    33.98    43.24    66.52    75.38
          (Kelvin)             85.07    91.05   113.03   124.32   130.07
                              144.83   145.87   156.51   170.19   175.74
                              183.87   198.94   209.78   247.26   260.52
                              288.92   297.66   317.85   370.87   380.78
                              417.23   437.10   448.61   493.52   511.00
                              549.99   567.94   572.15   576.92   590.99
                              611.40   651.99   691.76   719.77   745.15
                              777.65   838.92   899.15   931.23   996.35
                             1008.55  1083.81  1105.63  1149.62  1158.33
                             1184.96  1214.68  1235.60  1247.15  1302.01
                             1325.17  1360.57  1380.09  1397.63  1421.73
                             1423.81  1431.68  1443.67  1450.56  1468.09
                             1492.79  1506.98  1544.90  1567.22  1578.79
                             1599.89  1629.95  1638.50  1672.75  1684.48
                             1693.33  1728.68  1736.73  1765.92  1803.63
                             1816.40  1849.59  1908.78  1915.84  1918.93
                             1924.29  1961.93  1968.63  1985.75  1989.90
                             2014.90  2028.37  2037.35  2095.49  2104.67
                             2110.71  2119.60  2126.88  2130.80  2140.51
                             2143.82  2149.33  2167.25  2172.25  2186.56
                             2330.14  2359.44  2426.91  2542.86  4339.36
                             4351.85  4361.48  4377.25  4403.17  4413.18
                             4418.27  4425.62  4433.44  4452.44  4473.43
                             4486.56  4488.09  4502.04  4517.42  4534.60
                             4537.99  4567.16  4585.65  4599.23  4635.43
                             4658.40

 Zero-point correction=                           0.359414 (Hartree/Particle)
 Thermal correction to Energy=                    0.387073
 Thermal correction to Enthalpy=                  0.388017
 Thermal correction to Gibbs Free Energy=         0.296166
 Sum of electronic and zero-point Energies=          -3531.081396
 Sum of electronic and thermal Energies=             -3531.053737
 Sum of electronic and thermal Enthalpies=           -3531.052793
 Sum of electronic and thermal Free Energies=        -3531.144644

                     E (Thermal)             CV                S
                      KCal/Mol        Cal/Mol-Kelvin    Cal/Mol-Kelvin
 Total                  242.892             97.751            193.317
 Electronic               0.000              0.000              3.561
 Translational            0.889              2.981             44.100
 Rotational               0.889              2.981             35.620
 Vibrational            241.115             91.789            110.036
 Vibration     1          0.593              1.987              7.443
 Vibration     2          0.593              1.985              6.304
 Vibration     3          0.594              1.984              5.826
 Vibration     4          0.595              1.979              4.972
 Vibration     5          0.596              1.977              4.725
 Vibration     6          0.596              1.974              4.486
 Vibration     7          0.597              1.972              4.352
 Vibration     8          0.600              1.964              3.926
 Vibration     9          0.601              1.959              3.740
 Vibration    10          0.602              1.956              3.651
 Vibration    11          0.604              1.949              3.441
 Vibration    12          0.604              1.948              3.428
 Vibration    13          0.606              1.942              3.291
 Vibration    14          0.608              1.934              3.128
 Vibration    15          0.610              1.931              3.066
 Vibration    16          0.611              1.925              2.979
 Vibration    17          0.614              1.915              2.828
 Vibration    18          0.617              1.907              2.726
 Vibration    19          0.626              1.877              2.415
 Vibration    20          0.630              1.865              2.317
 Vibration    21          0.638              1.839              2.126
 Vibration    22          0.641              1.830              2.071
 Vibration    23          0.648              1.809              1.952
 Vibration    24          0.667              1.750              1.677
 Vibration    25          0.671              1.738              1.631
 Vibration    26          0.686              1.692              1.474
 Vibration    27          0.695              1.666              1.396
 Vibration    28          0.700              1.651              1.353
 Vibration    29          0.722              1.589              1.198
 Vibration    30          0.731              1.565              1.143
 Vibration    31          0.752              1.508              1.030
 Vibration    32          0.762              1.481              0.982
 Vibration    33          0.764              1.475              0.971
 Vibration    34          0.767              1.468              0.959
 Vibration    35          0.775              1.447              0.924
 Vibration    36          0.787              1.416              0.875
 Vibration    37          0.812              1.354              0.786
 Vibration    38          0.837              1.293              0.708
 Vibration    39          0.856              1.249              0.657
 Vibration    40          0.873              1.210              0.615
 Vibration    41          0.896              1.161              0.564
 Vibration    42          0.940              1.068              0.480

                           ! Non-Optimized Parameters !
 Normal termination of Gaussian 16 at Sun Jun 20 19:33:34 2021.

 ----------------------------------------------------------------------
 #p ub3lyp jul-cc-pvdz pop=cm5 scrf=(pcm,solvent=dichloroethane) guess=
 read geom=allcheck
 ----------------------------------------------------------------------

 Structure from the checkpoint file:  "checkpoint.chk"
 -----
 title
 -----
 Charge =  0 Multiplicity = 6

 SCF Done:  E(UB3LYP) =  -3531.45837985     A.U. after   18 cycles
 Normal termination of Gaussian 16 at Sun Jun 20 19:53:34 2021.
 Gaussian 16:  ES64L-G16RevA.03 25-Dec-2016

 ----------------------------------------------------------------------
 #p ub3lyp jul-cc-pvdz pop=cm5 scrf=(pcm,solvent=water) guess=read geom
 =allcheck
 ----------------------------------------------------------------------

 Structure from the checkpoint file:  "checkpoint.chk"
 -----
 title
 -----
 Charge =  0 Multiplicity = 6

                         Standard orientation:
 ---------------------------------------------------------------------
 Center     Atomic      Atomic             Coordinates (Angstroms)
 Number     Number       Type             X           Y           Z
 ---------------------------------------------------------------------
      1          6           0        3.244114    0.270267    0.412461
      2          6           0        1.958925   -0.226767    0.708927
      3          6           0        1.689274   -0.675444    2.018331
      4          6           0        2.679848   -0.641925    2.997547
      5          6           0        3.955651   -0.158243    2.688161
      6          6           0        4.231426    0.302535    1.395602
      7          6           0        0.848883   -0.241485   -0.282232
      8          6           0        0.857590    0.637225   -1.554404
      9          6           0        1.762780    0.155124   -2.696384
     10          6           0        1.522553   -1.341558   -2.912177
     11          6           0        1.697711   -2.057336   -1.602149
     12          6           0        0.849976   -2.942437   -1.022139
     13          6           0       -0.518062   -3.270375   -1.536721
     14          8           0       -0.275493   -0.651621    0.129153
     15         26           0       -2.186077   -0.266347    0.419809
     16         17           0       -3.018118    0.385139   -1.519363
     17          6           0        1.234806   -3.653205    0.242388
     18         17           0       -2.237636    1.259811    2.006130
     19         17           0       -3.049651   -2.167737    1.134435
     20          1           0        0.689451   -1.026792    2.263846
     21          1           0        2.452656   -0.984766    4.007497
     22          1           0        4.731094   -0.129519    3.455337
     23          1           0        5.219098    0.696167    1.153290
     24          1           0        3.476606    0.654244   -0.576427
     25          1           0       -0.185365    0.607852   -1.895397
     26          6           0        1.152669    2.102593   -1.188714
     27          1           0        1.528562    0.734897   -3.599581
     28          1           0        2.816789    0.352752   -2.468463
     29          1           0        0.520878   -1.504507   -3.329014
     30          1           0        2.242198   -1.729081   -3.650470
     31          1           0        2.695570   -1.972657   -1.167127
     32          1           0        2.259935   -3.425727    0.557267
     33          1           0        0.541185   -3.383440    1.055271
     34          1           0        1.142242   -4.742618    0.108904
     35          1           0       -0.547375   -4.329275   -1.841750
     36          1           0       -1.265691   -3.159081   -0.737762
     37          1           0       -0.829665   -2.662377   -2.391336
     38          8           0        0.088525    2.669235   -0.612952
     39          8           0        2.200165    2.668728   -1.420161
     40          6           0        0.217965    4.072454   -0.228455
     41          6           0       -1.158492    4.576464    0.150572
     42          1           0        0.928211    4.123246    0.608455
     43          1           0        0.649303    4.618157   -1.077209
     44          1           0       -1.081342    5.628322    0.462003
     45          1           0       -1.846862    4.516480   -0.703369
     46          1           0       -1.578846    3.992086    0.978587
 ---------------------------------------------------------------------

 SCF Done:  E(UB3LYP) =  -3531.46160120     A.U. after   17 cycles

 The electronic state is 6-A.
 Alpha  occ. eigenvalues -- -256.21461-101.52736-101.52673-101.52661 -30.20852
 Alpha  occ. eigenvalues --  -26.06279 -26.06029 -26.05946 -19.20925 -19.19169
 Alpha  occ. eigenvalues --  -19.15933 -10.33862 -10.33348 -10.25073 -10.23095
 Alpha  occ. eigenvalues --  -10.22566 -10.22288 -10.21570 -10.21528 -10.21445
 Alpha  occ. eigenvalues --  -10.20977 -10.20929 -10.20346 -10.19688 -10.19583
 Alpha  occ. eigenvalues --  -10.18926 -10.18719 -10.18610  -9.44455  -9.44403
 Alpha  occ. eigenvalues --   -9.44392  -7.20322  -7.20271  -7.20261  -7.20013
 Alpha  occ. eigenvalues --   -7.19994  -7.19953  -7.19946  -7.19941  -7.19929
 Alpha  occ. eigenvalues --   -3.68507  -2.46216  -2.45742  -2.45579  -1.12826
 Alpha  occ. eigenvalues --   -1.09388  -1.04320  -0.88321  -0.85403  -0.82701
 Alpha  occ. eigenvalues --   -0.80746  -0.79989  -0.79954  -0.78735  -0.78679
 Alpha  occ. eigenvalues --   -0.76961  -0.75027  -0.70525  -0.69835  -0.67104
 Alpha  occ. eigenvalues --   -0.64685  -0.62715  -0.61736  -0.59831  -0.57768
 Alpha  occ. eigenvalues --   -0.55982  -0.53972  -0.53266  -0.51846  -0.50534
 Alpha  occ. eigenvalues --   -0.49887  -0.49245  -0.48889  -0.48636  -0.48517
 Alpha  occ. eigenvalues --   -0.48203  -0.47416  -0.47112  -0.46932  -0.45879
 Alpha  occ. eigenvalues --   -0.45473  -0.44977  -0.43990  -0.43170  -0.42761
 Alpha  occ. eigenvalues --   -0.42454  -0.41295  -0.40313  -0.40086  -0.39560
 Alpha  occ. eigenvalues --   -0.38837  -0.38238  -0.38059  -0.37955  -0.37677
 Alpha  occ. eigenvalues --   -0.37113  -0.37021  -0.36418  -0.36158  -0.35359
 Alpha  occ. eigenvalues --   -0.34953  -0.34439  -0.33902  -0.32585  -0.32341
 Alpha  occ. eigenvalues --   -0.31508  -0.31488  -0.31133  -0.30933  -0.30332
 Alpha  occ. eigenvalues --   -0.30052  -0.29737  -0.28505  -0.27655  -0.25335
 Alpha virt. eigenvalues --   -0.10965  -0.03373  -0.02337  -0.01723  -0.01084
 Alpha virt. eigenvalues --   -0.00183  -0.00019   0.00072   0.01253   0.01493
 Alpha virt. eigenvalues --    0.01695   0.02001   0.02508   0.02661   0.03193

  Beta  occ. eigenvalues -- -256.21276-101.52545-101.52483-101.52467 -30.11906
  Beta  occ. eigenvalues --  -25.98692 -25.98622 -25.98570 -19.20925 -19.18775
  Beta  occ. eigenvalues --  -19.15931 -10.33862 -10.33330 -10.25073 -10.23084
  Beta  occ. eigenvalues --  -10.22546 -10.22264 -10.21569 -10.21526 -10.21445
  Beta  occ. eigenvalues --  -10.20975 -10.20929 -10.20345 -10.19688 -10.19564
  Beta  occ. eigenvalues --  -10.18927 -10.18720 -10.18609  -9.44268  -9.44217
  Beta  occ. eigenvalues --   -9.44201  -7.20012  -7.19960  -7.19948  -7.19751
  Beta  occ. eigenvalues --   -7.19738  -7.19697  -7.19686  -7.19680  -7.19665
  Beta  occ. eigenvalues --   -3.47644  -2.23925  -2.23856  -2.23794  -1.12821
  Beta  occ. eigenvalues --   -1.08633  -1.04317  -0.88284  -0.85353  -0.82648
  Beta  occ. eigenvalues --   -0.79513  -0.78742  -0.78685  -0.78627  -0.78561
  Beta  occ. eigenvalues --   -0.76955  -0.75001  -0.70510  -0.69738  -0.66956
  Beta  occ. eigenvalues --   -0.64624  -0.62685  -0.61631  -0.59411  -0.57520
  Beta  occ. eigenvalues --   -0.55449  -0.53790  -0.52731  -0.51775  -0.50350
  Beta  occ. eigenvalues --   -0.49540  -0.48926  -0.47530  -0.47354  -0.46733
  Beta  occ. eigenvalues --   -0.45529  -0.45052  -0.43990  -0.43178  -0.42753
  Beta  occ. eigenvalues --   -0.42446  -0.41343  -0.40270  -0.40091  -0.39565
  Beta  occ. eigenvalues --   -0.38763  -0.38469  -0.38148  -0.38036  -0.37672
  Beta  occ. eigenvalues --   -0.37109  -0.37019  -0.36473  -0.36390  -0.36331
  Beta  occ. eigenvalues --   -0.36118  -0.35367  -0.34049  -0.33645  -0.33453
  Beta  occ. eigenvalues --   -0.32950  -0.32729  -0.32233  -0.31535  -0.30620
  Beta  occ. eigenvalues --   -0.29915  -0.29742  -0.28567  -0.27655  -0.25205
  Beta virt. eigenvalues --   -0.15558  -0.14997  -0.14025  -0.13737  -0.13543
  Beta virt. eigenvalues --   -0.10145  -0.03357  -0.02292  -0.01625  -0.01014
  Beta virt. eigenvalues --   -0.00141   0.00012   0.00105   0.01339   0.01519

 Mulliken charges and spin densities:
               1          2
     1  C    0.156770   0.000031
     2  C    3.065126   0.005081
     3  C   -0.615869  -0.001727
     4  C   -0.009698   0.001214
     5  C    0.293054   0.002025
     6  C   -0.094619   0.001383
     7  C   -2.340527  -0.005372
     8  C    0.468846   0.003273
     9  C    0.542861   0.001760
    10  C    0.677320  -0.000537
    11  C    0.298156   0.010372
    12  C   -0.063436   0.015122
    13  C    0.096232  -0.001248
    14  O   -0.246610   0.115660
    15  Fe   0.635396   4.071193
    16  Cl  -0.495523   0.250693
    17  C    0.253599  -0.000221
    18  Cl  -0.449279   0.264216
    19  Cl  -0.465027   0.259742
    20  H   -0.234241  -0.000502
    21  H   -0.155328   0.000017
    22  H   -0.151178  -0.000026
    23  H   -0.154217   0.000147
    24  H   -0.217443  -0.000111
    25  H   -0.183565  -0.000078
    26  C    0.714458  -0.000225
    27  H   -0.136143   0.000236
    28  H   -0.010234  -0.000029
    29  H   -0.088325   0.000045
    30  H   -0.117976   0.000822
    31  H   -0.271753  -0.000639
    32  H   -0.010014  -0.000001
    33  H    0.058862   0.000728
    34  H   -0.023364   0.000999
    35  H   -0.010280   0.001122
    36  H    0.067812   0.001942
    37  H    0.012179  -0.000118
    38  O   -0.666410   0.002222
    39  O   -0.580911   0.000971
    40  C    0.425653   0.001075
    41  C    0.042149  -0.001090
    42  H   -0.033055   0.000057
    43  H   -0.034052   0.000027
    44  H   -0.005481   0.000030
    45  H    0.026710   0.000067
    46  H    0.029378  -0.000346
 Sum of Mulliken charges =  -0.00000   5.00000

 Dipole moment (field-independent basis, Debye):
    X=             10.4726    Y=             -1.7420    Z=             -1.7477  Tot=             10.7594
 Quadrupole moment (field-independent basis, Debye-Ang):
   XX=           -189.1872   YY=           -165.1885   ZZ=           -169.8324
   XY=            -10.8611   XZ=             11.2375   YZ=              4.6816

 Normal termination of Gaussian 16 at Sun Jun 20 20:12:09 2021.
