 Gaussian 16, Revision A.03,

 -----------------------------------------------------------
 #p opt=modredundant freq=noraman ub3lyp jul-cc-pvdz pop=cm5
 -----------------------------------------------------------

 -----
 title
 -----
 Symbolic Z-matrix:
 Charge =  0 Multiplicity = 6

 SCF Done:  E(UB3LYP) =  -3531.41939738     A.U. after   26 cycles
 SCF Done:  E(UB3LYP) =  -3531.41853541     A.U. after   18 cycles
 SCF Done:  E(UB3LYP) =  -3531.41733110     A.U. after   17 cycles
 SCF Done:  E(UB3LYP) =  -3531.41551188     A.U. after   17 cycles
 SCF Done:  E(UB3LYP) =  -3531.41954965     A.U. after   13 cycles
 SCF Done:  E(UB3LYP) =  -3531.41932974     A.U. after   17 cycles
 SCF Done:  E(UB3LYP) =  -3531.41979531     A.U. after   16 cycles
 SCF Done:  E(UB3LYP) =  -3531.41994848     A.U. after   18 cycles
 SCF Done:  E(UB3LYP) =  -3531.42003428     A.U. after   15 cycles
 SCF Done:  E(UB3LYP) =  -3531.42003969     A.U. after   16 cycles
 SCF Done:  E(UB3LYP) =  -3531.42008192     A.U. after   12 cycles
 SCF Done:  E(UB3LYP) =  -3531.42008314     A.U. after   11 cycles
 SCF Done:  E(UB3LYP) =  -3531.42008386     A.U. after   11 cycles
 SCF Done:  E(UB3LYP) =  -3531.42008421     A.U. after   12 cycles
 SCF Done:  E(UB3LYP) =  -3531.42008440     A.U. after   12 cycles
 SCF Done:  E(UB3LYP) =  -3531.42008437     A.U. after   12 cycles
 SCF Done:  E(UB3LYP) =  -3531.42008433     A.U. after    9 cycles
 Optimization completed.
    -- Stationary point found.
 Normal termination of Gaussian 16 at Sun Jun 20 05:11:46 2021.

 ----------------------------------------------------------------------
 #P Geom=AllCheck Guess=TCheck SCRF=Check GenChk UB3LYP/Jul-CC-pVDZ Fre
 q
 ----------------------------------------------------------------------

 Structure from the checkpoint file:  "checkpoint.chk"
 -----
 title
 -----
 Charge =  0 Multiplicity = 6

 SCF Done:  E(UB3LYP) =  -3531.42008433     A.U. after    2 cycles

  Exact polarizability: 319.008 -13.359 302.749  10.819  -7.156 289.642
 Approx polarizability: 491.108 -26.677 459.864   0.199 -15.182 482.885

 ******    1 imaginary frequencies (negative Signs) ******

                      1                      2                      3
                      A                      A                      A
 Frequencies --   -195.8464                 5.8946                20.0683
 Red. masses --      8.1332                12.1795                 3.7458
 Frc consts  --      0.1838                 0.0002                 0.0009
 IR Inten    --    327.1341                 0.3881                 1.8711

                      4                      5                      6
                      A                      A                      A
 Frequencies --     28.2727                38.6420                46.7268
 Red. masses --      4.0209                 7.2120                 5.2966
 Frc consts  --      0.0019                 0.0063                 0.0068
 IR Inten    --      1.7046                 0.6448                 2.3996

                      7                      8                      9
                      A                      A                      A
 Frequencies --     59.2918                71.4169                74.0414
 Red. masses --      3.6947                 3.8633                 5.2498
 Frc consts  --      0.0077                 0.0116                 0.0170
 IR Inten    --      0.5404                 2.2310                 0.4822

                     10                     11                     12
                      A                      A                      A
 Frequencies --     84.0841                92.5104                98.1720
 Red. masses --      7.5079                 6.0891                 4.9886
 Frc consts  --      0.0313                 0.0307                 0.0283
 IR Inten    --      0.3968                 0.4026                 3.0596

                     13                     14                     15
                      A                      A                      A
 Frequencies --    101.2023               109.9682               117.2019
 Red. masses --      3.0554                 6.9581                 8.3528
 Frc consts  --      0.0184                 0.0496                 0.0676
 IR Inten    --      0.4116                20.0667                 2.6083

                     16                     17                     18
                      A                      A                      A
 Frequencies --    121.4924               129.2570               145.2491
 Red. masses --      2.2765                 5.8183                 1.8653
 Frc consts  --      0.0198                 0.0573                 0.0232
 IR Inten    --      0.9658                 2.3431                 0.7409

                     19                     20                     21
                      A                      A                      A
 Frequencies --    152.3182               160.9791               186.6007
 Red. masses --      4.3664                 2.1340                 2.2489
 Frc consts  --      0.0597                 0.0326                 0.0461
 IR Inten    --      2.5506                 3.9401                 5.5027

                     22                     23                     24
                      A                      A                      A
 Frequencies --    196.3174               213.7886               223.9893
 Red. masses --      1.7548                 3.6257                 3.2205
 Frc consts  --      0.0398                 0.0976                 0.0952
 IR Inten    --      2.6968                 2.8577                10.6522

                     25                     26                     27
                      A                      A                      A
 Frequencies --    251.1634               258.4079               283.2252
 Red. masses --      3.0056                 1.9229                 3.0065
 Frc consts  --      0.1117                 0.0757                 0.1421
 IR Inten    --      2.7596                 3.4664                 1.3846

                     28                     29                     30
                      A                      A                      A
 Frequencies --    301.0514               322.4433               343.9165
 Red. masses --      3.3516                 5.8409                17.1060
 Frc consts  --      0.1790                 0.3578                 1.1921
 IR Inten    --      8.3756                 1.9464                51.9246

                     31                     32                     33
                      A                      A                      A
 Frequencies --    355.5813               369.4031               384.4081
 Red. masses --      4.5303                 5.0178                34.3168
 Frc consts  --      0.3375                 0.4034                 2.9877
 IR Inten    --     11.9136                12.0873                85.1760

                     34                     35                     36
                      A                      A                      A
 Frequencies --    392.4611               403.3716               417.4707
 Red. masses --     32.2024                 2.9828                 2.9604
 Frc consts  --      2.9223                 0.2859                 0.3040
 IR Inten    --     77.5298                 0.8773                 0.3844

                     37                     38                     39
                      A                      A                      A
 Frequencies --    436.0288               452.2649               481.1509
 Red. masses --      3.7170                 5.0504                 2.1304
 Frc consts  --      0.4164                 0.6086                 0.2906
 IR Inten    --     21.1590                17.1408                 1.9548

                     40                     41                     42
                      A                      A                      A
 Frequencies --    506.7924               535.5344               540.8291
 Red. masses --      2.7697                 3.4102                 3.3555
 Frc consts  --      0.4191                 0.5762                 0.5783
 IR Inten    --      4.2078                23.3496                 6.9237

                     43                     44                     45
                      A                      A                      A
 Frequencies --    608.5415               626.7876               653.2588
 Red. masses --      5.0072                 6.3674                 4.2702
 Frc consts  --      1.0925                 1.4739                 1.0737
 IR Inten    --     22.1147                 1.8596               122.2941

                     46                     47                     48
                      A                      A                      A
 Frequencies --    699.1657               708.5647               762.6400
 Red. masses --      5.5693                 1.6482                 3.7579
 Frc consts  --      1.6040                 0.4876                 1.2878
 IR Inten    --     12.0181                84.0413                11.5426

                     49                     50                     51
                      A                      A                      A
 Frequencies --    769.4219               803.1674               813.6878
 Red. masses --      2.4395                 1.3559                 2.7131
 Frc consts  --      0.8509                 0.5153                 1.0584
 IR Inten    --      6.6602                10.6784                28.4792

                     52                     53                     54
                      A                      A                      A
 Frequencies --    823.7630               851.8470               860.6285
 Red. masses --      2.0249                 1.2517                 1.7122
 Frc consts  --      0.8096                 0.5352                 0.7472
 IR Inten    --      7.6573                 1.9588                 2.5271

                     55                     56                     57
                      A                      A                      A
 Frequencies --    870.2890               899.5249               924.9173
 Red. masses --      2.5154                 1.7895                 2.5352
 Frc consts  --      1.1225                 0.8531                 1.2778
 IR Inten    --     15.3973                 2.7463                12.8841

                     58                     59                     60
                      A                      A                      A
 Frequencies --    937.5849               960.0558               985.4104
 Red. masses --      1.4620                 2.4909                 1.4036
 Frc consts  --      0.7572                 1.3527                 0.8030
 IR Inten    --      4.7772                11.4419                 2.6305

                     61                     62                     63
                      A                      A                      A
 Frequencies --    988.1726               993.4642              1000.8172
 Red. masses --      1.3763                 2.7473                 1.7102
 Frc consts  --      0.7918                 1.5976                 1.0093
 IR Inten    --     11.0991                66.3283                 2.1115

                     64                     65                     66
                      A                      A                      A
 Frequencies --   1003.2249              1008.8058              1011.0138
 Red. masses --      1.8672                 2.7405                 1.5459
 Frc consts  --      1.1072                 1.6432                 0.9310
 IR Inten    --     14.0259                 2.1966                33.1808

                     67                     68                     69
                      A                      A                      A
 Frequencies --   1040.1129              1047.8998              1060.0461
 Red. masses --      3.0001                 2.2710                 2.0849
 Frc consts  --      1.9123                 1.4693                 1.3804
 IR Inten    --     36.1019                 9.2926                 4.1771

                     70                     71                     72
                      A                      A                      A
 Frequencies --   1074.6671              1101.7572              1107.8247
 Red. masses --      1.8412                 1.6439                 1.5964
 Frc consts  --      1.2528                 1.1757                 1.1543
 IR Inten    --      7.1499                 8.9532                14.1094

                     73                     74                     75
                      A                      A                      A
 Frequencies --   1131.2875              1134.7212              1162.5462
 Red. masses --      2.4999                 2.2901                 1.7342
 Frc consts  --      1.8850                 1.7373                 1.3809
 IR Inten    --      8.0885                13.6268                13.0273

                     76                     77                     78
                      A                      A                      A
 Frequencies --   1168.4707              1174.3615              1195.8731
 Red. masses --      1.5579                 1.0873                 2.1071
 Frc consts  --      1.2532                 0.8835                 1.7754
 IR Inten    --      2.0494                 0.1619                18.1770

                     79                     80                     81
                      A                      A                      A
 Frequencies --   1199.1094              1205.4572              1228.7900
 Red. masses --      1.5495                 1.5139                 2.1328
 Frc consts  --      1.3127                 1.2961                 1.8974
 IR Inten    --     84.6717                25.1213               197.7659

                     82                     83                     84
                      A                      A                      A
 Frequencies --   1263.4719              1276.9801              1283.5269
 Red. masses --      1.7506                 2.0826                 1.1741
 Frc consts  --      1.6465                 2.0009                 1.1396
 IR Inten    --     36.4824               299.1279                34.2331

                     85                     86                     87
                      A                      A                      A
 Frequencies --   1316.8660              1325.9820              1331.2226
 Red. masses --      1.4660                 1.4186                 1.7261
 Frc consts  --      1.4978                 1.4695                 1.8022
 IR Inten    --     29.6152                37.5538                31.5836

                     88                     89                     90
                      A                      A                      A
 Frequencies --   1337.5231              1357.0124              1361.1345
 Red. masses --      1.3070                 2.1285                 2.1795
 Frc consts  --      1.3776                 2.3093                 2.3790
 IR Inten    --     71.8908                20.8315                59.7171

                     91                     92                     93
                      A                      A                      A
 Frequencies --   1366.8728              1371.8475              1388.1024
 Red. masses --      1.4203                 1.2473                 1.5384
 Frc consts  --      1.5635                 1.3831                 1.7465
 IR Inten    --     29.3694                59.8197                49.4637

                     94                     95                     96
                      A                      A                      A
 Frequencies --   1400.5686              1417.7590              1419.9809
 Red. masses --      1.7527                 1.4502                 1.0635
 Frc consts  --      2.0256                 1.7174                 1.2634
 IR Inten    --     87.3639                 4.3731                 2.4031

                     97                     98                     99
                      A                      A                      A
 Frequencies --   1457.7857              1462.0053              1471.6472
 Red. masses --      1.0586                 1.2307                 2.0174
 Frc consts  --      1.3254                 1.5498                 2.5742
 IR Inten    --      9.3343                25.4151                32.2177

                    100                    101                    102
                      A                      A                      A
 Frequencies --   1473.8966              1479.9783              1484.4893
 Red. masses --      1.0388                 1.0892                 1.0518
 Frc consts  --      1.3295                 1.4056                 1.3657
 IR Inten    --      6.2760                 6.8473                 6.1850

                    103                    104                    105
                      A                      A                      A
 Frequencies --   1495.7846              1503.0138              1506.4108
 Red. masses --      1.1373                 1.1686                 1.0876
 Frc consts  --      1.4993                 1.5554                 1.4541
 IR Inten    --      9.4827                 3.1873                 8.7634

                    106                    107                    108
                      A                      A                      A
 Frequencies --   1515.8855              1572.2207              1621.8033
 Red. masses --      2.1232                 3.7737                 5.7223
 Frc consts  --      2.8746                 5.4960                 8.8678
 IR Inten    --      3.5932               119.4018                 0.4146

                    109                    110                    111
                      A                      A                      A
 Frequencies --   1639.9059              1763.1323              2929.9059
 Red. masses --      5.6608                11.7889                 1.0595
 Frc consts  --      8.9695                21.5920                 5.3585
 IR Inten    --      3.6032               229.4762               126.5224

                    112                    113                    114
                      A                      A                      A
 Frequencies --   3016.2427              3042.2040              3047.6102
 Red. masses --      1.0405                 1.0359                 1.0619
 Frc consts  --      5.5775                 5.6487                 5.8110
 IR Inten    --      0.7851                14.2098                18.2643

                    115                    116                    117
                      A                      A                      A
 Frequencies --   3057.2369              3058.3380              3068.6084
 Red. masses --      1.0584                 1.0642                 1.0957
 Frc consts  --      5.8287                 5.8645                 6.0788
 IR Inten    --     14.8465                20.2383                 0.2562

                    118                    119                    120
                      A                      A                      A
 Frequencies --   3078.7424              3091.5441              3100.8410
 Red. masses --      1.0834                 1.0715                 1.0986
 Frc consts  --      6.0506                 6.0339                 6.2235
 IR Inten    --     14.7272                 6.5572                15.7900

                    121                    122                    123
                      A                      A                      A
 Frequencies --   3103.6428              3115.0043              3118.6146
 Red. masses --      1.1076                 1.1034                 1.1008
 Frc consts  --      6.2859                 6.3084                 6.3080
 IR Inten    --      6.8458                10.0134                22.5938

                    124                    125                    126
                      A                      A                      A
 Frequencies --   3135.4314              3146.5413              3153.4197
 Red. masses --      1.1048                 1.0871                 1.1049
 Frc consts  --      6.3992                 6.3417                 6.4734
 IR Inten    --     21.4316                 4.1945                 5.0778

                    127                    128                    129
                      A                      A                      A
 Frequencies --   3156.5889              3170.8189              3181.3242
 Red. masses --      1.0996                 1.0854                 1.0896
 Frc consts  --      6.4554                 6.4295                 6.4972
 IR Inten    --      7.0448                 0.0922                 6.6962

                    130                    131                    132
                      A                      A                      A
 Frequencies --   3191.3320              3199.0167              3221.3937
 Red. masses --      1.0938                 1.0969                 1.0925
 Frc consts  --      6.5635                 6.6140                 6.6800
 IR Inten    --     12.8587                 6.0190                 2.9366

 - Thermochemistry -
 -------------------
 Temperature   298.150 Kelvin.  Pressure   1.00000 Atm.
 Atom     1 has atomic number  6 and mass  12.00000

 Molecular mass:   434.99839 amu.
 Principal axes and moments of inertia in atomic units:
                           1         2         3
     Eigenvalues --  9026.93439********************
           X            0.99741  -0.06864   0.02132
           Y            0.06891   0.99755  -0.01239
           Z           -0.02041   0.01383   0.99970
 This molecule is an asymmetric top.
 Rotational symmetry number  1.
 Warning -- assumption of classical behavior for rotation
           may cause significant error
 Rotational temperatures (Kelvin)      0.00960     0.00774     0.00659
 Rotational constants (GHZ):           0.19993     0.16137     0.13723
    1 imaginary frequencies ignored.
 Zero-point vibrational energy     940036.8 (Joules/Mol)
                                  224.67419 (Kcal/Mol)
 Warning -- explicit consideration of  42 degrees of freedom as
           vibrations may cause significant error
 Vibrational temperatures:      8.48    28.87    40.68    55.60    67.23
          (Kelvin)             85.31   102.75   106.53   120.98   133.10
                              141.25   145.61   158.22   168.63   174.80
                              185.97   208.98   219.15   231.61   268.48
                              282.46   307.59   322.27   361.37   371.79
                              407.50   433.15   463.92   494.82   511.60
                              531.49   553.08   564.66   580.36   600.65
                              627.35   650.71   692.27   729.16   770.51
                              778.13   875.56   901.81   939.89  1005.94
                             1019.47  1097.27  1107.03  1155.58  1170.72
                             1185.21  1225.62  1238.25  1252.15  1294.22
                             1330.75  1348.98  1381.31  1417.79  1421.76
                             1429.37  1439.95  1443.42  1451.45  1454.62
                             1496.49  1507.69  1525.17  1546.21  1585.18
                             1593.91  1627.67  1632.61  1672.64  1681.17
                             1689.64  1720.59  1725.25  1734.38  1767.95
                             1817.85  1837.29  1846.71  1894.68  1907.79
                             1915.33  1924.40  1952.44  1958.37  1966.63
                             1973.78  1997.17  2015.11  2039.84  2043.04
                             2097.43  2103.50  2117.37  2120.61  2129.36
                             2135.85  2152.10  2162.50  2167.39  2181.02
                             2262.07  2333.41  2359.46  2536.75  4215.48
                             4339.70  4377.05  4384.83  4398.68  4400.27
                             4415.04  4429.62  4448.04  4461.42  4465.45
                             4481.80  4486.99  4511.19  4527.17  4537.07
                             4541.63  4562.10  4577.22  4591.61  4602.67
                             4634.87

 Zero-point correction=                           0.358041 (Hartree/Particle)
 Thermal correction to Energy=                    0.385725
 Thermal correction to Enthalpy=                  0.386669
 Thermal correction to Gibbs Free Energy=         0.293704
 Sum of electronic and zero-point Energies=          -3531.062043
 Sum of electronic and thermal Energies=             -3531.034359
 Sum of electronic and thermal Enthalpies=           -3531.033415
 Sum of electronic and thermal Free Energies=        -3531.126380

                     E (Thermal)             CV                S
                      KCal/Mol        Cal/Mol-Kelvin    Cal/Mol-Kelvin
 Total                  242.046             97.777            195.661
 Electronic               0.000              0.000              3.561
 Translational            0.889              2.981             44.100
 Rotational               0.889              2.981             35.539
 Vibrational            240.269             91.815            112.462
 Vibration     1          0.593              1.987              9.061
 Vibration     2          0.593              1.986              6.627
 Vibration     3          0.593              1.984              5.947
 Vibration     4          0.594              1.981              5.328
 Vibration     5          0.595              1.979              4.951
 Vibration     6          0.597              1.974              4.481
 Vibration     7          0.598              1.968              4.114
 Vibration     8          0.599              1.966              4.043
 Vibration     9          0.601              1.960              3.793
 Vibration    10          0.602              1.955              3.606
 Vibration    11          0.604              1.950              3.490
 Vibration    12          0.604              1.948              3.431
 Vibration    13          0.606              1.941              3.269
 Vibration    14          0.608              1.935              3.146
 Vibration    15          0.609              1.931              3.076
 Vibration    16          0.612              1.924              2.957
 Vibration    17          0.617              1.908              2.734
 Vibration    18          0.619              1.900              2.643
 Vibration    19          0.622              1.890              2.538
 Vibration    20          0.632              1.858              2.261
 Vibration    21          0.636              1.845              2.167
 Vibration    22          0.644              1.820              2.011
 Vibration    23          0.649              1.805              1.927
 Vibration    24          0.663              1.761              1.722
 Vibration    25          0.667              1.749              1.673
 Vibration    26          0.682              1.705              1.514
 Vibration    27          0.693              1.672              1.411
 Vibration    28          0.707              1.630              1.298
 Vibration    29          0.723              1.588              1.194
 Vibration    30          0.731              1.564              1.141
 Vibration    31          0.742              1.535              1.082
 Vibration    32          0.753              1.503              1.022
 Vibration    33          0.760              1.486              0.991
 Vibration    34          0.769              1.463              0.950
 Vibration    35          0.781              1.432              0.901
 Vibration    36          0.796              1.392              0.839
 Vibration    37          0.811              1.356              0.789
 Vibration    38          0.837              1.292              0.707
 Vibration    39          0.862              1.235              0.641
 Vibration    40          0.891              1.171              0.575
 Vibration    41          0.896              1.160              0.564
 Vibration    42          0.967              1.014              0.435

                           ! Non-Optimized Parameters !
 Normal termination of Gaussian 16 at Sun Jun 20 11:18:01 2021.

 ----------------------------------------------------------------------
 #p ub3lyp jul-cc-pvdz pop=cm5 scrf=(pcm,solvent=dichloroethane) guess=
 read geom=allcheck
 ----------------------------------------------------------------------

 Structure from the checkpoint file:  "checkpoint.chk"
 -----
 title
 -----
 Charge =  0 Multiplicity = 6

 SCF Done:  E(UB3LYP) =  -3531.44310802     A.U. after   17 cycles
 Normal termination of Gaussian 16 at Sun Jun 20 11:40:58 2021.
 Gaussian 16:  ES64L-G16RevA.03 25-Dec-2016

 ----------------------------------------------------------------------
 #p ub3lyp jul-cc-pvdz pop=cm5 scrf=(pcm,solvent=water) guess=read geom
 =allcheck
 ----------------------------------------------------------------------

 Structure from the checkpoint file:  "checkpoint.chk"
 -----
 title
 -----
 Charge =  0 Multiplicity = 6

                         Standard orientation:
 ---------------------------------------------------------------------
 Center     Atomic      Atomic             Coordinates (Angstroms)
 Number     Number       Type             X           Y           Z
 ---------------------------------------------------------------------
      1          6           0       -2.963562   -0.987276   -0.292278
      2          6           0       -1.616244   -0.779667   -0.640803
      3          6           0       -1.293834   -0.557048   -1.988345
      4          6           0       -2.292846   -0.551768   -2.966138
      5          6           0       -3.626775   -0.768412   -2.612468
      6          6           0       -3.959268   -0.981407   -1.268997
      7          6           0       -0.510308   -0.757479    0.399079
      8          6           0       -0.767971    0.055176    1.738309
      9          6           0       -1.004251   -0.876593    2.929201
     10          6           0       -0.175135   -2.122122    2.618489
     11          6           0       -0.568183   -2.480272    1.198225
     12          6           0        0.219891   -3.215515    0.309239
     13          6           0        1.682422   -3.318944    0.450114
     14          8           0        0.696760   -0.588818   -0.094562
     15         26           0        2.150891    0.647724   -0.343168
     16         17           0        2.632176    1.569339    1.617894
     17          6           0       -0.381303   -3.799780   -0.920682
     18         17           0        1.555578    2.119765   -1.878418
     19         17           0        3.804591   -0.658624   -1.057286
     20          1           0       -0.260688   -0.358600   -2.264733
     21          1           0       -2.023535   -0.367354   -4.006967
     22          1           0       -4.406537   -0.762919   -3.375606
     23          1           0       -4.999185   -1.137263   -0.979062
     24          1           0       -3.251428   -1.136739    0.747788
     25          1           0        0.182379    0.582350    1.886274
     26          6           0       -1.840552    1.130926    1.597128
     27          1           0       -0.711493   -0.394323    3.870169
     28          1           0       -2.071324   -1.125735    3.011672
     29          1           0        0.896582   -1.897332    2.692506
     30          1           0       -0.394996   -2.952858    3.304698
     31          1           0       -1.638158   -2.670494    1.094223
     32          1           0       -1.453984   -3.606785   -1.013157
     33          1           0        0.143265   -3.407526   -1.808069
     34          1           0       -0.206326   -4.888158   -0.922220
     35          1           0        2.101884   -4.140785   -0.142048
     36          1           0        2.099879   -2.375025    0.036152
     37          1           0        2.019895   -3.381112    1.490271
     38          8           0       -1.422887    2.110554    0.785905
     39          8           0       -2.913862    1.116867    2.165245
     40          6           0       -2.344671    3.214520    0.557953
     41          6           0       -1.631904    4.234088   -0.306055
     42          1           0       -3.244660    2.810004    0.074474
     43          1           0       -2.637175    3.622285    1.534651
     44          1           0       -2.311196    5.075144   -0.507407
     45          1           0       -0.737267    4.620973    0.199761
     46          1           0       -1.322075    3.793906   -1.262740
 ---------------------------------------------------------------------

 SCF Done:  E(UB3LYP) =  -3531.44725252     A.U. after   15 cycles

 The electronic state is 6-A.
 Alpha  occ. eigenvalues -- -256.20562-101.52296-101.52165-101.52132 -30.19974
 Alpha  occ. eigenvalues --  -26.05292 -26.05211 -26.05107 -19.20443 -19.16820
 Alpha  occ. eigenvalues --  -19.15441 -10.33114 -10.31738 -10.27883 -10.24889
 Alpha  occ. eigenvalues --  -10.22381 -10.22132 -10.21674 -10.20922 -10.20708
 Alpha  occ. eigenvalues --  -10.20552 -10.20472 -10.20415 -10.20409 -10.20387
 Alpha  occ. eigenvalues --  -10.20329 -10.19934 -10.18629  -9.44019  -9.43898
 Alpha  occ. eigenvalues --   -9.43859  -7.19882  -7.19764  -7.19727  -7.19570
 Alpha  occ. eigenvalues --   -7.19558  -7.19447  -7.19437  -7.19403  -7.19394
 Alpha  occ. eigenvalues --   -3.67656  -2.45184  -2.45002  -2.44811  -1.12323
 Alpha  occ. eigenvalues --   -1.06062  -1.03796  -0.88183  -0.87072  -0.83846
 Alpha  occ. eigenvalues --   -0.80242  -0.79525  -0.79429  -0.78967  -0.77922
 Alpha  occ. eigenvalues --   -0.76213  -0.75116  -0.72913  -0.71076  -0.66440
 Alpha  occ. eigenvalues --   -0.64374  -0.62237  -0.61490  -0.59477  -0.57247
 Alpha  occ. eigenvalues --   -0.56403  -0.54558  -0.52820  -0.51381  -0.50706
 Alpha  occ. eigenvalues --   -0.49959  -0.49312  -0.48822  -0.48073  -0.47862
 Alpha  occ. eigenvalues --   -0.47817  -0.47556  -0.46888  -0.46846  -0.45886
 Alpha  occ. eigenvalues --   -0.45018  -0.44625  -0.44252  -0.43326  -0.42638
 Alpha  occ. eigenvalues --   -0.42372  -0.41669  -0.41036  -0.40130  -0.40027
 Alpha  occ. eigenvalues --   -0.39640  -0.38683  -0.37745  -0.37462  -0.37290
 Alpha  occ. eigenvalues --   -0.37128  -0.36899  -0.36249  -0.35883  -0.35708
 Alpha  occ. eigenvalues --   -0.35045  -0.34448  -0.34035  -0.32067  -0.31933
 Alpha  occ. eigenvalues --   -0.31088  -0.31043  -0.30821  -0.30276  -0.29934
 Alpha  occ. eigenvalues --   -0.29774  -0.28953  -0.28511  -0.27005  -0.26236
 Alpha virt. eigenvalues --   -0.11922  -0.03571  -0.02882  -0.01531  -0.01171
 Alpha virt. eigenvalues --   -0.00181  -0.00055   0.00035   0.01452   0.01638
 Alpha virt. eigenvalues --    0.01831   0.01990   0.02321   0.03592   0.03798

  Beta  occ. eigenvalues -- -256.20378-101.52118-101.51985-101.51961 -30.11029
  Beta  occ. eigenvalues --  -25.97777 -25.97754 -25.97712 -19.20443 -19.16237
  Beta  occ. eigenvalues --  -19.15439 -10.33114 -10.31736 -10.27843 -10.24889
  Beta  occ. eigenvalues --  -10.22355 -10.22118 -10.21652 -10.20924 -10.20709
  Beta  occ. eigenvalues --  -10.20554 -10.20470 -10.20418 -10.20412 -10.20388
  Beta  occ. eigenvalues --  -10.20329 -10.19934 -10.18628  -9.43844  -9.43721
  Beta  occ. eigenvalues --   -9.43691  -7.19585  -7.19468  -7.19433  -7.19332
  Beta  occ. eigenvalues --   -7.19320  -7.19201  -7.19196  -7.19180  -7.19170
  Beta  occ. eigenvalues --   -3.46801  -2.23082  -2.23020  -2.22961  -1.12321
  Beta  occ. eigenvalues --   -1.04931  -1.03793  -0.88061  -0.87039  -0.83789
  Beta  occ. eigenvalues --   -0.79103  -0.78963  -0.78288  -0.78214  -0.77837
  Beta  occ. eigenvalues --   -0.76208  -0.75089  -0.72902  -0.70978  -0.66287
  Beta  occ. eigenvalues --   -0.64287  -0.62197  -0.61431  -0.59173  -0.57033
  Beta  occ. eigenvalues --   -0.55989  -0.54408  -0.51871  -0.51361  -0.50373
  Beta  occ. eigenvalues --   -0.49928  -0.48715  -0.48359  -0.47529  -0.46838
  Beta  occ. eigenvalues --   -0.45714  -0.44738  -0.44247  -0.43353  -0.42627
  Beta  occ. eigenvalues --   -0.42333  -0.41757  -0.41003  -0.40078  -0.40036
  Beta  occ. eigenvalues --   -0.39614  -0.38603  -0.38064  -0.37503  -0.37242
  Beta  occ. eigenvalues --   -0.37115  -0.36984  -0.36253  -0.35911  -0.35877
  Beta  occ. eigenvalues --   -0.35805  -0.35744  -0.34959  -0.33179  -0.33128
  Beta  occ. eigenvalues --   -0.32498  -0.32183  -0.31905  -0.31594  -0.30166
  Beta  occ. eigenvalues --   -0.29664  -0.28899  -0.28631  -0.27011  -0.26201
  Beta virt. eigenvalues --   -0.14480  -0.14158  -0.13262  -0.13080  -0.12652
  Beta virt. eigenvalues --   -0.10914  -0.03528  -0.02865  -0.01423  -0.01137
  Beta virt. eigenvalues --   -0.00139  -0.00029   0.00066   0.01467   0.01661

 Mulliken charges and spin densities:
               1          2
     1  C   -0.263045  -0.002156
     2  C    3.040830   0.009503
     3  C   -0.785827  -0.009820
     4  C    0.045987   0.005285
     5  C    0.224406  -0.002679
     6  C    0.014742   0.002799
     7  C   -2.573473   0.004487
     8  C    1.008423   0.000245
     9  C    0.637531   0.000996
    10  C    0.724517   0.002218
    11  C    0.782135   0.009236
    12  C   -0.377591   0.031225
    13  C    0.072669  -0.007284
    14  O   -0.515976   0.172910
    15  Fe   0.596249   4.062146
    16  Cl  -0.521570   0.235273
    17  C    0.355804  -0.001224
    18  Cl  -0.482948   0.243829
    19  Cl  -0.505051   0.232891
    20  H   -0.205985   0.002680
    21  H   -0.156037  -0.000001
    22  H   -0.160423   0.000038
    23  H   -0.159129   0.000156
    24  H   -0.186494  -0.000049
    25  H   -0.236634   0.000488
    26  C    0.816265  -0.004452
    27  H   -0.170564   0.000354
    28  H   -0.058543  -0.000143
    29  H   -0.069806  -0.000167
    30  H   -0.143984   0.000502
    31  H   -0.205002  -0.000802
    32  H    0.027519   0.000050
    33  H    0.098679   0.001660
    34  H    0.016909   0.001461
    35  H    0.006250   0.000095
    36  H    0.160803   0.005390
    37  H    0.043303   0.000442
    38  O   -0.699361   0.001152
    39  O   -0.645573   0.001023
    40  C    0.444201   0.001044
    41  C    0.041151  -0.000734
    42  H   -0.031317   0.000008
    43  H   -0.038213   0.000022
    44  H   -0.008305   0.000005
    45  H    0.021078   0.000042
    46  H    0.021400  -0.000144
 Sum of Mulliken charges =  -0.00000   5.00000

 Dipole moment (field-independent basis, Debye):
    X=             -8.8587    Y=            -10.7550    Z=              1.1830  Tot=             13.9837
 Quadrupole moment (field-independent basis, Debye-Ang):
   XX=           -199.2194   YY=           -147.5829   ZZ=           -175.7446
   XY=             -8.5248   XZ=             14.1428   YZ=             -3.2694

 Normal termination of Gaussian 16 at Sun Jun 20 12:00:57 2021.
