 Gaussian 16, Revision A.03,

 -----------------------------------------------------------
 #p opt=modredundant freq=noraman ub3lyp jul-cc-pvdz pop=cm5
 -----------------------------------------------------------

 -----
 title
 -----
 Symbolic Z-matrix:
 Charge =  0 Multiplicity = 6

 SCF Done:  E(UB3LYP) =  -3531.41889076     A.U. after   25 cycles
 SCF Done:  E(UB3LYP) =  -3531.41786012     A.U. after   18 cycles
 SCF Done:  E(UB3LYP) =  -3531.41551616     A.U. after   19 cycles
 SCF Done:  E(UB3LYP) =  -3531.41521607     A.U. after   18 cycles
 SCF Done:  E(UB3LYP) =  -3531.41900848     A.U. after   12 cycles
 SCF Done:  E(UB3LYP) =  -3531.41904449     A.U. after   17 cycles
 SCF Done:  E(UB3LYP) =  -3531.41935345     A.U. after   15 cycles
 SCF Done:  E(UB3LYP) =  -3531.41950543     A.U. after   17 cycles
 SCF Done:  E(UB3LYP) =  -3531.41955101     A.U. after   15 cycles
 SCF Done:  E(UB3LYP) =  -3531.41955575     A.U. after   14 cycles
 SCF Done:  E(UB3LYP) =  -3531.41958755     A.U. after   11 cycles
 SCF Done:  E(UB3LYP) =  -3531.41958785     A.U. after   10 cycles
 SCF Done:  E(UB3LYP) =  -3531.41958814     A.U. after   11 cycles
 SCF Done:  E(UB3LYP) =  -3531.41958828     A.U. after   10 cycles
 SCF Done:  E(UB3LYP) =  -3531.41958845     A.U. after   10 cycles
 SCF Done:  E(UB3LYP) =  -3531.41958851     A.U. after    9 cycles
 SCF Done:  E(UB3LYP) =  -3531.41958855     A.U. after    8 cycles
 Optimization completed.
    -- Stationary point found.
 Normal termination of Gaussian 16 at Sun Jun 20 17:50:53 2021.

 ----------------------------------------------------------------------
 #P Geom=AllCheck Guess=TCheck SCRF=Check GenChk UB3LYP/Jul-CC-pVDZ Fre
 q
 ----------------------------------------------------------------------

 Structure from the checkpoint file:  "checkpoint.chk"
 -----
 title
 -----
 Charge =  0 Multiplicity = 6

 SCF Done:  E(UB3LYP) =  -3531.41958855     A.U. after    2 cycles

  Exact polarizability: 320.862  11.808 300.811  15.577   7.778 305.347
 Approx polarizability: 499.962  44.842 460.081  22.155   4.170 505.372

 ******    1 imaginary frequencies (negative Signs) ******

                      1                      2                      3
                      A                      A                      A
 Frequencies --    -35.0460                19.8757                21.4286
 Red. masses --      5.4552                 7.5743                 5.1792
 Frc consts  --      0.0039                 0.0018                 0.0014
 IR Inten    --      1.0442                 2.1463                 0.1963

                      4                      5                      6
                      A                      A                      A
 Frequencies --     32.7923                49.6218                52.3003
 Red. masses --      7.2828                 5.2894                 4.6472
 Frc consts  --      0.0046                 0.0077                 0.0075
 IR Inten    --      2.2347                 1.8923                 1.4807

                      7                      8                      9
                      A                      A                      A
 Frequencies --     54.7996                64.5765                80.6790
 Red. masses --      5.5021                 2.8314                10.7918
 Frc consts  --      0.0097                 0.0070                 0.0414
 IR Inten    --      3.1813                 2.9503                 0.4557

                     10                     11                     12
                      A                      A                      A
 Frequencies --     86.5978                91.6374                99.7326
 Red. masses --      5.7767                 6.6238                 5.4784
 Frc consts  --      0.0255                 0.0328                 0.0321
 IR Inten    --      2.8598                 3.8332                 1.5178

                     13                     14                     15
                      A                      A                      A
 Frequencies --    104.8890               114.6473               123.5704
 Red. masses --      5.6003                17.7107                10.9670
 Frc consts  --      0.0363                 0.1372                 0.0987
 IR Inten    --      0.8109                 0.9563                 2.5235

                     16                     17                     18
                      A                      A                      A
 Frequencies --    140.5540               144.2970               163.1957
 Red. masses --      3.0608                 3.1146                 1.9559
 Frc consts  --      0.0356                 0.0382                 0.0307
 IR Inten    --     14.1646                 0.5214                14.7737

                     19                     20                     21
                      A                      A                      A
 Frequencies --    169.5533               187.2006               196.5548
 Red. masses --      3.4900                 2.4456                 2.6893
 Frc consts  --      0.0591                 0.0505                 0.0612
 IR Inten    --     12.8967                 0.9353                 5.7469

                     22                     23                     24
                      A                      A                      A
 Frequencies --    204.8913               218.6262               231.9224
 Red. masses --      1.8995                 1.4468                 3.1629
 Frc consts  --      0.0470                 0.0407                 0.1002
 IR Inten    --      2.4577                 0.6866                11.7310

                     25                     26                     27
                      A                      A                      A
 Frequencies --    258.8632               263.7564               287.8526
 Red. masses --      1.7443                 4.0727                 3.9029
 Frc consts  --      0.0689                 0.1669                 0.1905
 IR Inten    --      4.1079                81.2545                 3.8106

                     28                     29                     30
                      A                      A                      A
 Frequencies --    317.5463               336.3041               351.0483
 Red. masses --      2.1763                17.6212                 6.3936
 Frc consts  --      0.1293                 1.1742                 0.4642
 IR Inten    --      0.2008                31.4384                 4.0737

                     31                     32                     33
                      A                      A                      A
 Frequencies --    371.8197               378.3547               394.3400
 Red. masses --      5.8375                 4.5589                33.3728
 Frc consts  --      0.4755                 0.3845                 3.0576
 IR Inten    --     25.7342                 9.8337                90.2999

                     34                     35                     36
                      A                      A                      A
 Frequencies --    398.0816               401.9311               411.4792
 Red. masses --     10.4743                 3.1697                 2.8806
 Frc consts  --      0.9780                 0.3017                 0.2874
 IR Inten    --     60.7477                27.4735                 1.2349

                     37                     38                     39
                      A                      A                      A
 Frequencies --    423.9119               456.8660               477.7442
 Red. masses --      3.6340                 4.0618                 3.3032
 Frc consts  --      0.3848                 0.4995                 0.4442
 IR Inten    --     40.7053                 0.4904                12.2639

                     40                     41                     42
                      A                      A                      A
 Frequencies --    508.4927               525.2301               558.8828
 Red. masses --      3.3117                 2.8463                 2.9471
 Frc consts  --      0.5045                 0.4626                 0.5424
 IR Inten    --     13.2823                 8.7813                25.1434

                     43                     44                     45
                      A                      A                      A
 Frequencies --    586.0138               623.9912               643.5552
 Red. masses --      3.9435                 6.1849                 4.1274
 Frc consts  --      0.7979                 1.4189                 1.0071
 IR Inten    --     73.2022                10.9488                96.0434

                     46                     47                     48
                      A                      A                      A
 Frequencies --    689.5730               699.3144               752.9792
 Red. masses --      1.6059                 6.1771                 4.4883
 Frc consts  --      0.4499                 1.7798                 1.4993
 IR Inten    --     57.4996                15.6276                 8.6981

                     49                     50                     51
                      A                      A                      A
 Frequencies --    768.9999               784.0781               803.3912
 Red. masses --      2.3276                 2.2808                 1.3115
 Frc consts  --      0.8110                 0.8262                 0.4987
 IR Inten    --     17.5259                10.5303                 3.8807

                     52                     53                     54
                      A                      A                      A
 Frequencies --    820.4784               841.5748               847.6597
 Red. masses --      3.0780                 1.2563                 1.4503
 Frc consts  --      1.2208                 0.5243                 0.6140
 IR Inten    --     16.8838                 1.1938                19.1738

                     55                     56                     57
                      A                      A                      A
 Frequencies --    863.8652               892.3498               915.2586
 Red. masses --      2.7297                 1.9861                 2.1228
 Frc consts  --      1.2002                 0.9318                 1.0477
 IR Inten    --     32.9040                 4.7303                15.6217

                     58                     59                     60
                      A                      A                      A
 Frequencies --    947.1523               947.9558               966.3370
 Red. masses --      1.3175                 1.3800                 3.6688
 Frc consts  --      0.6964                 0.7306                 2.0185
 IR Inten    --      6.6586                 1.2588                28.3996

                     61                     62                     63
                      A                      A                      A
 Frequencies --    986.0420               990.5841               995.5551
 Red. masses --      2.3187                 1.4975                 1.4005
 Frc consts  --      1.3283                 0.8658                 0.8178
 IR Inten    --     24.8619                 7.8159                 4.1364

                     64                     65                     66
                      A                      A                      A
 Frequencies --   1002.9595              1007.3093              1010.0231
 Red. masses --      3.5342                 2.0218                 1.4658
 Frc consts  --      2.0946                 1.2087                 0.8810
 IR Inten    --      2.1982                 4.3260                 1.0015

                     67                     68                     69
                      A                      A                      A
 Frequencies --   1036.0842              1046.5133              1071.2732
 Red. masses --      2.6741                 2.4787                 2.3480
 Frc consts  --      1.6913                 1.5994                 1.5877
 IR Inten    --     41.8422                 3.5969                 7.7769

                     70                     71                     72
                      A                      A                      A
 Frequencies --   1088.8562              1094.3192              1114.0414
 Red. masses --      1.8590                 1.9265                 1.5639
 Frc consts  --      1.2986                 1.3593                 1.1436
 IR Inten    --     21.1229                20.9130                 9.6882

                     73                     74                     75
                      A                      A                      A
 Frequencies --   1133.1381              1136.3985              1161.3530
 Red. masses --      2.1346                 2.1675                 1.6980
 Frc consts  --      1.6148                 1.6492                 1.3493
 IR Inten    --     13.2342                10.7848                71.7622

                     76                     77                     78
                      A                      A                      A
 Frequencies --   1170.1719              1177.9237              1200.7711
 Red. masses --      1.5645                 1.0854                 1.3895
 Frc consts  --      1.2622                 0.8873                 1.1804
 IR Inten    --      2.3396                 1.4727                46.1954

                     79                     80                     81
                      A                      A                      A
 Frequencies --   1207.7690              1223.4729              1253.8690
 Red. masses --      1.4074                 2.0482                 1.9625
 Frc consts  --      1.2095                 1.8064                 1.8179
 IR Inten    --     57.4554               111.7000                33.0571

                     82                     83                     84
                      A                      A                      A
 Frequencies --   1266.5250              1285.9903              1319.9831
 Red. masses --      2.5973                 1.1190                 1.4217
 Frc consts  --      2.4547                 1.0903                 1.4594
 IR Inten    --    144.1445                 0.4567                28.1298

                     85                     86                     87
                      A                      A                      A
 Frequencies --   1323.1884              1332.9103              1337.5037
 Red. masses --      1.5462                 1.5628                 1.6759
 Frc consts  --      1.5950                 1.6359                 1.7664
 IR Inten    --    134.7729                57.5961                48.4003

                     88                     89                     90
                      A                      A                      A
 Frequencies --   1360.3712              1366.8591              1371.9671
 Red. masses --      1.4883                 3.2734                 1.3608
 Frc consts  --      1.6228                 3.6033                 1.5092
 IR Inten    --      9.8738                13.1883                12.0037

                     91                     92                     93
                      A                      A                      A
 Frequencies --   1382.1855              1399.2768              1407.5688
 Red. masses --      1.3782                 1.3305                 1.3640
 Frc consts  --      1.5513                 1.5349                 1.5923
 IR Inten    --     27.7670                12.8333                16.5196

                     94                     95                     96
                      A                      A                      A
 Frequencies --   1415.9150              1442.6187              1461.9369
 Red. masses --      1.4093                 2.6487                 1.1281
 Frc consts  --      1.6647                 3.2478                 1.4206
 IR Inten    --     18.9938               347.2177                11.5143

                     97                     98                     99
                      A                      A                      A
 Frequencies --   1471.2991              1473.4262              1474.8781
 Red. masses --      1.0714                 1.0389                 1.0756
 Frc consts  --      1.3664                 1.3289                 1.3785
 IR Inten    --     10.5614                 6.1227                 6.5936

                    100                    101                    102
                      A                      A                      A
 Frequencies --   1480.2028              1486.9326              1487.6804
 Red. masses --      1.4013                 1.1141                 1.4913
 Frc consts  --      1.8089                 1.4513                 1.9446
 IR Inten    --     47.4438                37.9657               174.2824

                    103                    104                    105
                      A                      A                      A
 Frequencies --   1493.6333              1503.8495              1505.5032
 Red. masses --      1.1812                 1.1140                 1.0843
 Frc consts  --      1.5526                 1.4844                 1.4480
 IR Inten    --     25.9802                29.6823                 9.1116

                    106                    107                    108
                      A                      A                      A
 Frequencies --   1517.1873              1616.8808              1639.4196
 Red. masses --      2.0077                 5.3873                 5.6259
 Frc consts  --      2.7229                 8.2980                 8.9089
 IR Inten    --      5.8517                 4.9840                48.3261

                    109                    110                    111
                      A                      A                      A
 Frequencies --   1671.1710              1767.5837              3018.5229
 Red. masses --      5.9764                11.4975                 1.0481
 Frc consts  --      9.8340                21.1648                 5.6264
 IR Inten    --    127.7975               227.4078                 3.0251

                    112                    113                    114
                      A                      A                      A
 Frequencies --   3024.3043              3042.2707              3042.5495
 Red. masses --      1.0464                 1.0640                 1.0365
 Frc consts  --      5.6390                 5.8021                 5.6532
 IR Inten    --      9.8832                32.2706                14.5579

                    115                    116                    117
                      A                      A                      A
 Frequencies --   3061.8259              3066.2062              3081.8041
 Red. masses --      1.0587                 1.0662                 1.0853
 Frc consts  --      5.8476                 5.9059                 6.0729
 IR Inten    --     13.7802                31.9835                 0.0678

                    118                    119                    120
                      A                      A                      A
 Frequencies --   3087.8335              3092.6926              3109.9034
 Red. masses --      1.0899                 1.0982                 1.1065
 Frc consts  --      6.1228                 6.1888                 6.3051
 IR Inten    --      6.5510                 4.2266                 8.9387

                    121                    122                    123
                      A                      A                      A
 Frequencies --   3110.9818              3118.7605              3125.0739
 Red. masses --      1.0829                 1.1020                 1.0980
 Frc consts  --      6.1748                 6.3153                 6.3177
 IR Inten    --      0.9658                16.3238                15.2394

                    124                    125                    126
                      A                      A                      A
 Frequencies --   3135.9547              3140.5341              3152.1139
 Red. masses --      1.1036                 1.1047                 1.0882
 Frc consts  --      6.3946                 6.4194                 6.3705
 IR Inten    --      5.4122                14.2071                14.3915

                    127                    128                    129
                      A                      A                      A
 Frequencies --   3159.1891              3175.1134              3188.9491
 Red. masses --      1.1024                 1.0864                 1.0914
 Frc consts  --      6.4827                 6.4527                 6.5392
 IR Inten    --      7.3050                 0.6283                 6.3795

                    130                    131                    132
                      A                      A                      A
 Frequencies --   3197.6298              3232.1949              3244.8947
 Red. masses --      1.0970                 1.0924                 1.0917
 Frc consts  --      6.6085                 6.7240                 6.7724
 IR Inten    --     11.7938                 1.3668                 2.3128

 - Thermochemistry -
 -------------------
 Temperature   298.150 Kelvin.  Pressure   1.00000 Atm.
 Atom     1 has atomic number  6 and mass  12.00000

 Molecular mass:   434.99839 amu.
 Principal axes and moments of inertia in atomic units:
                           1         2         3
     Eigenvalues --  9259.91503********************
           X            0.99795  -0.06256   0.01325
           Y            0.06210   0.99753   0.03271
           Z           -0.01526  -0.03182   0.99938
 This molecule is an asymmetric top.
 Rotational symmetry number  1.
 Warning -- assumption of classical behavior for rotation
           may cause significant error
 Rotational temperatures (Kelvin)      0.00935     0.00793     0.00683
 Rotational constants (GHZ):           0.19490     0.16526     0.14238
    1 imaginary frequencies ignored.
 Zero-point vibrational energy     944769.7 (Joules/Mol)
                                  225.80537 (Kcal/Mol)
 Warning -- explicit consideration of  42 degrees of freedom as
           vibrations may cause significant error
 Vibrational temperatures:     28.60    30.83    47.18    71.39    75.25
          (Kelvin)             78.84    92.91   116.08   124.59   131.85
                              143.49   150.91   164.95   177.79   202.23
                              207.61   234.80   243.95   269.34   282.80
                              294.79   314.55   333.68   372.45   379.49
                              414.16   456.88   483.87   505.08   534.97
                              544.37   567.37   572.75   578.29   592.03
                              609.91   657.33   687.37   731.61   755.69
                              804.11   843.14   897.78   925.93   992.14
                             1006.16  1083.37  1106.42  1128.11  1155.90
                             1180.49  1210.84  1219.59  1242.91  1283.89
                             1316.85  1362.74  1363.90  1390.34  1418.69
                             1425.23  1432.38  1443.04  1449.29  1453.20
                             1490.69  1505.70  1541.32  1566.62  1574.48
                             1602.86  1630.33  1635.02  1670.93  1683.62
                             1694.77  1727.64  1737.71  1760.30  1804.04
                             1822.25  1850.25  1899.16  1903.77  1917.76
                             1924.37  1957.27  1966.61  1973.95  1988.66
                             2013.25  2025.18  2037.19  2075.61  2103.40
                             2116.87  2119.93  2122.02  2129.68  2139.36
                             2140.44  2149.01  2163.70  2166.08  2182.89
                             2326.33  2358.76  2404.44  2543.16  4342.98
                             4351.30  4377.15  4377.55  4405.28  4411.59
                             4434.03  4442.70  4449.69  4474.46  4476.01
                             4487.20  4496.28  4511.94  4518.53  4535.19
                             4545.37  4568.28  4588.19  4600.68  4650.41
                             4668.68

 Zero-point correction=                           0.359844 (Hartree/Particle)
 Thermal correction to Energy=                    0.387150
 Thermal correction to Enthalpy=                  0.388094
 Thermal correction to Gibbs Free Energy=         0.297750
 Sum of electronic and zero-point Energies=          -3531.059745
 Sum of electronic and thermal Energies=             -3531.032439
 Sum of electronic and thermal Enthalpies=           -3531.031495
 Sum of electronic and thermal Free Energies=        -3531.121839

                     E (Thermal)             CV                S
                      KCal/Mol        Cal/Mol-Kelvin    Cal/Mol-Kelvin
 Total                  242.940             97.532            190.145
 Electronic               0.000              0.000              3.561
 Translational            0.889              2.981             44.100
 Rotational               0.889              2.981             35.504
 Vibrational            241.163             91.570            106.980
 Vibration     1          0.593              1.986              6.647
 Vibration     2          0.593              1.985              6.497
 Vibration     3          0.594              1.983              5.653
 Vibration     4          0.595              1.978              4.832
 Vibration     5          0.596              1.977              4.728
 Vibration     6          0.596              1.976              4.636
 Vibration     7          0.597              1.971              4.312
 Vibration     8          0.600              1.962              3.874
 Vibration     9          0.601              1.959              3.735
 Vibration    10          0.602              1.955              3.625
 Vibration    11          0.604              1.949              3.460
 Vibration    12          0.605              1.945              3.361
 Vibration    13          0.608              1.937              3.189
 Vibration    14          0.610              1.929              3.044
 Vibration    15          0.615              1.913              2.796
 Vibration    16          0.616              1.909              2.746
 Vibration    17          0.623              1.888              2.512
 Vibration    18          0.625              1.880              2.440
 Vibration    19          0.632              1.857              2.255
 Vibration    20          0.636              1.845              2.165
 Vibration    21          0.640              1.833              2.089
 Vibration    22          0.646              1.813              1.970
 Vibration    23          0.653              1.792              1.864
 Vibration    24          0.668              1.748              1.669
 Vibration    25          0.670              1.739              1.637
 Vibration    26          0.685              1.696              1.487
 Vibration    27          0.704              1.640              1.323
 Vibration    28          0.717              1.603              1.230
 Vibration    29          0.728              1.573              1.161
 Vibration    30          0.744              1.530              1.072
 Vibration    31          0.749              1.516              1.046
 Vibration    32          0.761              1.482              0.984
 Vibration    33          0.764              1.474              0.970
 Vibration    34          0.768              1.466              0.956
 Vibration    35          0.775              1.445              0.921
 Vibration    36          0.786              1.418              0.879
 Vibration    37          0.815              1.346              0.775
 Vibration    38          0.834              1.299              0.716
 Vibration    39          0.864              1.231              0.637
 Vibration    40          0.880              1.194              0.598
 Vibration    41          0.914              1.120              0.526
 Vibration    42          0.943              1.062              0.474

 Optimization completed.
    -- Stationary point found.
 Normal termination of Gaussian 16 at Sun Jun 20 23:25:12 2021.

 ----------------------------------------------------------------------
 #p ub3lyp jul-cc-pvdz pop=cm5 scrf=(pcm,solvent=dichloroethane) guess=
 read geom=allcheck
 ----------------------------------------------------------------------

 Structure from the checkpoint file:  "checkpoint.chk"
 -----
 title
 -----
 Charge =  0 Multiplicity = 6

 SCF Done:  E(UB3LYP) =  -3531.43724687     A.U. after   18 cycles
 Normal termination of Gaussian 16 at Sun Jun 20 23:54:36 2021.
 Gaussian 16:  ES64L-G16RevA.03 25-Dec-2016

 ----------------------------------------------------------------------
 #p ub3lyp jul-cc-pvdz pop=cm5 scrf=(pcm,solvent=water) guess=read geom
 =allcheck
 ----------------------------------------------------------------------

 Structure from the checkpoint file:  "checkpoint.chk"
 -----
 title
 -----
 Charge =  0 Multiplicity = 6

                         Standard orientation:
 ---------------------------------------------------------------------
 Center     Atomic      Atomic             Coordinates (Angstroms)
 Number     Number       Type             X           Y           Z
 ---------------------------------------------------------------------
      1          6           0        3.168099    0.187253    0.636919
      2          6           0        1.872282   -0.362187    0.743315
      3          6           0        1.487070   -0.958407    1.964040
      4          6           0        2.373329   -1.016357    3.036487
      5          6           0        3.659619   -0.480299    2.912323
      6          6           0        4.050786    0.125598    1.712473
      7          6           0        0.880590   -0.300201   -0.353141
      8          6           0        1.023852    0.663798   -1.550875
      9          6           0        2.085737    0.269942   -2.593146
     10          6           0        1.887934   -1.200915   -2.998609
     11          6           0        1.737382   -2.043171   -1.763093
     12          6           0        0.587426   -2.604989   -1.309117
     13          6           0       -0.701061   -2.605642   -2.084288
     14          8           0       -0.267773   -0.812955   -0.148406
     15         26           0       -2.068272   -0.269437    0.427853
     16         17           0       -3.050998    0.648589   -1.321744
     17          6           0        0.607030   -3.509152   -0.112054
     18         17           0       -1.806401    1.088181    2.148127
     19         17           0       -3.009492   -2.171421    1.049901
     20          1           0        0.480210   -1.353159    2.071434
     21          1           0        2.055662   -1.470784    3.975302
     22          1           0        4.353543   -0.523650    3.753405
     23          1           0        5.046558    0.559510    1.616820
     24          1           0        3.487303    0.684409   -0.273504
     25          1           0        0.033239    0.642201   -2.022246
     26          6           0        1.233899    2.108265   -1.060770
     27          1           0        1.989426    0.939075   -3.459427
     28          1           0        3.093653    0.429690   -2.194867
     29          1           0        1.010239   -1.293112   -3.650776
     30          1           0        2.755248   -1.536104   -3.586899
     31          1           0        2.650933   -2.227857   -1.194067
     32          1           0        1.569546   -3.491263    0.412409
     33          1           0       -0.204878   -3.267454    0.586464
     34          1           0        0.423537   -4.541783   -0.452397
     35          1           0       -0.689902   -3.484300   -2.751599
     36          1           0       -1.566905   -2.715902   -1.422308
     37          1           0       -0.848452   -1.718817   -2.707368
     38          8           0        0.082647    2.626752   -0.627414
     39          8           0        2.294653    2.695941   -1.089886
     40          6           0        0.122542    3.998644   -0.126545
     41          6           0       -1.306010    4.452914    0.085797
     42          1           0        0.703625    3.993995    0.805745
     43          1           0        0.657382    4.612420   -0.862574
     44          1           0       -1.300084    5.482293    0.472715
     45          1           0       -1.866802    4.439257   -0.858574
     46          1           0       -1.820123    3.807264    0.808666
 ---------------------------------------------------------------------

 SCF Done:  E(UB3LYP) =  -3531.44058089     A.U. after   17 cycles

 The electronic state is 6-A.
 Alpha  occ. eigenvalues -- -256.21023-101.52483-101.52473-101.52450 -30.20384
 Alpha  occ. eigenvalues --  -26.05770 -26.05586 -26.05504 -19.20935 -19.18427
 Alpha  occ. eigenvalues --  -19.15972 -10.33930 -10.33596 -10.25084 -10.23253
 Alpha  occ. eigenvalues --  -10.22823 -10.22714 -10.21791 -10.21784 -10.21697
 Alpha  occ. eigenvalues --  -10.21097 -10.21058 -10.20534 -10.19664 -10.19330
 Alpha  occ. eigenvalues --  -10.18883 -10.18812 -10.18607  -9.44198  -9.44196
 Alpha  occ. eigenvalues --   -9.44167  -7.20068  -7.20063  -7.20033  -7.19751
 Alpha  occ. eigenvalues --   -7.19743  -7.19737  -7.19736  -7.19716  -7.19710
 Alpha  occ. eigenvalues --   -3.68058  -2.45681  -2.45346  -2.45184  -1.12864
 Alpha  occ. eigenvalues --   -1.09271  -1.04366  -0.88494  -0.85464  -0.82969
 Alpha  occ. eigenvalues --   -0.80503  -0.79748  -0.79729  -0.78875  -0.78668
 Alpha  occ. eigenvalues --   -0.77149  -0.74993  -0.70778  -0.70074  -0.67101
 Alpha  occ. eigenvalues --   -0.64783  -0.62836  -0.61741  -0.59880  -0.57696
 Alpha  occ. eigenvalues --   -0.56181  -0.53665  -0.53221  -0.51908  -0.50716
 Alpha  occ. eigenvalues --   -0.50341  -0.49294  -0.49197  -0.48351  -0.48228
 Alpha  occ. eigenvalues --   -0.47901  -0.47413  -0.47042  -0.47029  -0.45776
 Alpha  occ. eigenvalues --   -0.45587  -0.45153  -0.44116  -0.43104  -0.42585
 Alpha  occ. eigenvalues --   -0.42330  -0.40814  -0.40572  -0.40045  -0.39826
 Alpha  occ. eigenvalues --   -0.38971  -0.38374  -0.37950  -0.37779  -0.37523
 Alpha  occ. eigenvalues --   -0.37459  -0.37138  -0.36545  -0.36158  -0.35193
 Alpha  occ. eigenvalues --   -0.34764  -0.34154  -0.33845  -0.32422  -0.32142
 Alpha  occ. eigenvalues --   -0.31346  -0.31280  -0.31054  -0.30938  -0.30217
 Alpha  occ. eigenvalues --   -0.29876  -0.29594  -0.28609  -0.27787  -0.24679
 Alpha virt. eigenvalues --   -0.11327  -0.03420  -0.02268  -0.01710  -0.01182
 Alpha virt. eigenvalues --   -0.00133   0.00019   0.00077   0.00974   0.01553
 Alpha virt. eigenvalues --    0.01692   0.01971   0.02434   0.02801   0.03189

  Beta  occ. eigenvalues -- -256.20838-101.52293-101.52290-101.52265 -30.11465
  Beta  occ. eigenvalues --  -25.98233 -25.98187 -25.98139 -19.20934 -19.18010
  Beta  occ. eigenvalues --  -19.15970 -10.33929 -10.33583 -10.25084 -10.23242
  Beta  occ. eigenvalues --  -10.22792 -10.22697 -10.21793 -10.21786 -10.21701
  Beta  occ. eigenvalues --  -10.21094 -10.21057 -10.20529 -10.19667 -10.19266
  Beta  occ. eigenvalues --  -10.18884 -10.18812 -10.18606  -9.44017  -9.44012
  Beta  occ. eigenvalues --   -9.43985  -7.19760  -7.19759  -7.19733  -7.19498
  Beta  occ. eigenvalues --   -7.19494  -7.19491  -7.19480  -7.19468  -7.19457
  Beta  occ. eigenvalues --   -3.47253  -2.23530  -2.23473  -2.23425  -1.12860
  Beta  occ. eigenvalues --   -1.08465  -1.04363  -0.88462  -0.85373  -0.82897
  Beta  occ. eigenvalues --   -0.79304  -0.78840  -0.78671  -0.78444  -0.78411
  Beta  occ. eigenvalues --   -0.77147  -0.74953  -0.70747  -0.69952  -0.66992
  Beta  occ. eigenvalues --   -0.64735  -0.62809  -0.61654  -0.59475  -0.57506
  Beta  occ. eigenvalues --   -0.55647  -0.53435  -0.52731  -0.51841  -0.50504
  Beta  occ. eigenvalues --   -0.49698  -0.49010  -0.48401  -0.47381  -0.47025
  Beta  occ. eigenvalues --   -0.45768  -0.45282  -0.44123  -0.43131  -0.42578
  Beta  occ. eigenvalues --   -0.42285  -0.40804  -0.40561  -0.40060  -0.39805
  Beta  occ. eigenvalues --   -0.38793  -0.38411  -0.38170  -0.37912  -0.37713
  Beta  occ. eigenvalues --   -0.37435  -0.37130  -0.36550  -0.36200  -0.36121
  Beta  occ. eigenvalues --   -0.36070  -0.35165  -0.33953  -0.33504  -0.33200
  Beta  occ. eigenvalues --   -0.32659  -0.32607  -0.32220  -0.31309  -0.30640
  Beta  occ. eigenvalues --   -0.29781  -0.29597  -0.28838  -0.27790  -0.24541
  Beta virt. eigenvalues --   -0.15098  -0.14605  -0.13920  -0.13422  -0.13363
  Beta virt. eigenvalues --   -0.10404  -0.03408  -0.02231  -0.01617  -0.01078
  Beta virt. eigenvalues --   -0.00094   0.00061   0.00115   0.01149   0.01574

 Mulliken charges and spin densities:
               1          2
     1  C    0.171070  -0.000932
     2  C    3.028028  -0.007812
     3  C   -0.621902  -0.009710
     4  C    0.098875   0.004579
     5  C    0.292358  -0.000239
     6  C   -0.129147   0.002539
     7  C   -2.291053  -0.001757
     8  C    0.419770   0.014884
     9  C    0.531415   0.005735
    10  C    0.623481  -0.004331
    11  C    0.275914   0.044959
    12  C   -0.136184   0.016299
    13  C    0.231728  -0.000369
    14  O   -0.387428   0.121599
    15  Fe   0.698601   4.057249
    16  Cl  -0.524697   0.246172
    17  C    0.307362  -0.001038
    18  Cl  -0.493221   0.253011
    19  Cl  -0.493727   0.250511
    20  H   -0.261433  -0.000029
    21  H   -0.158013   0.000000
    22  H   -0.148095   0.000023
    23  H   -0.153307   0.000119
    24  H   -0.216710  -0.000096
    25  H   -0.176431  -0.001105
    26  C    0.794985   0.002650
    27  H   -0.127199   0.000235
    28  H   -0.017919  -0.000037
    29  H   -0.082242   0.000097
    30  H   -0.116947   0.001820
    31  H   -0.266664  -0.001684
    32  H   -0.009946   0.000086
    33  H    0.058128   0.000746
    34  H   -0.022961   0.001465
    35  H   -0.005228   0.001343
    36  H    0.043316   0.001471
    37  H    0.049262  -0.000155
    38  O   -0.658464   0.002141
    39  O   -0.573458   0.000847
    40  C    0.427348   0.000661
    41  C    0.042985  -0.001552
    42  H   -0.032220   0.000001
    43  H   -0.036882   0.000022
    44  H   -0.008382   0.000064
    45  H    0.026573   0.000054
    46  H    0.028661  -0.000538
 Sum of Mulliken charges =  -0.00000   5.00000

 Dipole moment (field-independent basis, Debye):
    X=             10.4309    Y=             -1.7273    Z=             -2.3026  Tot=             10.8208
 Quadrupole moment (field-independent basis, Debye-Ang):
   XX=           -189.0589   YY=           -167.4204   ZZ=           -166.8509
   XY=            -11.3525   XZ=              9.9293   YZ=              3.6225

 Normal termination of Gaussian 16 at Mon Jun 21 00:21:55 2021.
