 Gaussian 16, Revision A.03,

 -----------------------------------------------------------
 #p opt=modredundant freq=noraman ub3lyp jul-cc-pvdz pop=cm5
 -----------------------------------------------------------

 -----
 title
 -----
 Symbolic Z-matrix:
 Charge =  0 Multiplicity = 6

 SCF Done:  E(UB3LYP) =  -3531.40677230     A.U. after   25 cycles
 SCF Done:  E(UB3LYP) =  -3531.40682156     A.U. after   18 cycles
 SCF Done:  E(UB3LYP) =  -3531.40668420     A.U. after   16 cycles
 SCF Done:  E(UB3LYP) =  -3531.40722257     A.U. after   18 cycles
 SCF Done:  E(UB3LYP) =  -3531.40783640     A.U. after   16 cycles
 SCF Done:  E(UB3LYP) =  -3531.40808812     A.U. after   15 cycles
 SCF Done:  E(UB3LYP) =  -3531.40881154     A.U. after   24 cycles
 SCF Done:  E(UB3LYP) =  -3531.40766670     A.U. after   25 cycles
 SCF Done:  E(UB3LYP) =  -3531.41051005     A.U. after   18 cycles
 SCF Done:  E(UB3LYP) =  -3531.41020978     A.U. after   24 cycles
 SCF Done:  E(UB3LYP) =  -3531.41851853     A.U. after   11 cycles
 SCF Done:  E(UB3LYP) =  -3531.41851969     A.U. after   11 cycles
 SCF Done:  E(UB3LYP) =  -3531.41852000     A.U. after   11 cycles
 SCF Done:  E(UB3LYP) =  -3531.41852027     A.U. after   12 cycles
 SCF Done:  E(UB3LYP) =  -3531.41852029     A.U. after   11 cycles
 SCF Done:  E(UB3LYP) =  -3531.41852036     A.U. after   10 cycles
 SCF Done:  E(UB3LYP) =  -3531.41852045     A.U. after    9 cycles
 Optimization completed.
    -- Stationary point found.
 Normal termination of Gaussian 16 at Sun Jun 20 10:38:38 2021.

 ----------------------------------------------------------------------
 #P Geom=AllCheck Guess=TCheck SCRF=Check GenChk UB3LYP/Jul-CC-pVDZ Fre
 q
 ----------------------------------------------------------------------

 Structure from the checkpoint file:  "checkpoint.chk"
 -----
 title
 -----
 Charge =  0 Multiplicity = 6

 SCF Done:  E(UB3LYP) =  -3531.41852045     A.U. after    2 cycles

  Exact polarizability: 320.593   6.449 299.937  14.117   5.345 287.147
 Approx polarizability: 477.936   9.847 465.012   4.705  17.721 480.135

 ******    1 imaginary frequencies (negative Signs) ******

                      1                      2                      3
                      A                      A                      A
 Frequencies --    -48.2819                 7.6531                13.9912
 Red. masses --      6.0344                 7.2369                 5.8977
 Frc consts  --      0.0083                 0.0002                 0.0007
 IR Inten    --    116.3782                 3.3457                 9.8365

                      4                      5                      6
                      A                      A                      A
 Frequencies --     27.8615                34.2010                48.4230
 Red. masses --      3.6352                 8.3579                 6.1902
 Frc consts  --      0.0017                 0.0058                 0.0086
 IR Inten    --      1.4542                 0.7180                 5.4036

                      7                      8                      9
                      A                      A                      A
 Frequencies --     60.5295                68.7529                72.0687
 Red. masses --      4.5641                 1.4714                 2.6308
 Frc consts  --      0.0099                 0.0041                 0.0081
 IR Inten    --     30.6287                 2.3034                 1.6796

                     10                     11                     12
                      A                      A                      A
 Frequencies --     77.3509                86.3801                93.6869
 Red. masses --      4.1608                 9.1554                 9.5239
 Frc consts  --      0.0147                 0.0402                 0.0493
 IR Inten    --     10.0672                 0.1787                 2.6259

                     13                     14                     15
                      A                      A                      A
 Frequencies --    104.9969               109.3322               115.3955
 Red. masses --      4.4253                 3.4614                 6.8850
 Frc consts  --      0.0287                 0.0244                 0.0540
 IR Inten    --     11.2951                 1.1524                26.6792

                     16                     17                     18
                      A                      A                      A
 Frequencies --    119.7616               126.4465               143.2711
 Red. masses --      9.3255                 6.1579                 3.7050
 Frc consts  --      0.0788                 0.0580                 0.0448
 IR Inten    --     43.7458                10.5703                 0.9052

                     19                     20                     21
                      A                      A                      A
 Frequencies --    152.5770               172.0482               181.9108
 Red. masses --      3.3549                 3.3532                 3.0810
 Frc consts  --      0.0460                 0.0585                 0.0601
 IR Inten    --      2.5171                27.2630                 2.0876

                     22                     23                     24
                      A                      A                      A
 Frequencies --    213.7167               228.0199               229.5706
 Red. masses --      2.5621                 1.1819                 4.8378
 Frc consts  --      0.0689                 0.0362                 0.1502
 IR Inten    --      3.9106                 2.6123                10.0966

                     25                     26                     27
                      A                      A                      A
 Frequencies --    254.5004               264.8113               287.4659
 Red. masses --      1.9263                 2.7473                 2.3895
 Frc consts  --      0.0735                 0.1135                 0.1163
 IR Inten    --      2.8978                 4.6134                10.7280

                     28                     29                     30
                      A                      A                      A
 Frequencies --    304.9122               313.6583               341.8579
 Red. masses --      5.6420                 4.6851                23.6522
 Frc consts  --      0.3091                 0.2716                 1.6286
 IR Inten    --      9.2087                 6.2893                49.4418

                     31                     32                     33
                      A                      A                      A
 Frequencies --    353.0966               364.5118               382.8491
 Red. masses --      4.7881                 4.2239                39.1821
 Frc consts  --      0.3517                 0.3307                 3.3837
 IR Inten    --     11.4849                 4.8259                80.9547

                     34                     35                     36
                      A                      A                      A
 Frequencies --    395.3554               407.5480               419.5210
 Red. masses --     33.5413                 3.0530                 2.9762
 Frc consts  --      3.0889                 0.2988                 0.3086
 IR Inten    --     85.6324                 0.2218                 0.4874

                     37                     38                     39
                      A                      A                      A
 Frequencies --    422.8253               461.8312               494.5972
 Red. masses --      4.2911                 4.5254                 2.1992
 Frc consts  --      0.4520                 0.5687                 0.3170
 IR Inten    --     16.8014                36.1988                 3.7953

                     40                     41                     42
                      A                      A                      A
 Frequencies --    514.3283               534.8447               553.2935
 Red. masses --      2.8573                 3.0437                 3.6950
 Frc consts  --      0.4453                 0.5130                 0.6665
 IR Inten    --      2.2347                19.5055                33.6805

                     43                     44                     45
                      A                      A                      A
 Frequencies --    608.8693               627.6894               666.4867
 Red. masses --      4.4884                 6.3794                 4.7091
 Frc consts  --      0.9804                 1.4809                 1.2324
 IR Inten    --     19.8440                 0.6731                72.3855

                     46                     47                     48
                      A                      A                      A
 Frequencies --    700.7592               713.2719               764.4573
 Red. masses --      4.2106                 1.7446                 2.6924
 Frc consts  --      1.2182                 0.5229                 0.9270
 IR Inten    --      5.3827               103.3010                 0.3896

                     49                     50                     51
                      A                      A                      A
 Frequencies --    782.9803               806.6374               810.6731
 Red. masses --      3.2193                 1.2545                 3.5009
 Frc consts  --      1.1628                 0.4809                 1.3556
 IR Inten    --     20.2728                 6.5736                46.9465

                     52                     53                     54
                      A                      A                      A
 Frequencies --    811.5246               853.0419               856.2144
 Red. masses --      1.6770                 1.4460                 1.5574
 Frc consts  --      0.6507                 0.6199                 0.6727
 IR Inten    --      9.3299                 2.8903                 3.1773

                     55                     56                     57
                      A                      A                      A
 Frequencies --    870.1678               898.2506               921.3184
 Red. masses --      2.5541                 1.9553                 2.8824
 Frc consts  --      1.1394                 0.9295                 1.4415
 IR Inten    --     12.4330                 0.6766                 9.0910

                     58                     59                     60
                      A                      A                      A
 Frequencies --    932.3591               957.0153               987.0289
 Red. masses --      1.6066                 2.1665                 2.7761
 Frc consts  --      0.8228                 1.1691                 1.5935
 IR Inten    --      7.8190                 5.9208                20.2981

                     61                     62                     63
                      A                      A                      A
 Frequencies --    988.6415               995.0445              1000.2385
 Red. masses --      1.5817                 1.4155                 2.0712
 Frc consts  --      0.9109                 0.8257                 1.2209
 IR Inten    --     20.3175                18.4473                12.3093

                     64                     65                     66
                      A                      A                      A
 Frequencies --   1001.6016              1008.6482              1015.9243
 Red. masses --      1.6064                 3.1246                 1.5465
 Frc consts  --      0.9495                 1.8729                 0.9404
 IR Inten    --      4.9587                 3.0154                55.5890

                     67                     68                     69
                      A                      A                      A
 Frequencies --   1037.6729              1050.1031              1055.4091
 Red. masses --      2.7490                 2.2650                 2.1306
 Frc consts  --      1.7440                 1.4716                 1.3983
 IR Inten    --     33.6945                 8.5974                14.7481

                     70                     71                     72
                      A                      A                      A
 Frequencies --   1068.8610              1104.0160              1108.4363
 Red. masses --      1.7981                 1.5928                 1.6953
 Frc consts  --      1.2104                 1.1438                 1.2272
 IR Inten    --      6.7656                 5.1876                33.1067

                     73                     74                     75
                      A                      A                      A
 Frequencies --   1115.7357              1132.7240              1165.5393
 Red. masses --      2.6545                 2.1966                 1.6879
 Frc consts  --      1.9470                 1.6605                 1.3510
 IR Inten    --     10.1033                10.4879                14.2542

                     76                     77                     78
                      A                      A                      A
 Frequencies --   1169.1776              1173.7503              1188.3060
 Red. masses --      1.5837                 1.0868                 2.3670
 Frc consts  --      1.2755                 0.8821                 1.9693
 IR Inten    --      1.9699                 0.0073                41.4775

                     79                     80                     81
                      A                      A                      A
 Frequencies --   1202.9169              1207.3285              1223.6320
 Red. masses --      1.1778                 2.1139                 1.8130
 Frc consts  --      1.0042                 1.8155                 1.5994
 IR Inten    --     37.4342               207.0676               137.8975

                     82                     83                     84
                      A                      A                      A
 Frequencies --   1259.1360              1266.0703              1282.2491
 Red. masses --      1.7003                 2.1563                 1.1053
 Frc consts  --      1.5883                 2.0365                 1.0707
 IR Inten    --     27.9034               237.1744                 1.1021

                     85                     86                     87
                      A                      A                      A
 Frequencies --   1308.9670              1317.2093              1328.3729
 Red. masses --      1.5405                 1.3911                 1.5543
 Frc consts  --      1.5551                 1.4220                 1.6159
 IR Inten    --    172.0118                 8.4771                 8.0482

                     88                     89                     90
                      A                      A                      A
 Frequencies --   1329.9262              1336.6164              1357.1322
 Red. masses --      1.4148                 1.4889                 2.8472
 Frc consts  --      1.4743                 1.5672                 3.0897
 IR Inten    --     60.7942                19.7880                 1.2086

                     91                     92                     93
                      A                      A                      A
 Frequencies --   1360.8390              1364.0322              1387.1818
 Red. masses --      1.2565                 1.4234                 1.5265
 Frc consts  --      1.3709                 1.5603                 1.7306
 IR Inten    --     28.7884                53.6388                53.1673

                     94                     95                     96
                      A                      A                      A
 Frequencies --   1392.0379              1413.5080              1416.4535
 Red. masses --      1.6196                 1.1333                 1.4718
 Frc consts  --      1.8490                 1.3341                 1.7398
 IR Inten    --     66.5303                 4.5633                 9.3630

                     97                     98                     99
                      A                      A                      A
 Frequencies --   1449.2584              1459.4177              1469.6468
 Red. masses --      1.1108                 1.2196                 2.0986
 Frc consts  --      1.3747                 1.5305                 2.6706
 IR Inten    --     37.0916                13.3654                28.8666

                    100                    101                    102
                      A                      A                      A
 Frequencies --   1474.4996              1479.6639              1485.3362
 Red. masses --      1.0397                 1.0836                 1.0519
 Frc consts  --      1.3319                 1.3978                 1.3673
 IR Inten    --      5.4124                 6.9689                 2.1007

                    103                    104                    105
                      A                      A                      A
 Frequencies --   1491.6956              1502.9567              1505.7371
 Red. masses --      1.1321                 1.1961                 1.0855
 Frc consts  --      1.4843                 1.5919                 1.4500
 IR Inten    --     13.9432                 5.4272                 7.4117

                    106                    107                    108
                      A                      A                      A
 Frequencies --   1516.0111              1534.9761              1622.0848
 Red. masses --      2.1645                 2.9000                 5.7366
 Frc consts  --      2.9310                 4.0258                 8.8930
 IR Inten    --      5.4141                75.1401                 0.2176

                    109                    110                    111
                      A                      A                      A
 Frequencies --   1640.6953              1758.7534              2898.0322
 Red. masses --      5.6859                11.3973                 1.0610
 Frc consts  --      9.0180                20.7712                 5.2502
 IR Inten    --      0.6322               185.1203               141.3217

                    112                    113                    114
                      A                      A                      A
 Frequencies --   3009.1892              3041.1236              3054.4226
 Red. masses --      1.0443                 1.0353                 1.0634
 Frc consts  --      5.5715                 5.6413                 5.8454
 IR Inten    --      1.8009                14.0310                15.6546

                    115                    116                    117
                      A                      A                      A
 Frequencies --   3057.4164              3063.2098              3066.0002
 Red. masses --      1.0580                 1.0623                 1.0919
 Frc consts  --      5.8272                 5.8729                 6.0475
 IR Inten    --     15.1067                17.1914                 0.2478

                    118                    119                    120
                      A                      A                      A
 Frequencies --   3086.4822              3102.0224              3107.5360
 Red. masses --      1.0667                 1.1077                 1.0941
 Frc consts  --      5.9869                 6.2800                 6.2247
 IR Inten    --      2.6972                 4.5192                 9.0438

                    121                    122                    123
                      A                      A                      A
 Frequencies --   3111.7063              3117.6600              3119.5592
 Red. masses --      1.0896                 1.1011                 1.0929
 Frc consts  --      6.2159                 6.3056                 6.2664
 IR Inten    --      1.0992                22.0404                 1.9952

                    124                    125                    126
                      A                      A                      A
 Frequencies --   3128.3641              3131.3179              3154.6994
 Red. masses --      1.0989                 1.1052                 1.1055
 Frc consts  --      6.3362                 6.3851                 6.4823
 IR Inten    --      7.6932                26.5745                 7.3813

                    127                    128                    129
                      A                      A                      A
 Frequencies --   3165.1967              3169.1256              3179.6123
 Red. masses --      1.0994                 1.0854                 1.0899
 Frc consts  --      6.4892                 6.4229                 6.4920
 IR Inten    --      7.1241                 0.2275                 8.1043

                    130                    131                    132
                      A                      A                      A
 Frequencies --   3191.0724              3198.8616              3221.0144
 Red. masses --      1.0944                 1.0958                 1.0925
 Frc consts  --      6.5662                 6.6063                 6.6780
 IR Inten    --     14.5390                 3.7953                 2.7850

 - Thermochemistry -
 -------------------
 Temperature   298.150 Kelvin.  Pressure   1.00000 Atm.
 Atom     1 has atomic number  6 and mass  12.00000

 Molecular mass:   434.99839 amu.
 Principal axes and moments of inertia in atomic units:
                           1         2         3
     Eigenvalues --  8654.07202********************
           X            0.99767   0.06378   0.02401
           Y           -0.06394   0.99794   0.00581
           Z           -0.02359  -0.00733   0.99969
 This molecule is an asymmetric top.
 Rotational symmetry number  1.
 Warning -- assumption of classical behavior for rotation
           may cause significant error
 Rotational temperatures (Kelvin)      0.01001     0.00712     0.00627
 Rotational constants (GHZ):           0.20854     0.14832     0.13073
    1 imaginary frequencies ignored.
 Zero-point vibrational energy     939225.8 (Joules/Mol)
                                  224.48036 (Kcal/Mol)
 Warning -- explicit consideration of  42 degrees of freedom as
           vibrations may cause significant error
 Vibrational temperatures:     11.01    20.13    40.09    49.21    69.67
          (Kelvin)             87.09    98.92   103.69   111.29   124.28
                              134.79   151.07   157.30   166.03   172.31
                              181.93   206.14   219.52   247.54   261.73
                              307.49   328.07   330.30   366.17   381.00
                              413.60   438.70   451.28   491.86   508.03
                              524.45   550.83   568.83   586.37   603.60
                              608.35   664.47   711.62   740.00   769.52
                              796.07   876.03   903.11   958.93  1008.24
                             1026.24  1099.88  1126.53  1160.57  1166.38
                             1167.60  1227.34  1231.90  1251.98  1292.38
                             1325.57  1341.46  1376.93  1420.11  1422.43
                             1431.65  1439.12  1441.08  1451.22  1461.69
                             1492.98  1510.86  1518.50  1537.85  1588.43
                             1594.79  1605.29  1629.74  1676.95  1682.19
                             1688.76  1709.71  1730.73  1737.08  1760.53
                             1811.62  1821.59  1844.87  1883.31  1895.17
                             1911.23  1913.47  1923.09  1952.61  1957.94
                             1962.54  1995.85  2002.83  2033.72  2037.96
                             2085.16  2099.78  2114.49  2121.48  2128.91
                             2137.07  2146.22  2162.42  2166.42  2181.20
                             2208.49  2333.82  2360.59  2530.45  4169.62
                             4329.55  4375.50  4394.63  4398.94  4407.28
                             4411.29  4440.76  4463.12  4471.05  4477.05
                             4485.62  4488.35  4501.02  4505.27  4538.91
                             4554.01  4559.66  4574.75  4591.24  4602.45
                             4634.32

 Zero-point correction=                           0.357732 (Hartree/Particle)
 Thermal correction to Energy=                    0.385384
 Thermal correction to Enthalpy=                  0.386328
 Thermal correction to Gibbs Free Energy=         0.293120
 Sum of electronic and zero-point Energies=          -3531.060788
 Sum of electronic and thermal Energies=             -3531.033137
 Sum of electronic and thermal Enthalpies=           -3531.032192
 Sum of electronic and thermal Free Energies=        -3531.125400

                     E (Thermal)             CV                S
                      KCal/Mol        Cal/Mol-Kelvin    Cal/Mol-Kelvin
 Total                  241.832             97.705            196.172
 Electronic               0.000              0.000              3.561
 Translational            0.889              2.981             44.100
 Rotational               0.889              2.981             35.629
 Vibrational            240.055             91.743            112.882
 Vibration     1          0.593              1.987              8.542
 Vibration     2          0.593              1.986              7.344
 Vibration     3          0.593              1.984              5.976
 Vibration     4          0.594              1.983              5.570
 Vibration     5          0.595              1.978              4.881
 Vibration     6          0.597              1.973              4.440
 Vibration     7          0.598              1.969              4.189
 Vibration     8          0.598              1.967              4.096
 Vibration     9          0.599              1.964              3.957
 Vibration    10          0.601              1.959              3.740
 Vibration    11          0.603              1.954              3.582
 Vibration    12          0.605              1.945              3.359
 Vibration    13          0.606              1.942              3.281
 Vibration    14          0.608              1.937              3.176
 Vibration    15          0.609              1.933              3.104
 Vibration    16          0.611              1.927              2.999
 Vibration    17          0.616              1.910              2.760
 Vibration    18          0.619              1.900              2.640
 Vibration    19          0.626              1.877              2.413
 Vibration    20          0.630              1.864              2.309
 Vibration    21          0.644              1.820              2.012
 Vibration    22          0.651              1.798              1.894
 Vibration    23          0.652              1.796              1.882
 Vibration    24          0.665              1.755              1.699
 Vibration    25          0.671              1.738              1.630
 Vibration    26          0.685              1.697              1.489
 Vibration    27          0.696              1.664              1.390
 Vibration    28          0.702              1.648              1.343
 Vibration    29          0.721              1.592              1.203
 Vibration    30          0.729              1.569              1.152
 Vibration    31          0.738              1.545              1.103
 Vibration    32          0.752              1.507              1.028
 Vibration    33          0.762              1.480              0.980
 Vibration    34          0.772              1.454              0.935
 Vibration    35          0.782              1.428              0.894
 Vibration    36          0.785              1.421              0.882
 Vibration    37          0.820              1.335              0.761
 Vibration    38          0.850              1.262              0.672
 Vibration    39          0.869              1.218              0.623
 Vibration    40          0.890              1.173              0.576
 Vibration    41          0.909              1.132              0.537
 Vibration    42          0.968              1.013              0.435

                           ! Non-Optimized Parameters !
 Normal termination of Gaussian 16 at Sun Jun 20 15:00:53 2021.

 ----------------------------------------------------------------------
 #p ub3lyp jul-cc-pvdz pop=cm5 scrf=(pcm,solvent=dichloroethane) guess=
 read geom=allcheck
 ----------------------------------------------------------------------

 Structure from the checkpoint file:  "checkpoint.chk"
 -----
 title
 -----
 Charge =  0 Multiplicity = 6

 SCF Done:  E(UB3LYP) =  -3531.44253540     A.U. after   17 cycles
 Normal termination of Gaussian 16 at Sun Jun 20 15:20:16 2021.
 Gaussian 16:  ES64L-G16RevA.03 25-Dec-2016

 ----------------------------------------------------------------------
 #p ub3lyp jul-cc-pvdz pop=cm5 scrf=(pcm,solvent=water) guess=read geom
 =allcheck
 ----------------------------------------------------------------------

 Structure from the checkpoint file:  "checkpoint.chk"
 -----
 title
 -----
 Charge =  0 Multiplicity = 6

                         Standard orientation:
 ---------------------------------------------------------------------
 Center     Atomic      Atomic             Coordinates (Angstroms)
 Number     Number       Type             X           Y           Z
 ---------------------------------------------------------------------
      1          6           0        2.726647   -1.406613    0.236084
      2          6           0        1.453078   -0.948149    0.618071
      3          6           0        1.201449   -0.720182    1.979490
      4          6           0        2.195702   -0.947450    2.936258
      5          6           0        3.456334   -1.407079    2.548280
      6          6           0        3.718381   -1.632972    1.192077
      7          6           0        0.343370   -0.666378   -0.390566
      8          6           0        0.666216    0.361949   -1.574389
      9          6           0        0.294465   -0.268248   -2.927526
     10          6           0       -0.581700   -1.479536   -2.605748
     11          6           0        0.124359   -2.126344   -1.420389
     12          6           0       -0.495263   -3.084709   -0.587773
     13          6           0       -1.951173   -3.096504   -0.396902
     14          8           0       -0.826241   -0.413048    0.182087
     15         26           0       -2.231606    0.863710    0.437564
     16         17           0       -2.833690    1.619740   -1.566045
     17          6           0        0.316448   -3.995066    0.259904
     18         17           0       -1.455934    2.457151    1.751397
     19         17           0       -3.839171   -0.350839    1.380931
     20          1           0        0.228389   -0.341526    2.284601
     21          1           0        1.980718   -0.755104    3.988358
     22          1           0        4.232658   -1.583583    3.294362
     23          1           0        4.701017   -1.984834    0.874418
     24          1           0        2.966780   -1.574046   -0.812876
     25          1           0       -0.001495    1.199732   -1.352090
     26          6           0        2.084867    0.919792   -1.563012
     27          1           0       -0.218094    0.454174   -3.573715
     28          1           0        1.213190   -0.586638   -3.438293
     29          1           0       -1.595542   -1.162297   -2.335976
     30          1           0       -0.653064   -2.179419   -3.450411
     31          1           0        1.165470   -2.376589   -1.646732
     32          1           0        1.391475   -3.924076    0.075048
     33          1           0        0.113917   -3.763310    1.320877
     34          1           0       -0.022765   -5.032606    0.110589
     35          1           0       -2.305123   -3.950123    0.190862
     36          1           0       -2.181256   -2.159461    0.162509
     37          1           0       -2.510039   -3.009465   -1.336843
     38          8           0        2.196060    1.919838   -0.677555
     39          8           0        2.993094    0.533067   -2.272557
     40          6           0        3.504501    2.543083   -0.554431
     41          6           0        3.388725    3.644673    0.479114
     42          1           0        4.226355    1.768462   -0.261637
     43          1           0        3.796755    2.924571   -1.542098
     44          1           0        4.364195    4.138871    0.594466
     45          1           0        2.651166    4.397721    0.170399
     46          1           0        3.084817    3.239760    1.453664
 ---------------------------------------------------------------------

 SCF Done:  E(UB3LYP) =  -3531.44682503     A.U. after   15 cycles

 The electronic state is 6-A.
 Alpha  occ. eigenvalues -- -256.20404-101.52184-101.52167-101.52072 -30.19825
 Alpha  occ. eigenvalues --  -26.05136 -26.05055 -26.04971 -19.20476 -19.16579
 Alpha  occ. eigenvalues --  -19.15411 -10.33033 -10.31278 -10.29056 -10.24877
 Alpha  occ. eigenvalues --  -10.22857 -10.22202 -10.21517 -10.21364 -10.20890
 Alpha  occ. eigenvalues --  -10.20483 -10.20374 -10.20326 -10.20315 -10.20248
 Alpha  occ. eigenvalues --  -10.20198 -10.19702 -10.18714  -9.43918  -9.43880
 Alpha  occ. eigenvalues --   -9.43800  -7.19780  -7.19747  -7.19666  -7.19470
 Alpha  occ. eigenvalues --   -7.19454  -7.19431  -7.19418  -7.19347  -7.19334
 Alpha  occ. eigenvalues --   -3.67515  -2.45027  -2.44855  -2.44697  -1.12302
 Alpha  occ. eigenvalues --   -1.05566  -1.03730  -0.88441  -0.87051  -0.83863
 Alpha  occ. eigenvalues --   -0.80164  -0.79443  -0.79361  -0.78990  -0.77803
 Alpha  occ. eigenvalues --   -0.76039  -0.75185  -0.73440  -0.71299  -0.66428
 Alpha  occ. eigenvalues --   -0.64258  -0.62153  -0.61283  -0.59479  -0.57189
 Alpha  occ. eigenvalues --   -0.56613  -0.54464  -0.52792  -0.51519  -0.51050
 Alpha  occ. eigenvalues --   -0.50126  -0.49238  -0.48945  -0.47935  -0.47756
 Alpha  occ. eigenvalues --   -0.47658  -0.47397  -0.47001  -0.46603  -0.45772
 Alpha  occ. eigenvalues --   -0.45082  -0.44653  -0.44342  -0.43406  -0.42883
 Alpha  occ. eigenvalues --   -0.42135  -0.41966  -0.41193  -0.40259  -0.40046
 Alpha  occ. eigenvalues --   -0.39547  -0.38771  -0.37652  -0.37346  -0.37136
 Alpha  occ. eigenvalues --   -0.37032  -0.36817  -0.36383  -0.35759  -0.35487
 Alpha  occ. eigenvalues --   -0.34872  -0.34307  -0.34126  -0.32036  -0.31873
 Alpha  occ. eigenvalues --   -0.31119  -0.30990  -0.30806  -0.30152  -0.29963
 Alpha  occ. eigenvalues --   -0.29812  -0.28961  -0.28656  -0.26865  -0.26308
 Alpha virt. eigenvalues --   -0.12498  -0.03640  -0.02825  -0.01598  -0.01441
 Alpha virt. eigenvalues --   -0.00244  -0.00097   0.00112   0.01430   0.01583
 Alpha virt. eigenvalues --    0.01754   0.02029   0.02311   0.03427   0.03734

  Beta  occ. eigenvalues -- -256.20219-101.52006-101.51991-101.51904 -30.10884
  Beta  occ. eigenvalues --  -25.97633 -25.97601 -25.97571 -19.20476 -19.15959
  Beta  occ. eigenvalues --  -19.15409 -10.33034 -10.31274 -10.29025 -10.24877
  Beta  occ. eigenvalues --  -10.22835 -10.22188 -10.21494 -10.21366 -10.20892
  Beta  occ. eigenvalues --  -10.20482 -10.20375 -10.20325 -10.20316 -10.20248
  Beta  occ. eigenvalues --  -10.20199 -10.19701 -10.18714  -9.43742  -9.43707
  Beta  occ. eigenvalues --   -9.43635  -7.19487  -7.19450  -7.19378  -7.19223
  Beta  occ. eigenvalues --   -7.19220  -7.19194  -7.19187  -7.19123  -7.19115
  Beta  occ. eigenvalues --   -3.46671  -2.22962  -2.22892  -2.22830  -1.12299
  Beta  occ. eigenvalues --   -1.04370  -1.03725  -0.88305  -0.87028  -0.83800
  Beta  occ. eigenvalues --   -0.79035  -0.78984  -0.78216  -0.78166  -0.77706
  Beta  occ. eigenvalues --   -0.76031  -0.75161  -0.73431  -0.71206  -0.66263
  Beta  occ. eigenvalues --   -0.64157  -0.62108  -0.61230  -0.59222  -0.56935
  Beta  occ. eigenvalues --   -0.56258  -0.54312  -0.51907  -0.51486  -0.50608
  Beta  occ. eigenvalues --   -0.50082  -0.48844  -0.48475  -0.47263  -0.46581
  Beta  occ. eigenvalues --   -0.45624  -0.44860  -0.44400  -0.43432  -0.42887
  Beta  occ. eigenvalues --   -0.42127  -0.42039  -0.41117  -0.40246  -0.40048
  Beta  occ. eigenvalues --   -0.39486  -0.38790  -0.38033  -0.37293  -0.37216
  Beta  occ. eigenvalues --   -0.36949  -0.36917  -0.36381  -0.35852  -0.35771
  Beta  occ. eigenvalues --   -0.35707  -0.35547  -0.34678  -0.33114  -0.33087
  Beta  occ. eigenvalues --   -0.32479  -0.32052  -0.32020  -0.31813  -0.30183
  Beta  occ. eigenvalues --   -0.29642  -0.28911  -0.28763  -0.26869  -0.26276
  Beta virt. eigenvalues --   -0.14364  -0.14062  -0.13254  -0.13039  -0.12390
  Beta virt. eigenvalues --   -0.11343  -0.03591  -0.02805  -0.01496  -0.01374
  Beta virt. eigenvalues --   -0.00202  -0.00071   0.00144   0.01442   0.01611

 Mulliken charges and spin densities:
               1          2
     1  C   -0.202260   0.000007
     2  C    2.740742  -0.001325
     3  C   -0.731026  -0.008070
     4  C   -0.026042   0.003842
     5  C    0.252293  -0.002034
     6  C   -0.077644   0.002454
     7  C   -1.819247   0.028381
     8  C    1.164734  -0.005747
     9  C    0.627752   0.000596
    10  C    0.668990  -0.000104
    11  C    0.443060   0.009927
    12  C   -0.350630   0.023080
    13  C    0.108568  -0.004918
    14  O   -0.631628   0.186822
    15  Fe   0.614874   4.054407
    16  Cl  -0.519867   0.234783
    17  C    0.336932  -0.001238
    18  Cl  -0.477992   0.242317
    19  Cl  -0.508272   0.229548
    20  H   -0.209415   0.002259
    21  H   -0.156084  -0.000014
    22  H   -0.167069   0.000026
    23  H   -0.161916   0.000195
    24  H   -0.199192  -0.000061
    25  H   -0.242097   0.001261
    26  C    0.618796  -0.003018
    27  H   -0.125509   0.000129
    28  H   -0.097251   0.000038
    29  H   -0.035866  -0.000337
    30  H   -0.141180   0.000198
    31  H   -0.204988  -0.000460
    32  H    0.017756   0.000059
    33  H    0.105415   0.001757
    34  H    0.020965   0.001024
    35  H   -0.017315   0.000005
    36  H    0.184918   0.003703
    37  H    0.063023   0.000508
    38  O   -0.709901  -0.000974
    39  O   -0.630740   0.000938
    40  C    0.447139  -0.000082
    41  C    0.077991   0.000074
    42  H   -0.038170   0.000003
    43  H   -0.046871   0.000008
    44  H   -0.006230  -0.000005
    45  H    0.020090   0.000022
    46  H    0.020363   0.000017
 Sum of Mulliken charges =  -0.00000   5.00000

 Dipole moment (field-independent basis, Debye):
    X=              8.6557    Y=            -11.8563    Z=             -2.1475  Tot=             14.8360
 Quadrupole moment (field-independent basis, Debye-Ang):
   XX=           -194.5392   YY=           -149.9575   ZZ=           -178.5908
   XY=             15.8934   XZ=             16.0109   YZ=              1.3808

 Normal termination of Gaussian 16 at Sun Jun 20 15:37:16 2021.
