 Gaussian 16, Revision A.03,

 -----------------------------------------------------------
 #p opt=modredundant freq=noraman ub3lyp jul-cc-pvdz pop=cm5
 -----------------------------------------------------------

 -----
 title
 -----
 Symbolic Z-matrix:
 Charge =  0 Multiplicity = 6

 SCF Done:  E(UB3LYP) =  -3531.42199600     A.U. after   23 cycles
 SCF Done:  E(UB3LYP) =  -3531.42183674     A.U. after   16 cycles
 SCF Done:  E(UB3LYP) =  -3531.41813796     A.U. after   18 cycles
 SCF Done:  E(UB3LYP) =  -3531.42198962     A.U. after   15 cycles
 SCF Done:  E(UB3LYP) =  -3531.42237287     A.U. after   10 cycles
 SCF Done:  E(UB3LYP) =  -3531.42253146     A.U. after   15 cycles
 SCF Done:  E(UB3LYP) =  -3531.42251989     A.U. after   14 cycles
 SCF Done:  E(UB3LYP) =  -3531.42254973     A.U. after   15 cycles
 SCF Done:  E(UB3LYP) =  -3531.42256884     A.U. after   14 cycles
 SCF Done:  E(UB3LYP) =  -3531.42257032     A.U. after   13 cycles
 SCF Done:  E(UB3LYP) =  -3531.42257196     A.U. after   12 cycles
 SCF Done:  E(UB3LYP) =  -3531.42257237     A.U. after   10 cycles
 SCF Done:  E(UB3LYP) =  -3531.42257256     A.U. after   11 cycles
 SCF Done:  E(UB3LYP) =  -3531.42257260     A.U. after    9 cycles
 Optimization completed.
    -- Stationary point found.
 Normal termination of Gaussian 16 at Sun Jun 20 02:16:15 2021.

 ----------------------------------------------------------------------
 #P Geom=AllCheck Guess=TCheck SCRF=Check GenChk UB3LYP/Jul-CC-pVDZ Fre
 q
 ----------------------------------------------------------------------

 Structure from the checkpoint file:  "checkpoint.chk"
 -----
 title
 -----
 Charge =  0 Multiplicity = 6

 SCF Done:  E(UB3LYP) =  -3531.42257260     A.U. after    2 cycles

  Exact polarizability: 282.907   2.628 301.086  23.598   6.221 283.909
 Approx polarizability: 414.337   2.313 475.964  44.023   6.913 448.703

 ******    1 imaginary frequencies (negative Signs) ******

                      1                      2                      3
                      A                      A                      A
 Frequencies --   -169.6691                24.4508                28.1433
 Red. masses --      9.7445                 7.2993                 5.4887
 Frc consts  --      0.1653                 0.0026                 0.0026
 IR Inten    --    200.7944                 0.0526                 0.7574

                      4                      5                      6
                      A                      A                      A
 Frequencies --     32.4580                48.3916                51.1668
 Red. masses --      5.6673                 5.4037                 4.0520
 Frc consts  --      0.0035                 0.0075                 0.0063
 IR Inten    --      1.1684                 1.3315                 1.4679

                      7                      8                      9
                      A                      A                      A
 Frequencies --     64.5533                70.3361                78.5601
 Red. masses --      2.4567                 5.1389                 9.0505
 Frc consts  --      0.0060                 0.0150                 0.0329
 IR Inten    --      0.0862                 1.2076                 0.6976

                     10                     11                     12
                      A                      A                      A
 Frequencies --     84.5824                91.0545               103.0904
 Red. masses --      8.0802                13.4625                 6.3875
 Frc consts  --      0.0341                 0.0658                 0.0400
 IR Inten    --      2.5659                 0.6709                 0.9354

                     13                     14                     15
                      A                      A                      A
 Frequencies --    114.4615               119.8664               121.3178
 Red. masses --     13.8435                 5.1679                 5.9821
 Frc consts  --      0.1069                 0.0437                 0.0519
 IR Inten    --      1.5495                 3.8595                 7.9099

                     16                     17                     18
                      A                      A                      A
 Frequencies --    130.6234               151.4903               167.3567
 Red. masses --      5.0803                 3.8365                 2.5654
 Frc consts  --      0.0511                 0.0519                 0.0423
 IR Inten    --      3.3879                 6.7238                 1.3853

                     19                     20                     21
                      A                      A                      A
 Frequencies --    184.3911               192.6154               200.6962
 Red. masses --      2.5802                 1.8617                 2.2625
 Frc consts  --      0.0517                 0.0407                 0.0537
 IR Inten    --      6.1007                11.9966                 1.6354

                     22                     23                     24
                      A                      A                      A
 Frequencies --    224.3695               234.1612               249.0022
 Red. masses --      3.8741                 1.5066                 2.4160
 Frc consts  --      0.1149                 0.0487                 0.0883
 IR Inten    --      8.2167                 0.8407                 2.2511

                     25                     26                     27
                      A                      A                      A
 Frequencies --    253.1523               260.7307               292.8958
 Red. masses --      1.7976                 2.0634                 3.5585
 Frc consts  --      0.0679                 0.0826                 0.1799
 IR Inten    --      4.3577                 0.4592                 2.3083

                     28                     29                     30
                      A                      A                      A
 Frequencies --    311.0682               342.1504               344.4486
 Red. masses --      2.8028                 5.3867                 9.4235
 Frc consts  --      0.1598                 0.3715                 0.6587
 IR Inten    --      1.8629                10.3087                24.8438

                     31                     32                     33
                      A                      A                      A
 Frequencies --    373.7024               378.5140               387.3176
 Red. masses --      3.3818                 3.2709                28.2501
 Frc consts  --      0.2783                 0.2761                 2.4969
 IR Inten    --      8.8506                 4.8632                80.1908

                     34                     35                     36
                      A                      A                      A
 Frequencies --    398.2087               401.3325               406.6813
 Red. masses --     23.8394                 4.2350                 4.6099
 Frc consts  --      2.2272                 0.4019                 0.4492
 IR Inten    --     88.9352                 6.2767                24.1110

                     37                     38                     39
                      A                      A                      A
 Frequencies --    411.4451               467.2338               514.4585
 Red. masses --      2.9535                 3.7040                 3.0225
 Frc consts  --      0.2946                 0.4764                 0.4713
 IR Inten    --      1.3151                 2.0225                 6.1386

                     40                     41                     42
                      A                      A                      A
 Frequencies --    540.5476               556.5203               625.2108
 Red. masses --      3.5116                 2.4969                 5.1935
 Frc consts  --      0.6045                 0.4556                 1.1961
 IR Inten    --     19.5996                 1.8009                 6.9038

                     43                     44                     45
                      A                      A                      A
 Frequencies --    632.3148               668.3782               698.9684
 Red. masses --      5.1258                 4.5183                 3.7773
 Frc consts  --      1.2075                 1.1892                 1.0873
 IR Inten    --     13.1880                12.4654                11.3499

                     46                     47                     48
                      A                      A                      A
 Frequencies --    707.6877               756.4728               781.0949
 Red. masses --      1.6633                 2.6833                 3.9513
 Frc consts  --      0.4908                 0.9047                 1.4204
 IR Inten    --     40.2286                18.2932                10.7611

                     49                     50                     51
                      A                      A                      A
 Frequencies --    785.2197               797.7463               808.6858
 Red. masses --      3.3308                 2.7913                 1.3073
 Frc consts  --      1.2100                 1.0466                 0.5037
 IR Inten    --     11.0386                20.4325                 2.2894

                     52                     53                     54
                      A                      A                      A
 Frequencies --    844.5971               846.8009               872.2489
 Red. masses --      1.5207                 1.5573                 2.6059
 Frc consts  --      0.6391                 0.6579                 1.1681
 IR Inten    --     11.9616                 9.2996                 9.0066

                     55                     56                     57
                      A                      A                      A
 Frequencies --    894.3855               919.8175               930.3137
 Red. masses --      1.3659                 1.7201                 1.9207
 Frc consts  --      0.6437                 0.8575                 0.9794
 IR Inten    --      4.7707                13.5231                23.6916

                     58                     59                     60
                      A                      A                      A
 Frequencies --    942.8155               961.3517               967.7302
 Red. masses --      2.3352                 4.2303                 3.0021
 Frc consts  --      1.2230                 2.3035                 1.6565
 IR Inten    --     58.0227                51.3082                12.2570

                     61                     62                     63
                      A                      A                      A
 Frequencies --    981.2219               988.4554              1001.9023
 Red. masses --      1.3616                 2.7650                 1.3117
 Frc consts  --      0.7724                 1.5917                 0.7758
 IR Inten    --      0.0518                52.7359                 0.1440

                     64                     65                     66
                      A                      A                      A
 Frequencies --   1004.8331              1005.8119              1021.6967
 Red. masses --      2.0965                 2.3861                 2.6896
 Frc consts  --      1.2472                 1.4222                 1.6542
 IR Inten    --      1.3767                 0.4226                23.2624

                     67                     68                     69
                      A                      A                      A
 Frequencies --   1041.2178              1049.6588              1053.3247
 Red. masses --      2.5285                 2.0709                 2.5720
 Frc consts  --      1.6151                 1.3443                 1.6813
 IR Inten    --     33.5460                26.6796                 3.0263

                     70                     71                     72
                      A                      A                      A
 Frequencies --   1064.3158              1093.1976              1103.3504
 Red. masses --      2.6843                 2.0273                 2.0365
 Frc consts  --      1.7915                 1.4274                 1.4607
 IR Inten    --      0.2809                43.5894                 0.7133

                     73                     74                     75
                      A                      A                      A
 Frequencies --   1119.1558              1132.9272              1157.9649
 Red. masses --      1.7531                 2.1760                 1.6694
 Frc consts  --      1.2937                 1.6456                 1.3189
 IR Inten    --      3.0890                 7.3573                31.6172

                     76                     77                     78
                      A                      A                      A
 Frequencies --   1169.5664              1174.8161              1183.5262
 Red. masses --      1.5573                 1.1097                 1.4876
 Frc consts  --      1.2551                 0.9024                 1.2277
 IR Inten    --      3.1535                 1.2403                 5.4760

                     79                     80                     81
                      A                      A                      A
 Frequencies --   1198.9897              1210.7703              1225.7120
 Red. masses --      1.9165                 1.1912                 1.9363
 Frc consts  --      1.6232                 1.0288                 1.7139
 IR Inten    --    130.4613                10.1245               106.6601

                     82                     83                     84
                      A                      A                      A
 Frequencies --   1256.0868              1262.5204              1283.3824
 Red. masses --      1.8536                 1.7966                 1.1079
 Frc consts  --      1.7231                 1.6873                 1.0751
 IR Inten    --     42.8176                26.9181                 1.5588

                     85                     86                     87
                      A                      A                      A
 Frequencies --   1295.1110              1308.2999              1317.3057
 Red. masses --      1.6786                 2.1380                 1.3971
 Frc consts  --      1.6589                 2.1561                 1.4284
 IR Inten    --     63.8185                 4.7198                 2.8148

                     88                     89                     90
                      A                      A                      A
 Frequencies --   1325.8903              1335.7250              1360.4228
 Red. masses --      1.6111                 2.1646                 2.1841
 Frc consts  --      1.6688                 2.2754                 2.3817
 IR Inten    --     38.7585                10.7366                 0.0645

                     91                     92                     93
                      A                      A                      A
 Frequencies --   1367.1737              1373.5873              1393.3842
 Red. masses --      1.3522                 1.3173                 1.5659
 Frc consts  --      1.4891                 1.4644                 1.7913
 IR Inten    --     16.8630                15.8182                75.9473

                     94                     95                     96
                      A                      A                      A
 Frequencies --   1398.0522              1407.9397              1417.2799
 Red. masses --      1.2460                 1.4811                 1.5327
 Frc consts  --      1.4349                 1.7298                 1.8139
 IR Inten    --     23.0092                26.5564                 6.1837

                     97                     98                     99
                      A                      A                      A
 Frequencies --   1446.4848              1467.6891              1470.2552
 Red. masses --      1.1007                 1.4602                 1.4928
 Frc consts  --      1.3569                 1.8533                 1.9012
 IR Inten    --      0.5039                 6.9059                 2.7620

                    100                    101                    102
                      A                      A                      A
 Frequencies --   1473.7982              1476.5303              1488.1668
 Red. masses --      1.0392                 1.1206                 1.0533
 Frc consts  --      1.3299                 1.4395                 1.3743
 IR Inten    --      3.6697                 1.0085                 1.8170

                    103                    104                    105
                      A                      A                      A
 Frequencies --   1488.6641              1499.7441              1507.4623
 Red. masses --      1.0792                 1.0915                 1.0841
 Frc consts  --      1.4092                 1.4464                 1.4515
 IR Inten    --      3.9951                14.0009                 5.9790

                    106                    107                    108
                      A                      A                      A
 Frequencies --   1511.0100              1524.6288              1625.8898
 Red. masses --      1.0834                 2.2335                 5.6543
 Frc consts  --      1.4574                 3.0589                 8.8067
 IR Inten    --      2.5702                 3.7841                 0.6974

                    109                    110                    111
                      A                      A                      A
 Frequencies --   1648.1060              1772.9449              3007.2445
 Red. masses --      5.7515                11.6220                 1.0499
 Frc consts  --      9.2045                21.5240                 5.5940
 IR Inten    --      0.1092               207.0830                 1.8658

                    112                    113                    114
                      A                      A                      A
 Frequencies --   3020.4286              3039.5846              3058.5148
 Red. masses --      1.0492                 1.0355                 1.0585
 Frc consts  --      5.6394                 5.6370                 5.8337
 IR Inten    --      8.4106                20.8076                13.5130

                    115                    116                    117
                      A                      A                      A
 Frequencies --   3062.0352              3067.7851              3079.9227
 Red. masses --      1.0601                 1.0621                 1.0850
 Frc consts  --      5.8563                 5.8891                 6.0641
 IR Inten    --     14.8866                32.2583                 8.5377

                    118                    119                    120
                      A                      A                      A
 Frequencies --   3097.1783              3102.6150              3108.9117
 Red. masses --      1.1022                 1.1064                 1.0818
 Frc consts  --      6.2291                 6.2753                 6.1607
 IR Inten    --      7.5308                 7.6402                 1.8883

                    121                    122                    123
                      A                      A                      A
 Frequencies --   3113.7647              3114.6154              3115.2549
 Red. masses --      1.0906                 1.0877                 1.1024
 Frc consts  --      6.2299                 6.2166                 6.3033
 IR Inten    --      0.9503                 3.3220                20.7536

                    124                    125                    126
                      A                      A                      A
 Frequencies --   3120.6326              3133.7442              3162.0482
 Red. masses --      1.0992                 1.1044                 1.1057
 Frc consts  --      6.3067                 6.3899                 6.5137
 IR Inten    --     28.1695                21.0188                 1.6078

                    127                    128                    129
                      A                      A                      A
 Frequencies --   3164.7005              3168.4641              3178.1751
 Red. masses --      1.1047                 1.0846                 1.0879
 Frc consts  --      6.5189                 6.4154                 6.4740
 IR Inten    --      4.2468                 0.8479                 5.7660

                    130                    131                    132
                      A                      A                      A
 Frequencies --   3186.5185              3193.9502              3199.9076
 Red. masses --      1.0920                 1.0946                 1.0981
 Frc consts  --      6.5326                 6.5790                 6.6248
 IR Inten    --     18.7757                 5.0172                10.0480

 - Thermochemistry -
 -------------------
 Temperature   298.150 Kelvin.  Pressure   1.00000 Atm.
 Atom     1 has atomic number  6 and mass  12.00000

 Molecular mass:   434.99839 amu.
 Principal axes and moments of inertia in atomic units:
                           1         2         3
     Eigenvalues --  9023.70097********************
           X            0.99655   0.08146   0.01616
           Y           -0.08171   0.99653   0.01557
           Z           -0.01483  -0.01683   0.99975
 This molecule is an asymmetric top.
 Rotational symmetry number  1.
 Warning -- assumption of classical behavior for rotation
           may cause significant error
 Rotational temperatures (Kelvin)      0.00960     0.00752     0.00688
 Rotational constants (GHZ):           0.20000     0.15669     0.14333
    1 imaginary frequencies ignored.
 Zero-point vibrational energy     944041.0 (Joules/Mol)
                                  225.63122 (Kcal/Mol)
 Warning -- explicit consideration of  40 degrees of freedom as
           vibrations may cause significant error
 Vibrational temperatures:     35.18    40.49    46.70    69.62    73.62
          (Kelvin)             92.88   101.20   113.03   121.70   131.01
                              148.32   164.68   172.46   174.55   187.94
                              217.96   240.79   265.30   277.13   288.76
                              322.82   336.91   358.26   364.23   375.13
                              421.41   447.56   492.28   495.58   537.67
                              544.60   557.26   572.93   577.43   585.12
                              591.98   672.25   740.19   777.73   800.71
                              899.54   909.76   961.65  1005.66  1018.20
                             1088.40  1123.82  1129.76  1147.78  1163.52
                             1215.19  1218.36  1254.97  1286.82  1323.41
                             1338.51  1356.50  1383.17  1392.35  1411.76
                             1422.17  1441.51  1445.73  1447.14  1469.99
                             1498.08  1510.22  1515.50  1531.31  1572.87
                             1587.48  1610.22  1630.03  1666.05  1682.75
                             1690.30  1702.83  1725.08  1742.03  1763.53
                             1807.23  1816.49  1846.50  1863.38  1882.35
                             1895.31  1907.66  1921.81  1957.35  1967.06
                             1976.29  2004.77  2011.49  2025.71  2039.15
                             2081.17  2111.68  2115.37  2120.47  2124.40
                             2141.14  2141.86  2157.80  2168.90  2174.01
                             2193.60  2339.29  2371.26  2550.87  4326.75
                             4345.72  4373.28  4400.52  4405.59  4413.86
                             4431.32  4456.15  4463.97  4473.03  4480.01
                             4481.24  4482.16  4489.89  4508.76  4549.48
                             4553.30  4558.71  4572.69  4584.69  4595.38
                             4603.95

 Zero-point correction=                           0.359566 (Hartree/Particle)
 Thermal correction to Energy=                    0.386480
 Thermal correction to Enthalpy=                  0.387424
 Thermal correction to Gibbs Free Energy=         0.298387
 Sum of electronic and zero-point Energies=          -3531.063006
 Sum of electronic and thermal Energies=             -3531.036093
 Sum of electronic and thermal Enthalpies=           -3531.035149
 Sum of electronic and thermal Free Energies=        -3531.124186

                     E (Thermal)             CV                S
                      KCal/Mol        Cal/Mol-Kelvin    Cal/Mol-Kelvin
 Total                  242.520             96.628            187.394
 Electronic               0.000              0.000              3.561
 Translational            0.889              2.981             44.100
 Rotational               0.889              2.981             35.524
 Vibrational            240.742             90.667            104.208
 Vibration     1          0.593              1.985              6.235
 Vibration     2          0.593              1.984              5.956
 Vibration     3          0.594              1.983              5.673
 Vibration     4          0.595              1.978              4.882
 Vibration     5          0.595              1.977              4.772
 Vibration     6          0.597              1.971              4.313
 Vibration     7          0.598              1.968              4.144
 Vibration     8          0.600              1.964              3.927
 Vibration     9          0.601              1.960              3.782
 Vibration    10          0.602              1.956              3.637
 Vibration    11          0.605              1.947              3.395
 Vibration    12          0.607              1.937              3.192
 Vibration    13          0.609              1.933              3.103
 Vibration    14          0.609              1.931              3.079
 Vibration    15          0.612              1.923              2.937
 Vibration    16          0.619              1.901              2.653
 Vibration    17          0.624              1.883              2.465
 Vibration    18          0.631              1.861              2.283
 Vibration    19          0.635              1.850              2.203
 Vibration    20          0.638              1.839              2.127
 Vibration    21          0.649              1.804              1.924
 Vibration    22          0.654              1.789              1.847
 Vibration    23          0.662              1.764              1.738
 Vibration    24          0.664              1.757              1.709
 Vibration    25          0.669              1.745              1.657
 Vibration    26          0.688              1.687              1.457
 Vibration    27          0.700              1.653              1.357
 Vibration    28          0.721              1.591              1.202
 Vibration    29          0.723              1.587              1.191
 Vibration    30          0.745              1.526              1.065
 Vibration    31          0.749              1.516              1.045
 Vibration    32          0.756              1.497              1.010
 Vibration    33          0.764              1.474              0.969
 Vibration    34          0.767              1.467              0.958
 Vibration    35          0.771              1.456              0.938
 Vibration    36          0.775              1.445              0.922
 Vibration    37          0.825              1.323              0.745
 Vibration    38          0.870              1.218              0.623
 Vibration    39          0.896              1.160              0.564
 Vibration    40          0.912              1.125              0.531

                           ! Non-Optimized Parameters !
 Normal termination of Gaussian 16 at Sun Jun 20 05:45:39 2021.

 ----------------------------------------------------------------------
 #p ub3lyp jul-cc-pvdz pop=cm5 scrf=(pcm,solvent=dichloroethane) guess=
 read geom=allcheck
 ----------------------------------------------------------------------

 Structure from the checkpoint file:  "checkpoint.chk"
 -----
 title
 -----
 Charge =  0 Multiplicity = 6

 SCF Done:  E(UB3LYP) =  -3531.44397303     A.U. after   16 cycles
 Normal termination of Gaussian 16 at Sun Jun 20 06:05:31 2021.
 Gaussian 16:  ES64L-G16RevA.03 25-Dec-2016

 ----------------------------------------------------------------------
 #p ub3lyp jul-cc-pvdz pop=cm5 scrf=(pcm,solvent=water) guess=read geom
 =allcheck
 ----------------------------------------------------------------------

 Structure from the checkpoint file:  "checkpoint.chk"
 -----
 title
 -----
 Charge =  0 Multiplicity = 6

                         Standard orientation:
 ---------------------------------------------------------------------
 Center     Atomic      Atomic             Coordinates (Angstroms)
 Number     Number       Type             X           Y           Z
 ---------------------------------------------------------------------
      1          6           0        1.892283   -2.036469    1.659633
      2          6           0        1.235871   -0.961758    1.042721
      3          6           0        1.216379    0.276918    1.701692
      4          6           0        1.810568    0.427194    2.955323
      5          6           0        2.453843   -0.652905    3.566394
      6          6           0        2.499043   -1.884163    2.910088
      7          6           0        0.622572   -1.102963   -0.336493
      8          6           0        1.558606   -0.646283   -1.513725
      9          6           0        2.229854   -1.948543   -1.978783
     10          6           0        1.112700   -3.012334   -1.937640
     11          6           0        0.189330   -2.577266   -0.782289
     12          6           0       -1.270478   -2.202112   -1.070293
     13          6           0       -1.751701   -1.970412   -2.462545
     14          8           0       -0.714623   -0.493546   -0.452371
     15         26           0       -1.958833    0.836992    0.309651
     16         17           0       -3.717819    0.700837   -1.040447
     17          6           0       -2.284816   -2.685263   -0.088606
     18         17           0       -1.103059    2.867870    0.282459
     19         17           0       -2.503216    0.168098    2.341319
     20          1           0        0.737148    1.139844    1.241679
     21          1           0        1.766793    1.395354    3.455668
     22          1           0        2.918223   -0.534424    4.546371
     23          1           0        3.004883   -2.734158    3.370201
     24          1           0        1.951775   -3.007862    1.169009
     25          1           0        0.895127   -0.251686   -2.293592
     26          6           0        2.572575    0.437459   -1.178392
     27          1           0        2.682152   -1.842207   -2.973268
     28          1           0        3.040230   -2.198581   -1.281448
     29          1           0        0.575533   -3.043290   -2.894179
     30          1           0        1.513568   -4.020335   -1.771227
     31          1           0        0.214521   -3.279169    0.056144
     32          1           0       -2.443808   -3.755188   -0.315964
     33          1           0       -1.928022   -2.609473    0.943792
     34          1           0       -3.243830   -2.166224   -0.193740
     35          1           0       -2.001106   -2.957414   -2.889925
     36          1           0       -2.664446   -1.364285   -2.455523
     37          1           0       -1.001623   -1.500420   -3.105078
     38          8           0        2.071296    1.661161   -1.419981
     39          8           0        3.695015    0.226289   -0.770206
     40          6           0        2.943671    2.788867   -1.125155
     41          6           0        2.255593    4.044663   -1.619763
     42          1           0        3.116582    2.808408   -0.040380
     43          1           0        3.908892    2.615023   -1.618938
     44          1           0        2.885828    4.916524   -1.391931
     45          1           0        2.100072    4.005575   -2.707026
     46          1           0        1.281901    4.177458   -1.130742
 ---------------------------------------------------------------------

 SCF Done:  E(UB3LYP) =  -3531.44808185     A.U. after   14 cycles

 The electronic state is 6-A.
 Alpha  occ. eigenvalues -- -256.21264-101.52802-101.52656-101.52562 -30.20645
 Alpha  occ. eigenvalues --  -26.05999 -26.05877 -26.05762 -19.20281 -19.19403
 Alpha  occ. eigenvalues --  -19.15165 -10.32779 -10.31152 -10.28833 -10.24725
 Alpha  occ. eigenvalues --  -10.22291 -10.21801 -10.21486 -10.20771 -10.20738
 Alpha  occ. eigenvalues --  -10.20488 -10.20257 -10.20236 -10.20189 -10.20155
 Alpha  occ. eigenvalues --  -10.19990 -10.19802 -10.18558  -9.44524  -9.44380
 Alpha  occ. eigenvalues --   -9.44290  -7.20389  -7.20253  -7.20163  -7.20079
 Alpha  occ. eigenvalues --   -7.20062  -7.19936  -7.19912  -7.19835  -7.19833
 Alpha  occ. eigenvalues --   -3.68288  -2.45829  -2.45661  -2.45400  -1.11994
 Alpha  occ. eigenvalues --   -1.03807  -1.03547  -0.87717  -0.86371  -0.83896
 Alpha  occ. eigenvalues --   -0.80767  -0.80033  -0.79891  -0.78687  -0.77685
 Alpha  occ. eigenvalues --   -0.76115  -0.74829  -0.73084  -0.71625  -0.66371
 Alpha  occ. eigenvalues --   -0.63915  -0.62126  -0.60898  -0.59477  -0.56939
 Alpha  occ. eigenvalues --   -0.56091  -0.54304  -0.52789  -0.51295  -0.50328
 Alpha  occ. eigenvalues --   -0.49978  -0.49339  -0.48943  -0.48550  -0.48360
 Alpha  occ. eigenvalues --   -0.48003  -0.47505  -0.47206  -0.46351  -0.45884
 Alpha  occ. eigenvalues --   -0.45682  -0.44637  -0.44009  -0.43206  -0.42910
 Alpha  occ. eigenvalues --   -0.42152  -0.41388  -0.40465  -0.40279  -0.39895
 Alpha  occ. eigenvalues --   -0.39362  -0.39052  -0.37955  -0.37608  -0.37220
 Alpha  occ. eigenvalues --   -0.36863  -0.36421  -0.36062  -0.35690  -0.35408
 Alpha  occ. eigenvalues --   -0.34789  -0.34330  -0.34126  -0.33134  -0.31927
 Alpha  occ. eigenvalues --   -0.31450  -0.31350  -0.31205  -0.31037  -0.30593
 Alpha  occ. eigenvalues --   -0.30082  -0.29971  -0.29093  -0.26825  -0.26436
 Alpha virt. eigenvalues --   -0.07727  -0.03525  -0.02922  -0.01481  -0.01310
 Alpha virt. eigenvalues --   -0.00181  -0.00053   0.00109   0.01472   0.01675
 Alpha virt. eigenvalues --    0.01746   0.01837   0.02404   0.03238   0.03798

  Beta  occ. eigenvalues -- -256.21079-101.52612-101.52467-101.52370 -30.11722
  Beta  occ. eigenvalues --  -25.98477 -25.98458 -25.98390 -19.20281 -19.18946
  Beta  occ. eigenvalues --  -19.15163 -10.32778 -10.31142 -10.28803 -10.24725
  Beta  occ. eigenvalues --  -10.22278 -10.21791 -10.21481 -10.20771 -10.20735
  Beta  occ. eigenvalues --  -10.20486 -10.20256 -10.20235 -10.20188 -10.20154
  Beta  occ. eigenvalues --  -10.19987 -10.19800 -10.18556  -9.44337  -9.44195
  Beta  occ. eigenvalues --   -9.44101  -7.20085  -7.19937  -7.19847  -7.19816
  Beta  occ. eigenvalues --   -7.19805  -7.19677  -7.19665  -7.19576  -7.19574
  Beta  occ. eigenvalues --   -3.47476  -2.23787  -2.23655  -2.23644  -1.11992
  Beta  occ. eigenvalues --   -1.03552  -1.02943  -0.87626  -0.86248  -0.83864
  Beta  occ. eigenvalues --   -0.79543  -0.78787  -0.78616  -0.78562  -0.77632
  Beta  occ. eigenvalues --   -0.76107  -0.74804  -0.73068  -0.71468  -0.66325
  Beta  occ. eigenvalues --   -0.63879  -0.62104  -0.60860  -0.59329  -0.56896
  Beta  occ. eigenvalues --   -0.55531  -0.54275  -0.52004  -0.51218  -0.50034
  Beta  occ. eigenvalues --   -0.49619  -0.48912  -0.47620  -0.47250  -0.46399
  Beta  occ. eigenvalues --   -0.45737  -0.44664  -0.44004  -0.43251  -0.42926
  Beta  occ. eigenvalues --   -0.42179  -0.41367  -0.40457  -0.40203  -0.39871
  Beta  occ. eigenvalues --   -0.39360  -0.38603  -0.38011  -0.37678  -0.37220
  Beta  occ. eigenvalues --   -0.36879  -0.36740  -0.36324  -0.36254  -0.35951
  Beta  occ. eigenvalues --   -0.35678  -0.35350  -0.34243  -0.33596  -0.33548
  Beta  occ. eigenvalues --   -0.33064  -0.32761  -0.32303  -0.31729  -0.31016
  Beta  occ. eigenvalues --   -0.30123  -0.29976  -0.29044  -0.26815  -0.26406
  Beta virt. eigenvalues --   -0.15247  -0.14803  -0.13916  -0.13669  -0.13237
  Beta virt. eigenvalues --   -0.07173  -0.03441  -0.02894  -0.01374  -0.01271
  Beta virt. eigenvalues --   -0.00116  -0.00030   0.00133   0.01499   0.01699

 Mulliken charges and spin densities:
               1          2
     1  C   -0.310887   0.004574
     2  C    3.513367  -0.004646
     3  C   -0.411197  -0.012888
     4  C    0.013651   0.000151
     5  C    0.235709  -0.000596
     6  C   -0.167881   0.001334
     7  C   -2.737887   0.027335
     8  C    0.286711   0.000829
     9  C    0.536444   0.001252
    10  C    0.600828   0.001706
    11  C    0.971726   0.002594
    12  C   -0.883906   0.011302
    13  C    0.421322  -0.004543
    14  O   -0.253012   0.130271
    15  Fe   0.594136   4.057325
    16  Cl  -0.493073   0.258431
    17  C    0.481022   0.001580
    18  Cl  -0.455159   0.262419
    19  Cl  -0.460422   0.255837
    20  H   -0.314157   0.000834
    21  H   -0.164561  -0.000006
    22  H   -0.162504   0.000030
    23  H   -0.157733   0.000044
    24  H   -0.197530   0.000006
    25  H   -0.209503   0.000098
    26  C    0.999170   0.002747
    27  H   -0.142712   0.000420
    28  H   -0.055350   0.000014
    29  H   -0.089858  -0.000044
    30  H   -0.116617   0.000382
    31  H   -0.218806   0.001043
    32  H    0.034939   0.000105
    33  H    0.058289  -0.000643
    34  H    0.035795  -0.000122
    35  H    0.059240   0.002309
    36  H    0.037536  -0.000458
    37  H    0.047528  -0.000217
    38  O   -0.698734  -0.000795
    39  O   -0.659514   0.000689
    40  C    0.418531  -0.001159
    41  C    0.058885   0.001041
    42  H   -0.040930   0.000015
    43  H   -0.048771  -0.000003
    44  H   -0.004302   0.000065
    45  H    0.022001  -0.000010
    46  H    0.028179  -0.000651
 Sum of Mulliken charges =  -0.00000   5.00000

 Dipole moment (field-independent basis, Debye):
    X=              4.0029    Y=             -9.6468    Z=             -5.1428  Tot=             11.6418
 Quadrupole moment (field-independent basis, Debye-Ang):
   XX=           -201.3917   YY=           -150.8202   ZZ=           -167.2611
   XY=             18.4043   XZ=              8.7982   YZ=              7.2457

 Normal termination of Gaussian 16 at Sun Jun 20 06:22:36 2021.
