 Gaussian 16, Revision A.03,

 -----------------------------------------------------------
 #p opt=modredundant freq=noraman ub3lyp jul-cc-pvdz pop=cm5
 -----------------------------------------------------------

 -----
 title
 -----
 Symbolic Z-matrix:
 Charge =  0 Multiplicity = 6

 SCF Done:  E(UB3LYP) =  -3531.43374054     A.U. after   24 cycles
 SCF Done:  E(UB3LYP) =  -3531.43320611     A.U. after   17 cycles
 SCF Done:  E(UB3LYP) =  -3531.43120387     A.U. after   18 cycles
 SCF Done:  E(UB3LYP) =  -3531.43104808     A.U. after   17 cycles
 SCF Done:  E(UB3LYP) =  -3531.43390740     A.U. after   12 cycles
 SCF Done:  E(UB3LYP) =  -3531.43379989     A.U. after   17 cycles
 SCF Done:  E(UB3LYP) =  -3531.43416139     A.U. after   15 cycles
 SCF Done:  E(UB3LYP) =  -3531.43430140     A.U. after   16 cycles
 SCF Done:  E(UB3LYP) =  -3531.43440880     A.U. after   15 cycles
 SCF Done:  E(UB3LYP) =  -3531.43442676     A.U. after   14 cycles
 SCF Done:  E(UB3LYP) =  -3531.43443824     A.U. after   12 cycles
 SCF Done:  E(UB3LYP) =  -3531.43444066     A.U. after   13 cycles
 SCF Done:  E(UB3LYP) =  -3531.43444338     A.U. after   13 cycles
 SCF Done:  E(UB3LYP) =  -3531.43444439     A.U. after   11 cycles
 SCF Done:  E(UB3LYP) =  -3531.43444499     A.U. after   11 cycles
 SCF Done:  E(UB3LYP) =  -3531.43444513     A.U. after   10 cycles
 SCF Done:  E(UB3LYP) =  -3531.43444512     A.U. after    9 cycles
 Optimization completed.
    -- Stationary point found.
 Normal termination of Gaussian 16 at Sun Jun 20 13:57:30 2021.

 ----------------------------------------------------------------------
 #P Geom=AllCheck Guess=TCheck SCRF=Check GenChk UB3LYP/Jul-CC-pVDZ Fre
 q
 ----------------------------------------------------------------------

 Structure from the checkpoint file:  "checkpoint.chk"
 -----
 title
 -----
 Charge =  0 Multiplicity = 6

 SCF Done:  E(UB3LYP) =  -3531.43444512     A.U. after    2 cycles

  Exact polarizability: 318.323  13.409 303.382  17.623   4.690 302.244
 Approx polarizability: 493.098  49.079 461.896  25.690  -4.666 497.076

 ******    1 imaginary frequencies (negative Signs) ******

                      1                      2                      3
                      A                      A                      A
 Frequencies --    -23.1485                14.9965                20.2231
 Red. masses --      6.0638                 5.1185                 6.5972
 Frc consts  --      0.0019                 0.0007                 0.0016
 IR Inten    --      0.3115                 0.1438                 1.3636

                      4                      5                      6
                      A                      A                      A
 Frequencies --     28.7921                49.1421                51.4285
 Red. masses --      7.4072                 6.9073                 4.8721
 Frc consts  --      0.0036                 0.0098                 0.0076
 IR Inten    --      1.3610                 1.4372                 0.7124

                      7                      8                      9
                      A                      A                      A
 Frequencies --     55.1030                63.5820                79.3742
 Red. masses --      3.9386                 2.9427                10.2425
 Frc consts  --      0.0070                 0.0070                 0.0380
 IR Inten    --      2.1198                 1.5401                 0.2558

                     10                     11                     12
                      A                      A                      A
 Frequencies --     86.3326                89.7246                98.2658
 Red. masses --      9.1113                 6.6409                 4.3727
 Frc consts  --      0.0400                 0.0315                 0.0249
 IR Inten    --      0.2079                 5.1562                 0.8699

                     13                     14                     15
                      A                      A                      A
 Frequencies --    104.3497               115.0005               123.3073
 Red. masses --      5.4701                20.5720                11.2363
 Frc consts  --      0.0351                 0.1603                 0.1007
 IR Inten    --      0.4544                 0.1321                 2.1461

                     16                     17                     18
                      A                      A                      A
 Frequencies --    126.0270               142.6170               146.0890
 Red. masses --      1.8504                 2.7981                 3.2953
 Frc consts  --      0.0173                 0.0335                 0.0414
 IR Inten    --      2.3396                 4.6302                 0.9138

                     19                     20                     21
                      A                      A                      A
 Frequencies --    166.0077               174.0931               192.3825
 Red. masses --      3.5034                 2.3270                 2.4464
 Frc consts  --      0.0569                 0.0416                 0.0533
 IR Inten    --     13.9523                 3.0055                 6.6858

                     22                     23                     24
                      A                      A                      A
 Frequencies --    203.6225               209.6168               223.4191
 Red. masses --      2.8724                 1.2483                 3.1956
 Frc consts  --      0.0702                 0.0323                 0.0940
 IR Inten    --      0.6435                 2.0846                 7.8148

                     25                     26                     27
                      A                      A                      A
 Frequencies --    258.8625               270.5775               287.3323
 Red. masses --      1.6362                 4.2905                 3.9568
 Frc consts  --      0.0646                 0.1851                 0.1925
 IR Inten    --      2.9875                58.5868                 2.4546

                     28                     29                     30
                      A                      A                      A
 Frequencies --    317.4987               337.3208               352.2280
 Red. masses --      2.2232                21.8017                 5.8108
 Frc consts  --      0.1320                 1.4616                 0.4247
 IR Inten    --      0.2997                23.2404                 2.6635

                     31                     32                     33
                      A                      A                      A
 Frequencies --    358.7315               379.4183               396.0385
 Red. masses --      7.5043                 4.8828                 5.2839
 Frc consts  --      0.5690                 0.4141                 0.4883
 IR Inten    --     32.9231                14.7330                57.6938

                     34                     35                     36
                      A                      A                      A
 Frequencies --    397.9502               401.8191               411.1753
 Red. masses --      5.1060                13.2826                 2.8973
 Frc consts  --      0.4764                 1.2636                 0.2886
 IR Inten    --     33.9088                67.7886                 1.5957

                     37                     38                     39
                      A                      A                      A
 Frequencies --    422.3947               452.2127               476.2141
 Red. masses --      3.7429                 3.5459                 3.1752
 Frc consts  --      0.3935                 0.4272                 0.4243
 IR Inten    --     46.2944                 1.6813                 8.3925

                     40                     41                     42
                      A                      A                      A
 Frequencies --    505.7861               517.5696               549.7152
 Red. masses --      3.2052                 2.7674                 3.1048
 Frc consts  --      0.4831                 0.4368                 0.5528
 IR Inten    --     14.2182                 2.4292                22.6583

                     43                     44                     45
                      A                      A                      A
 Frequencies --    577.6806               624.2866               649.6359
 Red. masses --      4.2412                 6.2965                 4.1986
 Frc consts  --      0.8339                 1.4458                 1.0440
 IR Inten    --     75.1858                 5.2299                83.3204

                     46                     47                     48
                      A                      A                      A
 Frequencies --    690.2040               699.0803               752.4216
 Red. masses --      1.6000                 6.1733                 4.4296
 Frc consts  --      0.4491                 1.7776                 1.4775
 IR Inten    --     58.7495                14.5318                 7.7916

                     49                     50                     51
                      A                      A                      A
 Frequencies --    769.8668               783.8510               804.4083
 Red. masses --      2.3207                 2.1940                 1.2221
 Frc consts  --      0.8104                 0.7943                 0.4659
 IR Inten    --     20.4467                 9.0287                 2.2382

                     52                     53                     54
                      A                      A                      A
 Frequencies --    824.5976               843.4943               847.4848
 Red. masses --      3.6694                 1.2570                 1.4941
 Frc consts  --      1.4701                 0.5269                 0.6323
 IR Inten    --     13.8239                 1.0013                18.3031

                     55                     56                     57
                      A                      A                      A
 Frequencies --    864.2984               896.2902               913.6866
 Red. masses --      2.7571                 2.0305                 2.1092
 Frc consts  --      1.2135                 0.9611                 1.0374
 IR Inten    --     32.1828                 3.2135                17.6941

                     58                     59                     60
                      A                      A                      A
 Frequencies --    950.0962               956.9026               969.9257
 Red. masses --      1.4266                 1.3394                 3.6066
 Frc consts  --      0.7587                 0.7226                 1.9991
 IR Inten    --      0.8718                 3.8647                27.2040

                     61                     62                     63
                      A                      A                      A
 Frequencies --    988.0666               990.4921               992.2392
 Red. masses --      2.0454                 1.3791                 1.5894
 Frc consts  --      1.1765                 0.7972                 0.9220
 IR Inten    --     17.9002                 8.1237                12.4276

                     64                     65                     66
                      A                      A                      A
 Frequencies --   1003.0299              1010.4866              1012.7486
 Red. masses --      3.7764                 1.4358                 2.0225
 Frc consts  --      2.2385                 0.8638                 1.2222
 IR Inten    --      1.8336                 0.8950                 3.1415

                     67                     68                     69
                      A                      A                      A
 Frequencies --   1036.3129              1046.7173              1073.6180
 Red. masses --      2.6601                 2.4355                 2.2898
 Frc consts  --      1.6832                 1.5721                 1.5551
 IR Inten    --     42.6120                 3.1764                 4.3098

                     70                     71                     72
                      A                      A                      A
 Frequencies --   1090.8899              1094.4304              1114.1253
 Red. masses --      1.8511                 2.0067                 1.5602
 Frc consts  --      1.2979                 1.4162                 1.1410
 IR Inten    --      8.7295                18.1652                 8.8109

                     73                     74                     75
                      A                      A                      A
 Frequencies --   1133.1675              1136.7792              1162.0052
 Red. masses --      2.1411                 2.1645                 1.6811
 Frc consts  --      1.6199                 1.6480                 1.3374
 IR Inten    --     14.6321                10.7115                77.3791

                     76                     77                     78
                      A                      A                      A
 Frequencies --   1170.3137              1177.9715              1202.6957
 Red. masses --      1.5630                 1.0853                 1.3123
 Frc consts  --      1.2613                 0.8873                 1.1184
 IR Inten    --      2.5368                 1.6883                43.8208

                     79                     80                     81
                      A                      A                      A
 Frequencies --   1208.6404              1225.8572              1253.7282
 Red. masses --      1.5033                 2.0381                 1.9587
 Frc consts  --      1.2938                 1.8045                 1.8140
 IR Inten    --     70.6275               130.4189                27.7397

                     82                     83                     84
                      A                      A                      A
 Frequencies --   1271.2670              1285.7857              1323.4378
 Red. masses --      2.4470                 1.1307                 1.4325
 Frc consts  --      2.3301                 1.1014                 1.4783
 IR Inten    --    161.2133                 2.7996                18.4513

                     85                     86                     87
                      A                      A                      A
 Frequencies --   1330.3312              1335.8031              1338.3839
 Red. masses --      1.4285                 1.6225                 1.6503
 Frc consts  --      1.4895                 1.7058                 1.7417
 IR Inten    --     78.9338                67.8739                40.1504

                     88                     89                     90
                      A                      A                      A
 Frequencies --   1363.2367              1367.9315              1375.6900
 Red. masses --      1.6094                 2.7864                 1.3323
 Frc consts  --      1.7622                 3.0720                 1.4856
 IR Inten    --      6.2807                12.9297                 5.0012

                     91                     92                     93
                      A                      A                      A
 Frequencies --   1381.9833              1400.2959              1408.8354
 Red. masses --      1.3770                 1.3247                 1.3971
 Frc consts  --      1.5495                 1.5304                 1.6338
 IR Inten    --     26.2566                 8.4696                17.6546

                     94                     95                     96
                      A                      A                      A
 Frequencies --   1415.9247              1457.8979              1463.1828
 Red. masses --      1.4047                 1.2902                 1.7663
 Frc consts  --      1.6593                 1.6157                 2.2280
 IR Inten    --     12.7463                59.2308                58.0202

                     97                     98                     99
                      A                      A                      A
 Frequencies --   1471.5964              1473.5475              1475.8777
 Red. masses --      1.0771                 1.0385                 1.0542
 Frc consts  --      1.3743                 1.3286                 1.3529
 IR Inten    --      5.8274                 5.8650                11.5534

                    100                    101                    102
                      A                      A                      A
 Frequencies --   1480.8373              1487.2691              1490.4631
 Red. masses --      1.0926                 1.0554                 1.1218
 Frc consts  --      1.4117                 1.3754                 1.4682
 IR Inten    --      6.2081                 3.7206                12.4380

                    103                    104                    105
                      A                      A                      A
 Frequencies --   1499.8502              1505.6033              1511.9072
 Red. masses --      1.1122                 1.0844                 3.1604
 Frc consts  --      1.4742                 1.4483                 4.2564
 IR Inten    --     31.7077                 4.3568               371.8529

                    106                    107                    108
                      A                      A                      A
 Frequencies --   1520.4004              1618.1923              1640.2174
 Red. masses --      2.4769                 5.4385                 5.6469
 Frc consts  --      3.3734                 8.3905                 8.9508
 IR Inten    --    231.8146                12.1150                41.3509

                    109                    110                    111
                      A                      A                      A
 Frequencies --   1694.3538              1768.0005              3018.0642
 Red. masses --      6.2537                11.5126                 1.0432
 Frc consts  --     10.5779                21.2025                 5.5988
 IR Inten    --    113.5060               224.2612                 5.8472

                    112                    113                    114
                      A                      A                      A
 Frequencies --   3023.7001              3036.9411              3042.5673
 Red. masses --      1.0461                 1.0661                 1.0359
 Frc consts  --      5.6351                 5.7931                 5.6498
 IR Inten    --     12.2589                29.8064                17.1495

                    115                    116                    117
                      A                      A                      A
 Frequencies --   3061.5714              3066.0277              3077.5032
 Red. masses --      1.0588                 1.0662                 1.0952
 Frc consts  --      5.8470                 5.9053                 6.1111
 IR Inten    --     14.0788                29.9970                 8.1239

                    118                    119                    120
                      A                      A                      A
 Frequencies --   3079.7627              3091.7057              3102.1003
 Red. masses --      1.0850                 1.0960                 1.0854
 Frc consts  --      6.0634                 6.1722                 6.1541
 IR Inten    --      0.0875                 4.4467                 1.5637

                    121                    122                    123
                      A                      A                      A
 Frequencies --   3109.7187              3118.8365              3124.5721
 Red. masses --      1.1066                 1.1019                 1.0977
 Frc consts  --      6.3049                 6.3150                 6.3143
 IR Inten    --      8.4675                16.5454                13.0694

                    124                    125                    126
                      A                      A                      A
 Frequencies --   3127.2990              3139.9819              3142.6925
 Red. masses --      1.1022                 1.1048                 1.0882
 Frc consts  --      6.3512                 6.4177                 6.3325
 IR Inten    --      8.4357                14.2695                19.1048

                    127                    128                    129
                      A                      A                      A
 Frequencies --   3152.7024              3175.2452              3188.9636
 Red. masses --      1.1008                 1.0863                 1.0913
 Frc consts  --      6.4463                 6.4532                 6.5389
 IR Inten    --     10.6025                 0.6135                 6.2981

                    130                    131                    132
                      A                      A                      A
 Frequencies --   3197.6508              3228.9611              3243.1854
 Red. masses --      1.0969                 1.0926                 1.0918
 Frc consts  --      6.6082                 6.7118                 6.7663
 IR Inten    --     11.4587                 1.5566                 2.8838

 - Thermochemistry -
 -------------------
 Temperature   298.150 Kelvin.  Pressure   1.00000 Atm.
 Atom     1 has atomic number  6 and mass  12.00000

 Molecular mass:   434.99839 amu.
 Principal axes and moments of inertia in atomic units:
                           1         2         3
     Eigenvalues --  9413.83974********************
           X            0.99715  -0.07435   0.01285
           Y            0.07394   0.99682   0.02969
           Z           -0.01502  -0.02866   0.99948
 This molecule is an asymmetric top.
 Rotational symmetry number  1.
 Warning -- assumption of classical behavior for rotation
           may cause significant error
 Rotational temperatures (Kelvin)      0.00920     0.00784     0.00667
 Rotational constants (GHZ):           0.19171     0.16328     0.13896
    1 imaginary frequencies ignored.
 Zero-point vibrational energy     944492.0 (Joules/Mol)
                                  225.73899 (Kcal/Mol)
 Warning -- explicit consideration of  42 degrees of freedom as
           vibrations may cause significant error
 Vibrational temperatures:     21.58    29.10    41.43    70.70    73.99
          (Kelvin)             79.28    91.48   114.20   124.21   129.09
                              141.38   150.14   165.46   177.41   181.32
                              205.19   210.19   238.85   250.48   276.80
                              292.97   301.59   321.45   372.45   389.30
                              413.41   456.81   485.33   506.78   516.13
                              545.90   569.81   572.56   578.13   591.59
                              607.73   650.63   685.17   727.71   744.67
                              790.92   831.15   898.21   934.68   993.05
                             1005.82  1082.57  1107.67  1127.79  1157.36
                             1186.41  1213.60  1219.34  1243.53  1289.56
                             1314.59  1366.98  1376.77  1395.51  1421.61
                             1425.10  1427.61  1443.14  1453.86  1457.12
                             1491.02  1505.99  1544.70  1569.55  1574.64
                             1602.98  1630.38  1635.57  1671.87  1683.82
                             1694.84  1730.41  1738.96  1763.74  1803.84
                             1829.07  1849.96  1904.13  1914.05  1921.92
                             1925.64  1961.39  1968.15  1979.31  1988.37
                             2014.71  2027.00  2037.20  2097.59  2105.19
                             2117.30  2120.11  2123.46  2130.59  2139.85
                             2144.44  2157.95  2166.23  2175.30  2187.52
                             2328.22  2359.91  2437.80  2543.76  4342.32
                             4350.43  4369.48  4377.58  4404.92  4411.33
                             4427.84  4431.09  4448.27  4463.23  4474.19
                             4487.31  4495.56  4499.49  4517.73  4521.63
                             4536.04  4568.47  4588.21  4600.71  4645.75
                             4666.22

 Zero-point correction=                           0.359738 (Hartree/Particle)
 Thermal correction to Energy=                    0.387214
 Thermal correction to Enthalpy=                  0.388159
 Thermal correction to Gibbs Free Energy=         0.296851
 Sum of electronic and zero-point Energies=          -3531.074707
 Sum of electronic and thermal Energies=             -3531.047231
 Sum of electronic and thermal Enthalpies=           -3531.046287
 Sum of electronic and thermal Free Energies=        -3531.137595

                     E (Thermal)             CV                S
                      KCal/Mol        Cal/Mol-Kelvin    Cal/Mol-Kelvin
 Total                  242.981             97.626            192.174
 Electronic               0.000              0.000              3.561
 Translational            0.889              2.981             44.100
 Rotational               0.889              2.981             35.556
 Vibrational            241.203             91.664            108.956
 Vibration     1          0.593              1.986              7.206
 Vibration     2          0.593              1.986              6.612
 Vibration     3          0.593              1.984              5.911
 Vibration     4          0.595              1.978              4.852
 Vibration     5          0.596              1.977              4.762
 Vibration     6          0.596              1.976              4.625
 Vibration     7          0.597              1.972              4.343
 Vibration     8          0.600              1.963              3.906
 Vibration     9          0.601              1.959              3.742
 Vibration    10          0.602              1.956              3.666
 Vibration    11          0.604              1.950              3.488
 Vibration    12          0.605              1.946              3.371
 Vibration    13          0.608              1.937              3.183
 Vibration    14          0.610              1.930              3.048
 Vibration    15          0.611              1.927              3.006
 Vibration    16          0.616              1.911              2.768
 Vibration    17          0.617              1.907              2.723
 Vibration    18          0.624              1.884              2.480
 Vibration    19          0.627              1.874              2.391
 Vibration    20          0.634              1.850              2.205
 Vibration    21          0.639              1.835              2.100
 Vibration    22          0.642              1.826              2.047
 Vibration    23          0.649              1.805              1.931
 Vibration    24          0.668              1.748              1.669
 Vibration    25          0.674              1.727              1.593
 Vibration    26          0.685              1.697              1.490
 Vibration    27          0.704              1.640              1.323
 Vibration    28          0.718              1.601              1.225
 Vibration    29          0.729              1.571              1.156
 Vibration    30          0.734              1.557              1.128
 Vibration    31          0.749              1.514              1.041
 Vibration    32          0.763              1.479              0.977
 Vibration    33          0.764              1.475              0.970
 Vibration    34          0.767              1.466              0.956
 Vibration    35          0.775              1.446              0.922
 Vibration    36          0.785              1.422              0.884
 Vibration    37          0.811              1.356              0.789
 Vibration    38          0.833              1.303              0.720
 Vibration    39          0.861              1.237              0.644
 Vibration    40          0.873              1.211              0.616
 Vibration    41          0.905              1.140              0.545
 Vibration    42          0.934              1.080              0.490

                           ! Non-Optimized Parameters !
 Normal termination of Gaussian 16 at Sun Jun 20 17:06:56 2021.

 ----------------------------------------------------------------------
 #p ub3lyp jul-cc-pvdz pop=cm5 scrf=(pcm,solvent=dichloroethane) guess=
 read geom=allcheck
 ----------------------------------------------------------------------

 Structure from the checkpoint file:  "checkpoint.chk"
 -----
 title
 -----
 Charge =  0 Multiplicity = 6

 SCF Done:  E(UB3LYP) =  -3531.45158278     A.U. after   18 cycles
 Normal termination of Gaussian 16 at Sun Jun 20 17:27:09 2021.
 Gaussian 16:  ES64L-G16RevA.03 25-Dec-2016

 ----------------------------------------------------------------------
 #p ub3lyp jul-cc-pvdz pop=cm5 scrf=(pcm,solvent=water) guess=read geom
 =allcheck
 ----------------------------------------------------------------------

 Structure from the checkpoint file:  "checkpoint.chk"
 -----
 title
 -----
 Charge =  0 Multiplicity = 6

                         Standard orientation:
 ---------------------------------------------------------------------
 Center     Atomic      Atomic             Coordinates (Angstroms)
 Number     Number       Type             X           Y           Z
 ---------------------------------------------------------------------
      1          6           0        3.165847    0.341168    0.648291
      2          6           0        1.899097   -0.270488    0.760683
      3          6           0        1.563913   -0.921217    1.968463
      4          6           0        2.472774   -0.974327    3.021334
      5          6           0        3.731429   -0.376193    2.891211
      6          6           0        4.071121    0.285877    1.705938
      7          6           0        0.881912   -0.214605   -0.311585
      8          6           0        0.997134    0.721716   -1.530027
      9          6           0        2.070487    0.345953   -2.567927
     10          6           0        1.896989   -1.119338   -2.997485
     11          6           0        1.826106   -2.001548   -1.783093
     12          6           0        0.746162   -2.682776   -1.337517
     13          6           0       -0.571607   -2.745385   -2.058051
     14          8           0       -0.241337   -0.752111   -0.093579
     15         26           0       -2.098090   -0.336380    0.431746
     16         17           0       -3.096141    0.513674   -1.339856
     17          6           0        0.843754   -3.570570   -0.130821
     18         17           0       -1.932337    1.046340    2.141057
     19         17           0       -2.929745   -2.284743    1.051127
     20          1           0        0.577588   -1.364836    2.079243
     21          1           0        2.195364   -1.473596    3.950075
     22          1           0        4.443075   -0.415400    3.717555
     23          1           0        5.043785    0.768740    1.607318
     24          1           0        3.443145    0.884334   -0.249720
     25          1           0        0.008102    0.657410   -2.001515
     26          6           0        1.156291    2.182419   -1.068027
     27          1           0        1.970052    1.024010   -3.426779
     28          1           0        3.075084    0.512668   -2.164031
     29          1           0        0.996463   -1.221615   -3.616188
     30          1           0        2.749064   -1.411273   -3.630495
     31          1           0        2.759270   -2.111419   -1.224657
     32          1           0        1.834610   -3.533786    0.337682
     33          1           0        0.075933   -3.306889    0.611245
     34          1           0        0.638586   -4.613021   -0.424127
     35          1           0       -0.595837   -3.668150   -2.662010
     36          1           0       -1.406632   -2.812572   -1.350132
     37          1           0       -0.753268   -1.902115   -2.731212
     38          8           0       -0.008293    2.661352   -0.624177
     39          8           0        2.191547    2.811912   -1.124163
     40          6           0       -0.017198    4.043525   -0.150730
     41          6           0       -1.459112    4.438319    0.088290
     42          1           0        0.586079    4.083809    0.766529
     43          1           0        0.471862    4.665166   -0.911590
     44          1           0       -1.490135    5.473975    0.456731
     45          1           0       -2.040816    4.382269   -0.841748
     46          1           0       -1.927170    3.784140    0.834507
 ---------------------------------------------------------------------

 SCF Done:  E(UB3LYP) =  -3531.45486846     A.U. after   16 cycles

 The electronic state is 6-A.
 Alpha  occ. eigenvalues -- -256.21375-101.52666-101.52662-101.52640 -30.20750
 Alpha  occ. eigenvalues --  -26.06175 -26.05929 -26.05848 -19.20995 -19.19056
 Alpha  occ. eigenvalues --  -19.16046 -10.34008 -10.33576 -10.25122 -10.23302
 Alpha  occ. eigenvalues --  -10.22778 -10.21870 -10.21866 -10.21760 -10.21716
 Alpha  occ. eigenvalues --  -10.21146 -10.21116 -10.20511 -10.19553 -10.19001
 Alpha  occ. eigenvalues --  -10.18632 -10.18598 -10.18583  -9.44391  -9.44378
 Alpha  occ. eigenvalues --   -9.44358  -7.20259  -7.20249  -7.20226  -7.19942
 Alpha  occ. eigenvalues --   -7.19934  -7.19931  -7.19915  -7.19911  -7.19901
 Alpha  occ. eigenvalues --   -3.68411  -2.46109  -2.45656  -2.45492  -1.12926
 Alpha  occ. eigenvalues --   -1.09705  -1.04432  -0.88545  -0.85196  -0.82628
 Alpha  occ. eigenvalues --   -0.80695  -0.79934  -0.79917  -0.78923  -0.78644
 Alpha  occ. eigenvalues --   -0.77202  -0.74996  -0.70346  -0.69757  -0.67210
 Alpha  occ. eigenvalues --   -0.64771  -0.62880  -0.61721  -0.59933  -0.57776
 Alpha  occ. eigenvalues --   -0.56218  -0.53745  -0.53067  -0.51947  -0.50685
 Alpha  occ. eigenvalues --   -0.50229  -0.49323  -0.49099  -0.48580  -0.48484
 Alpha  occ. eigenvalues --   -0.48138  -0.47366  -0.47127  -0.46996  -0.45820
 Alpha  occ. eigenvalues --   -0.45514  -0.45131  -0.44161  -0.43127  -0.42546
 Alpha  occ. eigenvalues --   -0.42364  -0.40976  -0.40531  -0.40044  -0.39523
 Alpha  occ. eigenvalues --   -0.39000  -0.38289  -0.37899  -0.37808  -0.37676
 Alpha  occ. eigenvalues --   -0.37206  -0.37121  -0.36565  -0.36207  -0.35120
 Alpha  occ. eigenvalues --   -0.34922  -0.34336  -0.33660  -0.32501  -0.32277
 Alpha  occ. eigenvalues --   -0.31491  -0.31462  -0.31206  -0.31089  -0.30325
 Alpha  occ. eigenvalues --   -0.30033  -0.29733  -0.28659  -0.27857  -0.24818
 Alpha virt. eigenvalues --   -0.11264  -0.03484  -0.02234  -0.01694  -0.01033
 Alpha virt. eigenvalues --   -0.00145   0.00014   0.00090   0.00950   0.01535
 Alpha virt. eigenvalues --    0.01688   0.01972   0.02418   0.02780   0.03176

  Beta  occ. eigenvalues -- -256.21190-101.52478-101.52468-101.52451 -30.11817
  Beta  occ. eigenvalues --  -25.98605 -25.98531 -25.98481 -19.20994 -19.18676
  Beta  occ. eigenvalues --  -19.16044 -10.34006 -10.33553 -10.25122 -10.23291
  Beta  occ. eigenvalues --  -10.22762 -10.21869 -10.21863 -10.21760 -10.21691
  Beta  occ. eigenvalues --  -10.21145 -10.21116 -10.20508 -10.19554 -10.18966
  Beta  occ. eigenvalues --  -10.18631 -10.18599 -10.18585  -9.44206  -9.44188
  Beta  occ. eigenvalues --   -9.44172  -7.19950  -7.19935  -7.19919  -7.19686
  Beta  occ. eigenvalues --   -7.19678  -7.19669  -7.19654  -7.19653  -7.19642
  Beta  occ. eigenvalues --   -3.47575  -2.23861  -2.23792  -2.23728  -1.12920
  Beta  occ. eigenvalues --   -1.08971  -1.04429  -0.88511  -0.85134  -0.82566
  Beta  occ. eigenvalues --   -0.79464  -0.78882  -0.78677  -0.78593  -0.78545
  Beta  occ. eigenvalues --   -0.77197  -0.74963  -0.70322  -0.69647  -0.67091
  Beta  occ. eigenvalues --   -0.64725  -0.62852  -0.61608  -0.59521  -0.57576
  Beta  occ. eigenvalues --   -0.55657  -0.53375  -0.52756  -0.51868  -0.50502
  Beta  occ. eigenvalues --   -0.49727  -0.49037  -0.47885  -0.47269  -0.46904
  Beta  occ. eigenvalues --   -0.45565  -0.45247  -0.44162  -0.43148  -0.42538
  Beta  occ. eigenvalues --   -0.42319  -0.41004  -0.40498  -0.40050  -0.39492
  Beta  occ. eigenvalues --   -0.38875  -0.38443  -0.38213  -0.37831  -0.37761
  Beta  occ. eigenvalues --   -0.37201  -0.37096  -0.36568  -0.36355  -0.36291
  Beta  occ. eigenvalues --   -0.36192  -0.35102  -0.33860  -0.33603  -0.33356
  Beta  occ. eigenvalues --   -0.32816  -0.32731  -0.32279  -0.31457  -0.30732
  Beta  occ. eigenvalues --   -0.29904  -0.29704  -0.28838  -0.27856  -0.24685
  Beta virt. eigenvalues --   -0.15461  -0.14929  -0.14138  -0.13668  -0.13628
  Beta virt. eigenvalues --   -0.10303  -0.03466  -0.02202  -0.01584  -0.00953
  Beta virt. eigenvalues --   -0.00106   0.00051   0.00130   0.01105   0.01555

 Mulliken charges and spin densities:
               1          2
     1  C    0.131189   0.001135
     2  C    3.041777  -0.006594
     3  C   -0.658616  -0.005302
     4  C    0.095016   0.001895
     5  C    0.301284   0.003441
     6  C   -0.140780   0.000869
     7  C   -2.247122   0.001232
     8  C    0.396308   0.013534
     9  C    0.551802   0.004112
    10  C    0.614521  -0.002026
    11  C    0.199418   0.022864
    12  C   -0.017477   0.015689
    13  C    0.174275  -0.001092
    14  O   -0.308371   0.108960
    15  Fe   0.695185   4.064870
    16  Cl  -0.509562   0.252345
    17  C    0.258329  -0.000713
    18  Cl  -0.474152   0.259029
    19  Cl  -0.479065   0.258169
    20  H   -0.253251  -0.000538
    21  H   -0.157437   0.000017
    22  H   -0.148026  -0.000041
    23  H   -0.153274   0.000130
    24  H   -0.201510  -0.000098
    25  H   -0.174496  -0.001050
    26  C    0.774264   0.002255
    27  H   -0.127402   0.000242
    28  H   -0.020514  -0.000006
    29  H   -0.086686   0.000022
    30  H   -0.117484   0.001267
    31  H   -0.262179  -0.000981
    32  H   -0.020238   0.000036
    33  H    0.057064   0.000501
    34  H   -0.029017   0.001191
    35  H   -0.014243   0.001259
    36  H    0.047360   0.001597
    37  H    0.037390  -0.000172
    38  O   -0.658469   0.001981
    39  O   -0.565346   0.001043
    40  C    0.428407   0.000731
    41  C    0.041029  -0.001472
    42  H   -0.032107   0.000028
    43  H   -0.036205   0.000019
    44  H   -0.007749   0.000060
    45  H    0.027185   0.000054
    46  H    0.028974  -0.000492
 Sum of Mulliken charges =  -0.00000   5.00000

 Dipole moment (field-independent basis, Debye):
    X=             10.2334    Y=             -0.8132    Z=             -1.7959  Tot=             10.4216
 Quadrupole moment (field-independent basis, Debye-Ang):
   XX=           -187.2144   YY=           -169.0717   ZZ=           -167.5621
   XY=            -11.5750   XZ=             10.5619   YZ=              2.8421

 Normal termination of Gaussian 16 at Sun Jun 20 17:44:55 2021.
