 Gaussian 16, Revision A.03,

 -----------------------------------------------------------
 #p opt=modredundant freq=noraman ub3lyp jul-cc-pvdz pop=cm5
 -----------------------------------------------------------

 -----
 title
 -----
 Symbolic Z-matrix:
 Charge =  0 Multiplicity = 6

 SCF Done:  E(UB3LYP) =  -3531.44293841     A.U. after   24 cycles
 SCF Done:  E(UB3LYP) =  -3531.44197091     A.U. after   18 cycles
 SCF Done:  E(UB3LYP) =  -3531.44126577     A.U. after   18 cycles
 SCF Done:  E(UB3LYP) =  -3531.44126581     A.U. after   17 cycles
 SCF Done:  E(UB3LYP) =  -3531.44314429     A.U. after   12 cycles
 SCF Done:  E(UB3LYP) =  -3531.44291023     A.U. after   17 cycles
 SCF Done:  E(UB3LYP) =  -3531.44338894     A.U. after   17 cycles
 SCF Done:  E(UB3LYP) =  -3531.44340318     A.U. after   15 cycles
 SCF Done:  E(UB3LYP) =  -3531.44360252     A.U. after   15 cycles
 SCF Done:  E(UB3LYP) =  -3531.44361156     A.U. after   12 cycles
 SCF Done:  E(UB3LYP) =  -3531.44363722     A.U. after   12 cycles
 SCF Done:  E(UB3LYP) =  -3531.44363828     A.U. after   12 cycles
 SCF Done:  E(UB3LYP) =  -3531.44363890     A.U. after   12 cycles
 SCF Done:  E(UB3LYP) =  -3531.44363898     A.U. after   12 cycles
 SCF Done:  E(UB3LYP) =  -3531.44363903     A.U. after   12 cycles
 SCF Done:  E(UB3LYP) =  -3531.44363892     A.U. after   11 cycles
 SCF Done:  E(UB3LYP) =  -3531.44363892     A.U. after   10 cycles
 Optimization completed.
    -- Stationary point found.
 Normal termination of Gaussian 16 at Sun Jun 20 16:48:08 2021.

 ----------------------------------------------------------------------
 #P Geom=AllCheck Guess=TCheck SCRF=Check GenChk UB3LYP/Jul-CC-pVDZ Fre
 q
 ----------------------------------------------------------------------

 Structure from the checkpoint file:  "checkpoint.chk"
 -----
 title
 -----
 Charge =  0 Multiplicity = 6

 SCF Done:  E(UB3LYP) =  -3531.44363892     A.U. after    1 cycles

  Exact polarizability: 308.454   8.535 306.709  25.924   4.252 305.332
 Approx polarizability: 470.128  43.279 481.494  54.698  -0.102 490.658

 ******    1 imaginary frequencies (negative Signs) ******

                      1                      2                      3
                      A                      A                      A
 Frequencies --    -13.7614                17.0351                20.9176
 Red. masses --      5.8070                 7.3103                 9.2995
 Frc consts  --      0.0006                 0.0012                 0.0024
 IR Inten    --      0.2557                 0.4454                 0.5363

                      4                      5                      6
                      A                      A                      A
 Frequencies --     31.9411                44.8683                54.6925
 Red. masses --      4.6016                 6.7663                 4.8078
 Frc consts  --      0.0028                 0.0080                 0.0085
 IR Inten    --      1.7086                 1.3770                 1.0208

                      7                      8                      9
                      A                      A                      A
 Frequencies --     61.6833                67.8620                77.4212
 Red. masses --      2.9803                 4.1455                 4.5621
 Frc consts  --      0.0067                 0.0112                 0.0161
 IR Inten    --      0.2101                 1.2698                 0.8990

                     10                     11                     12
                      A                      A                      A
 Frequencies --     80.8689                89.6437                99.6322
 Red. masses --      9.4209                 7.7824                 2.8047
 Frc consts  --      0.0363                 0.0368                 0.0164
 IR Inten    --      0.1385                 2.1509                 1.2841

                     13                     14                     15
                      A                      A                      A
 Frequencies --    105.5127               108.1177               115.0624
 Red. masses --      2.2536                 3.7286                11.3608
 Frc consts  --      0.0148                 0.0257                 0.0886
 IR Inten    --      1.6583                 0.5921                 0.0340

                     16                     17                     18
                      A                      A                      A
 Frequencies --    119.8887               130.4862               150.3100
 Red. masses --     13.6078                 3.6176                 2.7582
 Frc consts  --      0.1152                 0.0363                 0.0367
 IR Inten    --      2.0791                 1.7255                 3.5250

                     19                     20                     21
                      A                      A                      A
 Frequencies --    152.6068               161.1229               186.3735
 Red. masses --      2.5876                 5.4208                 3.7418
 Frc consts  --      0.0355                 0.0829                 0.0766
 IR Inten    --      2.3030                11.8431                 9.2671

                     22                     23                     24
                      A                      A                      A
 Frequencies --    207.3086               212.1971               214.4252
 Red. masses --      3.5684                 1.1647                 2.9463
 Frc consts  --      0.0904                 0.0309                 0.0798
 IR Inten    --      0.9401                 5.6107                 3.8960

                     25                     26                     27
                      A                      A                      A
 Frequencies --    259.2969               269.3422               284.5549
 Red. masses --      1.5310                 3.5547                 4.1387
 Frc consts  --      0.0607                 0.1519                 0.1974
 IR Inten    --      1.7985                30.3617                 3.7674

                     28                     29                     30
                      A                      A                      A
 Frequencies --    317.5337               330.6515               342.1609
 Red. masses --      2.3673                 9.3612                13.0216
 Frc consts  --      0.1406                 0.6030                 0.8982
 IR Inten    --      0.6210                 3.1810                29.3306

                     31                     32                     33
                      A                      A                      A
 Frequencies --    357.1229               379.4581               393.2648
 Red. masses --      6.9348                 3.9043                 3.0106
 Frc consts  --      0.5211                 0.3312                 0.2743
 IR Inten    --     37.8880                 3.5420                18.4975

                     34                     35                     36
                      A                      A                      A
 Frequencies --    398.0020               405.1535               414.8715
 Red. masses --     12.9639                30.9923                 3.0277
 Frc consts  --      1.2099                 2.9974                 0.3070
 IR Inten    --     59.5036                76.8436                 3.9357

                     37                     38                     39
                      A                      A                      A
 Frequencies --    421.6076               448.3567               475.2789
 Red. masses --      3.7736                 3.0418                 3.2153
 Frc consts  --      0.3952                 0.3603                 0.4279
 IR Inten    --     34.9282                 6.4807                 4.4674

                     40                     41                     42
                      A                      A                      A
 Frequencies --    502.4726               513.9257               546.4700
 Red. masses --      2.6726                 2.7753                 3.9197
 Frc consts  --      0.3976                 0.4319                 0.6897
 IR Inten    --     16.0962                 0.8245                19.3070

                     43                     44                     45
                      A                      A                      A
 Frequencies --    580.3775               624.1641               649.5525
 Red. masses --      4.2863                 6.3732                 4.4356
 Frc consts  --      0.8506                 1.4629                 1.1026
 IR Inten    --     69.9090                 3.5987                64.4422

                     46                     47                     48
                      A                      A                      A
 Frequencies --    697.0069               700.7258               754.2538
 Red. masses --      1.6193                 5.8918                 4.4920
 Frc consts  --      0.4635                 1.7045                 1.5056
 IR Inten    --     51.2660                16.0169                 5.9701

                     49                     50                     51
                      A                      A                      A
 Frequencies --    772.4415               786.3243               804.9982
 Red. masses --      2.3202                 2.2654                 1.1574
 Frc consts  --      0.8157                 0.8253                 0.4419
 IR Inten    --     29.3140                 4.2971                 2.0609

                     52                     53                     54
                      A                      A                      A
 Frequencies --    828.7378               846.0541               852.4322
 Red. masses --      4.3766                 1.4714                 1.2490
 Frc consts  --      1.7710                 0.6206                 0.5347
 IR Inten    --     11.6402                20.4461                 0.5324

                     55                     56                     57
                      A                      A                      A
 Frequencies --    865.6625               898.2120               911.7582
 Red. masses --      2.8033                 2.0741                 2.1298
 Frc consts  --      1.2377                 0.9859                 1.0432
 IR Inten    --     29.8836                 2.2312                15.5858

                     58                     59                     60
                      A                      A                      A
 Frequencies --    958.8634               960.6650               972.6136
 Red. masses --      1.4421                 1.4582                 3.0791
 Frc consts  --      0.7812                 0.7929                 1.7162
 IR Inten    --      1.8025                 3.0990                24.0529

                     61                     62                     63
                      A                      A                      A
 Frequencies --    988.9978               991.7593               998.2146
 Red. masses --      1.6993                 1.7169                 1.6573
 Frc consts  --      0.9793                 0.9949                 0.9730
 IR Inten    --     32.3323                10.9779                 4.6025

                     64                     65                     66
                      A                      A                      A
 Frequencies --   1003.7364              1013.9431              1016.2538
 Red. masses --      2.9904                 1.3682                 2.0328
 Frc consts  --      1.7751                 0.8287                 1.2369
 IR Inten    --      0.6470                 0.9863                 0.4059

                     67                     68                     69
                      A                      A                      A
 Frequencies --   1036.2435              1047.0574              1076.6321
 Red. masses --      2.6224                 2.4294                 2.2126
 Frc consts  --      1.6591                 1.5692                 1.5111
 IR Inten    --     38.7829                 3.0256                 2.7813

                     70                     71                     72
                      A                      A                      A
 Frequencies --   1094.0903              1098.1195              1116.5011
 Red. masses --      1.7603                 2.0839                 1.5757
 Frc consts  --      1.2415                 1.4806                 1.1573
 IR Inten    --      2.6980                13.9607                 7.8960

                     73                     74                     75
                      A                      A                      A
 Frequencies --   1133.1347              1138.5079              1164.5259
 Red. masses --      2.1740                 2.1854                 1.6717
 Frc consts  --      1.6447                 1.6690                 1.3357
 IR Inten    --     15.1278                11.4093                86.9046

                     76                     77                     78
                      A                      A                      A
 Frequencies --   1170.1258              1178.9635              1203.6168
 Red. masses --      1.5958                 1.0857                 1.5400
 Frc consts  --      1.2873                 0.8891                 1.3145
 IR Inten    --     18.1420                 1.3935                46.2621

                     79                     80                     81
                      A                      A                      A
 Frequencies --   1209.5650              1226.8651              1255.1573
 Red. masses --      1.2981                 2.0042                 1.9752
 Frc consts  --      1.1190                 1.7774                 1.8334
 IR Inten    --     59.2213               149.1135                24.2679

                     82                     83                     84
                      A                      A                      A
 Frequencies --   1274.4157              1285.0481              1322.9796
 Red. masses --      2.2990                 1.1285                 1.3851
 Frc consts  --      2.1999                 1.0979                 1.4283
 IR Inten    --    181.8997                 4.0779                 4.9744

                     85                     86                     87
                      A                      A                      A
 Frequencies --   1329.2567              1336.6720              1341.8032
 Red. masses --      1.5847                 1.5583                 1.7152
 Frc consts  --      1.6497                 1.6404                 1.8195
 IR Inten    --    118.3493                34.8601                25.7214

                     88                     89                     90
                      A                      A                      A
 Frequencies --   1366.3624              1370.6681              1377.8646
 Red. masses --      1.8348                 2.0690                 1.3163
 Frc consts  --      2.0182                 2.2902                 1.4724
 IR Inten    --      5.0872                12.7458                 5.3852

                     91                     92                     93
                      A                      A                      A
 Frequencies --   1381.6307              1405.7635              1409.3963
 Red. masses --      1.3818                 1.3643                 1.3535
 Frc consts  --      1.5541                 1.5884                 1.5840
 IR Inten    --     24.8471                 6.1850                21.0210

                     94                     95                     96
                      A                      A                      A
 Frequencies --   1415.7378              1460.9508              1465.2343
 Red. masses --      1.4099                 1.1152                 1.8038
 Frc consts  --      1.6649                 1.4025                 2.2816
 IR Inten    --     13.7960                13.5714                31.8779

                     97                     98                     99
                      A                      A                      A
 Frequencies --   1466.2510              1474.0127              1480.5677
 Red. masses --      1.1852                 1.0387                 1.0821
 Frc consts  --      1.5012                 1.3297                 1.3976
 IR Inten    --     14.2410                 4.8800                 3.1732

                    100                    101                    102
                      A                      A                      A
 Frequencies --   1482.1950              1485.9303              1489.3787
 Red. masses --      1.0504                 1.0539                 1.0996
 Frc consts  --      1.3596                 1.3711                 1.4371
 IR Inten    --     17.3923                 1.5840                 9.0400

                    103                    104                    105
                      A                      A                      A
 Frequencies --   1491.4044              1504.3837              1517.6341
 Red. masses --      1.0969                 1.0838                 2.1738
 Frc consts  --      1.4375                 1.4452                 2.9499
 IR Inten    --     10.1035                 6.3239                21.4674

                    106                    107                    108
                      A                      A                      A
 Frequencies --   1538.5741              1618.9680              1640.6691
 Red. masses --      5.8130                 5.4054                 5.6249
 Frc consts  --      8.1075                 8.3475                 8.9209
 IR Inten    --    636.7299                23.6474                42.0871

                    109                    110                    111
                      A                      A                      A
 Frequencies --   1703.4163              1768.2846              3016.9351
 Red. masses --      6.2585                11.3684                 1.0388
 Frc consts  --     10.6995                20.9436                 5.5710
 IR Inten    --     96.1522               215.7350                10.9585

                    112                    113                    114
                      A                      A                      A
 Frequencies --   3028.1114              3034.9782              3042.1941
 Red. masses --      1.0433                 1.0651                 1.0356
 Frc consts  --      5.6362                 5.7805                 5.6471
 IR Inten    --     12.8021                31.0991                15.8088

                    115                    116                    117
                      A                      A                      A
 Frequencies --   3063.0393              3066.7207              3074.0952
 Red. masses --      1.0581                 1.0661                 1.0966
 Frc consts  --      5.8492                 5.9074                 6.1057
 IR Inten    --     12.5832                29.8181                 5.5185

                    118                    119                    120
                      A                      A                      A
 Frequencies --   3084.6516              3086.0306              3089.1370
 Red. masses --      1.0935                 1.0864                 1.0957
 Frc consts  --      6.1305                 6.0960                 6.1605
 IR Inten    --     12.3732                 2.7033                 3.4230

                    121                    122                    123
                      A                      A                      A
 Frequencies --   3109.5416              3119.0217              3122.4643
 Red. masses --      1.1068                 1.1024                 1.1017
 Frc consts  --      6.3052                 6.3187                 6.3289
 IR Inten    --      7.6880                15.4534                 8.6247

                    124                    125                    126
                      A                      A                      A
 Frequencies --   3126.0922              3136.1705              3138.5839
 Red. masses --      1.0974                 1.0887                 1.1051
 Frc consts  --      6.3187                 6.3092                 6.4141
 IR Inten    --      7.4236                19.4587                17.6445

                    127                    128                    129
                      A                      A                      A
 Frequencies --   3143.1832              3175.3753              3189.1782
 Red. masses --      1.0976                 1.0864                 1.0912
 Frc consts  --      6.3893                 6.4538                 6.5392
 IR Inten    --     24.0753                 0.9810                 7.1099

                    130                    131                    132
                      A                      A                      A
 Frequencies --   3197.7251              3221.8663              3232.5456
 Red. masses --      1.0966                 1.0934                 1.0929
 Frc consts  --      6.6064                 6.6873                 6.7284
 IR Inten    --      9.4538                 4.0757                 6.8950

 - Thermochemistry -
 -------------------
 Temperature   298.150 Kelvin.  Pressure   1.00000 Atm.
 Atom     1 has atomic number  6 and mass  12.00000

 Molecular mass:   434.99839 amu.
 Principal axes and moments of inertia in atomic units:
                           1         2         3
     Eigenvalues --  9801.67519********************
           X            0.98840  -0.15187   0.00295
           Y            0.15171   0.98792   0.03153
           Z           -0.00771  -0.03072   0.99950
 This molecule is an asymmetric top.
 Rotational symmetry number  1.
 Warning -- assumption of classical behavior for rotation
           may cause significant error
 Rotational temperatures (Kelvin)      0.00884     0.00782     0.00671
 Rotational constants (GHZ):           0.18413     0.16300     0.13979
    1 imaginary frequencies ignored.
 Zero-point vibrational energy     944448.5 (Joules/Mol)
                                  225.72860 (Kcal/Mol)
 Warning -- explicit consideration of  42 degrees of freedom as
           vibrations may cause significant error
 Vibrational temperatures:     24.51    30.10    45.96    64.56    78.69
          (Kelvin)             88.75    97.64   111.39   116.35   128.98
                              143.35   151.81   155.56   165.55   172.49
                              187.74   216.26   219.57   231.82   268.15
                              298.27   305.30   308.51   373.07   387.52
                              409.41   456.86   475.73   492.29   513.82
                              545.96   565.82   572.64   582.93   596.91
                              606.60   645.09   683.82   722.95   739.42
                              786.25   835.03   898.03   934.56  1002.84
                             1008.19  1085.20  1111.37  1131.35  1158.21
                             1192.37  1217.28  1226.46  1245.50  1292.33
                             1311.82  1379.59  1382.18  1399.37  1422.95
                             1426.92  1436.21  1444.15  1458.84  1462.16
                             1490.92  1506.48  1549.03  1574.15  1579.95
                             1606.40  1630.33  1638.06  1675.49  1683.55
                             1696.27  1731.74  1740.29  1765.19  1805.89
                             1833.60  1848.90  1903.47  1912.50  1923.17
                             1930.56  1965.89  1972.09  1982.44  1987.86
                             2022.58  2027.81  2036.93  2101.98  2108.15
                             2109.61  2120.78  2130.21  2132.55  2137.92
                             2142.88  2145.80  2164.47  2183.54  2213.66
                             2329.33  2360.56  2450.84  2544.17  4340.70
                             4356.78  4366.66  4377.04  4407.03  4412.33
                             4422.94  4438.13  4440.11  4444.58  4473.94
                             4487.58  4492.53  4497.75  4512.25  4515.72
                             4522.34  4568.66  4588.52  4600.81  4635.55
                             4650.91

 Zero-point correction=                           0.359721 (Hartree/Particle)
 Thermal correction to Energy=                    0.387301
 Thermal correction to Enthalpy=                  0.388245
 Thermal correction to Gibbs Free Energy=         0.296806
 Sum of electronic and zero-point Energies=          -3531.083917
 Sum of electronic and thermal Energies=             -3531.056338
 Sum of electronic and thermal Enthalpies=           -3531.055393
 Sum of electronic and thermal Free Energies=        -3531.146833

                     E (Thermal)             CV                S
                      KCal/Mol        Cal/Mol-Kelvin    Cal/Mol-Kelvin
 Total                  243.035             97.641            192.451
 Electronic               0.000              0.000              3.561
 Translational            0.889              2.981             44.100
 Rotational               0.889              2.981             35.592
 Vibrational            241.258             91.679            109.198
 Vibration     1          0.593              1.986              6.953
 Vibration     2          0.593              1.986              6.545
 Vibration     3          0.594              1.983              5.705
 Vibration     4          0.595              1.979              5.032
 Vibration     5          0.596              1.976              4.640
 Vibration     6          0.597              1.973              4.403
 Vibration     7          0.598              1.970              4.214
 Vibration     8          0.599              1.964              3.955
 Vibration     9          0.600              1.962              3.870
 Vibration    10          0.602              1.957              3.668
 Vibration    11          0.604              1.949              3.462
 Vibration    12          0.605              1.945              3.350
 Vibration    13          0.606              1.943              3.302
 Vibration    14          0.608              1.937              3.182
 Vibration    15          0.609              1.933              3.102
 Vibration    16          0.612              1.923              2.939
 Vibration    17          0.618              1.902              2.668
 Vibration    18          0.619              1.900              2.639
 Vibration    19          0.622              1.890              2.537
 Vibration    20          0.632              1.859              2.264
 Vibration    21          0.641              1.829              2.067
 Vibration    22          0.643              1.822              2.025
 Vibration    23          0.644              1.819              2.006
 Vibration    24          0.668              1.747              1.667
 Vibration    25          0.674              1.730              1.600
 Vibration    26          0.683              1.702              1.506
 Vibration    27          0.704              1.640              1.323
 Vibration    28          0.713              1.614              1.257
 Vibration    29          0.721              1.591              1.202
 Vibration    30          0.732              1.561              1.135
 Vibration    31          0.749              1.514              1.041
 Vibration    32          0.760              1.485              0.988
 Vibration    33          0.764              1.474              0.970
 Vibration    34          0.770              1.459              0.944
 Vibration    35          0.778              1.438              0.910
 Vibration    36          0.784              1.423              0.887
 Vibration    37          0.807              1.365              0.801
 Vibration    38          0.832              1.305              0.723
 Vibration    39          0.858              1.245              0.652
 Vibration    40          0.869              1.219              0.624
 Vibration    41          0.902              1.147              0.552
 Vibration    42          0.937              1.074              0.485

                           ! Non-Optimized Parameters !
 Normal termination of Gaussian 16 at Sun Jun 20 20:11:06 2021.

 ----------------------------------------------------------------------
 #p ub3lyp jul-cc-pvdz pop=cm5 scrf=(pcm,solvent=dichloroethane) guess=
 read geom=allcheck
 ----------------------------------------------------------------------

 Structure from the checkpoint file:  "checkpoint.chk"
 -----
 title
 -----
 Charge =  0 Multiplicity = 6

 SCF Done:  E(UB3LYP) =  -3531.46085096     A.U. after   18 cycles
 Normal termination of Gaussian 16 at Sun Jun 20 20:32:40 2021.
 Gaussian 16:  ES64L-G16RevA.03 25-Dec-2016

 ----------------------------------------------------------------------
 #p ub3lyp jul-cc-pvdz pop=cm5 scrf=(pcm,solvent=water) guess=read geom
 =allcheck
 ----------------------------------------------------------------------

 Structure from the checkpoint file:  "checkpoint.chk"
 -----
 title
 -----
 Charge =  0 Multiplicity = 6

                         Standard orientation:
 ---------------------------------------------------------------------
 Center     Atomic      Atomic             Coordinates (Angstroms)
 Number     Number       Type             X           Y           Z
 ---------------------------------------------------------------------
      1          6           0        2.825947    0.709110    1.215193
      2          6           0        1.751775   -0.148355    0.894720
      3          6           0        1.430284   -1.198920    1.782710
      4          6           0        2.173699   -1.398449    2.941374
      5          6           0        3.242662   -0.546067    3.244260
      6          6           0        3.559134    0.510470    2.384064
      7          6           0        0.910994    0.045417   -0.303573
      8          6           0        1.159169    1.148371   -1.345214
      9          6           0        2.499385    1.079445   -2.094513
     10          6           0        2.597284   -0.256711   -2.848299
     11          6           0        2.339420   -1.408989   -1.917358
     12          6           0        1.281030   -2.248121   -1.917839
     13          6           0        0.135274   -2.186688   -2.887864
     14          8           0       -0.184449   -0.569207   -0.393499
     15         26           0       -2.013913   -0.692645    0.356311
     16         17           0       -3.379674   -0.142685   -1.275661
     17          6           0        1.212311   -3.394435   -0.947236
     18         17           0       -2.048502    0.698011    2.063832
     19         17           0       -2.237400   -2.796989    0.987709
     20          1           0        0.592289   -1.855893    1.560855
     21          1           0        1.912819   -2.213768    3.616580
     22          1           0        3.821764   -0.699480    4.156367
     23          1           0        4.376584    1.189800    2.627622
     24          1           0        3.068736    1.557976    0.582216
     25          1           0        0.342191    1.009847   -2.064222
     26          6           0        0.921446    2.531145   -0.708333
     27          1           0        2.552107    1.926882   -2.791875
     28          1           0        3.342592    1.194970   -1.404995
     29          1           0        1.888689   -0.256717   -3.686721
     30          1           0        3.603320   -0.347578   -3.286438
     31          1           0        3.128505   -1.599265   -1.184208
     32          1           0        2.063291   -3.403431   -0.255065
     33          1           0        0.275306   -3.369764   -0.370832
     34          1           0        1.208719   -4.349085   -1.497888
     35          1           0        0.113733   -3.110698   -3.487838
     36          1           0       -0.823915   -2.142807   -2.352432
     37          1           0        0.180087   -1.336758   -3.576412
     38          8           0       -0.387256    2.773319   -0.601832
     39          8           0        1.801206    3.296259   -0.374023
     40          6           0       -0.777337    4.036991    0.019855
     41          6           0       -2.284529    4.144206   -0.072020
     42          1           0       -0.421825    4.019644    1.058724
     43          1           0       -0.260750    4.848393   -0.509246
     44          1           0       -2.606354    5.084709    0.398044
     45          1           0       -2.616283    4.148483   -1.119297
     46          1           0       -2.768744    3.308111    0.448279
 ---------------------------------------------------------------------

 SCF Done:  E(UB3LYP) =  -3531.46415636     A.U. after   15 cycles

 The electronic state is 6-A.
 Alpha  occ. eigenvalues -- -256.21629-101.52889-101.52800-101.52744 -30.21010
 Alpha  occ. eigenvalues --  -26.06461 -26.06157 -26.06112 -19.21118 -19.19592
 Alpha  occ. eigenvalues --  -19.16209 -10.34184 -10.33612 -10.25193 -10.23339
 Alpha  occ. eigenvalues --  -10.22890 -10.21959 -10.21950 -10.21840 -10.21202
 Alpha  occ. eigenvalues --  -10.21196 -10.21159 -10.20445 -10.19518 -10.18905
 Alpha  occ. eigenvalues --  -10.18716 -10.18530 -10.18377  -9.44598  -9.44520
 Alpha  occ. eigenvalues --   -9.44476  -7.20468  -7.20390  -7.20344  -7.20164
 Alpha  occ. eigenvalues --   -7.20133  -7.20073  -7.20059  -7.20023  -7.20020
 Alpha  occ. eigenvalues --   -3.68660  -2.46410  -2.45836  -2.45749  -1.13053
 Alpha  occ. eigenvalues --   -1.10051  -1.04577  -0.88632  -0.85116  -0.82393
 Alpha  occ. eigenvalues --   -0.80848  -0.80105  -0.80050  -0.79033  -0.78639
 Alpha  occ. eigenvalues --   -0.77285  -0.75026  -0.70101  -0.69551  -0.67374
 Alpha  occ. eigenvalues --   -0.64753  -0.62954  -0.61856  -0.59983  -0.57786
 Alpha  occ. eigenvalues --   -0.56444  -0.53765  -0.52942  -0.52109  -0.50874
 Alpha  occ. eigenvalues --   -0.50211  -0.49453  -0.49116  -0.48754  -0.48627
 Alpha  occ. eigenvalues --   -0.48336  -0.47405  -0.47100  -0.46901  -0.45815
 Alpha  occ. eigenvalues --   -0.45446  -0.45166  -0.44238  -0.43186  -0.42596
 Alpha  occ. eigenvalues --   -0.42510  -0.41098  -0.40544  -0.39999  -0.39368
 Alpha  occ. eigenvalues --   -0.38927  -0.38391  -0.37943  -0.37810  -0.37637
 Alpha  occ. eigenvalues --   -0.37238  -0.37066  -0.36652  -0.36312  -0.35210
 Alpha  occ. eigenvalues --   -0.34928  -0.34613  -0.33509  -0.32544  -0.32168
 Alpha  occ. eigenvalues --   -0.31702  -0.31638  -0.31478  -0.31295  -0.30398
 Alpha  occ. eigenvalues --   -0.30192  -0.29848  -0.28741  -0.27924  -0.24943
 Alpha virt. eigenvalues --   -0.11308  -0.03544  -0.02295  -0.01653  -0.00775
 Alpha virt. eigenvalues --   -0.00113   0.00014   0.00101   0.00702   0.01532
 Alpha virt. eigenvalues --    0.01723   0.01939   0.02316   0.02598   0.03268

  Beta  occ. eigenvalues -- -256.21444-101.52690-101.52609-101.52552 -30.12069
  Beta  occ. eigenvalues --  -25.98872 -25.98767 -25.98735 -19.21118 -19.19237
  Beta  occ. eigenvalues --  -19.16206 -10.34181 -10.33584 -10.25193 -10.23326
  Beta  occ. eigenvalues --  -10.22877 -10.21956 -10.21945 -10.21838 -10.21202
  Beta  occ. eigenvalues --  -10.21197 -10.21141 -10.20443 -10.19518 -10.18886
  Beta  occ. eigenvalues --  -10.18715 -10.18531 -10.18378  -9.44403  -9.44332
  Beta  occ. eigenvalues --   -9.44288  -7.20150  -7.20075  -7.20035  -7.19884
  Beta  occ. eigenvalues --   -7.19867  -7.19815  -7.19803  -7.19765  -7.19758
  Beta  occ. eigenvalues --   -3.47807  -2.24110  -2.24002  -2.23953  -1.13045
  Beta  occ. eigenvalues --   -1.09367  -1.04572  -0.88600  -0.85063  -0.82340
  Beta  occ. eigenvalues --   -0.79592  -0.79008  -0.78752  -0.78711  -0.78608
  Beta  occ. eigenvalues --   -0.77279  -0.74990  -0.70083  -0.69443  -0.67267
  Beta  occ. eigenvalues --   -0.64718  -0.62929  -0.61669  -0.59608  -0.57612
  Beta  occ. eigenvalues --   -0.55819  -0.53380  -0.52739  -0.51980  -0.50667
  Beta  occ. eigenvalues --   -0.49807  -0.49224  -0.47603  -0.47011  -0.46677
  Beta  occ. eigenvalues --   -0.45543  -0.45279  -0.44233  -0.43206  -0.42565
  Beta  occ. eigenvalues --   -0.42515  -0.41121  -0.40526  -0.39994  -0.39295
  Beta  occ. eigenvalues --   -0.38874  -0.38577  -0.38312  -0.37841  -0.37651
  Beta  occ. eigenvalues --   -0.37261  -0.37061  -0.36564  -0.36494  -0.36454
  Beta  occ. eigenvalues --   -0.36301  -0.35123  -0.33849  -0.33624  -0.33554
  Beta  occ. eigenvalues --   -0.32966  -0.32758  -0.32380  -0.31606  -0.30750
  Beta  occ. eigenvalues --   -0.30061  -0.29930  -0.28866  -0.27915  -0.24831
  Beta virt. eigenvalues --   -0.15665  -0.15188  -0.14324  -0.13892  -0.13795
  Beta virt. eigenvalues --   -0.10334  -0.03517  -0.02264  -0.01527  -0.00708
  Beta virt. eigenvalues --   -0.00074   0.00052   0.00151   0.00864   0.01558

 Mulliken charges and spin densities:
               1          2
     1  C   -0.111686   0.003315
     2  C    3.182774  -0.001714
     3  C   -0.710249  -0.005245
     4  C    0.102651   0.001520
     5  C    0.279414   0.005986
     6  C   -0.169273  -0.000602
     7  C   -1.938668  -0.012566
     8  C    0.326114   0.014919
     9  C    0.588292   0.003274
    10  C    0.565125  -0.001115
    11  C    0.182200   0.011462
    12  C   -0.001978   0.016417
    13  C    0.171224  -0.001602
    14  O   -0.290439   0.104493
    15  Fe   0.744952   4.070205
    16  Cl  -0.502109   0.260387
    17  C    0.162891  -0.002538
    18  Cl  -0.471437   0.263757
    19  Cl  -0.468212   0.259326
    20  H   -0.257266  -0.000052
    21  H   -0.160666   0.000017
    22  H   -0.145070  -0.000078
    23  H   -0.154781   0.000098
    24  H   -0.181964  -0.000090
    25  H   -0.157923  -0.000793
    26  C    0.784071   0.005274
    27  H   -0.133747   0.000481
    28  H   -0.043381  -0.000003
    29  H   -0.088424   0.000005
    30  H   -0.115170   0.000917
    31  H   -0.245820  -0.000564
    32  H   -0.014807   0.000085
    33  H    0.069401   0.000998
    34  H   -0.025829   0.000786
    35  H   -0.014601   0.000752
    36  H    0.023825   0.001013
    37  H   -0.007759   0.000008
    38  O   -0.668277   0.001681
    39  O   -0.553473   0.001232
    40  C    0.431439  -0.000047
    41  C    0.041607  -0.000889
    42  H   -0.031365  -0.000055
    43  H   -0.040244   0.000007
    44  H   -0.005091   0.000051
    45  H    0.024769   0.000060
    46  H    0.028958  -0.000574
 Sum of Mulliken charges =  -0.00000   5.00000

 Dipole moment (field-independent basis, Debye):
    X=              9.7774    Y=              1.3364    Z=             -1.7446  Tot=             10.0213
 Quadrupole moment (field-independent basis, Debye-Ang):
   XX=           -184.4829   YY=           -173.2009   ZZ=           -165.4767
   XY=            -14.9249   XZ=              6.9493   YZ=             -0.6163

 Normal termination of Gaussian 16 at Sun Jun 20 20:50:33 2021.
