 Gaussian 16, Revision A.03,

 -----------------------------------------------------------
 #p opt=modredundant freq=noraman ub3lyp jul-cc-pvdz pop=cm5
 -----------------------------------------------------------

 -----
 title
 -----
 Symbolic Z-matrix:
 Charge =  0 Multiplicity = 6

 SCF Done:  E(UB3LYP) =  -3531.40754030     A.U. after   26 cycles
 SCF Done:  E(UB3LYP) =  -3531.40731198     A.U. after   18 cycles
 SCF Done:  E(UB3LYP) =  -3531.40194051     A.U. after   19 cycles
 SCF Done:  E(UB3LYP) =  -3531.40097745     A.U. after   18 cycles
 SCF Done:  E(UB3LYP) =  -3531.40769594     A.U. after   14 cycles
 SCF Done:  E(UB3LYP) =  -3531.40739620     A.U. after   15 cycles
 SCF Done:  E(UB3LYP) =  -3531.40780281     A.U. after   16 cycles
 SCF Done:  E(UB3LYP) =  -3531.40801678     A.U. after   17 cycles
 SCF Done:  E(UB3LYP) =  -3531.40814115     A.U. after   15 cycles
 SCF Done:  E(UB3LYP) =  -3531.40814713     A.U. after   14 cycles
 SCF Done:  E(UB3LYP) =  -3531.40816280     A.U. after   10 cycles
 SCF Done:  E(UB3LYP) =  -3531.40816334     A.U. after   10 cycles
 SCF Done:  E(UB3LYP) =  -3531.40816368     A.U. after   10 cycles
 SCF Done:  E(UB3LYP) =  -3531.40816383     A.U. after   10 cycles
 SCF Done:  E(UB3LYP) =  -3531.40816393     A.U. after    9 cycles
 SCF Done:  E(UB3LYP) =  -3531.40816396     A.U. after    9 cycles
 SCF Done:  E(UB3LYP) =  -3531.40816390     A.U. after    9 cycles
 Optimization completed.
    -- Stationary point found.
 Normal termination of Gaussian 16 at Sun Jun 20 03:48:37 2021.

 ----------------------------------------------------------------------
 #P Geom=AllCheck Guess=TCheck SCRF=Check GenChk UB3LYP/Jul-CC-pVDZ Fre
 q
 ----------------------------------------------------------------------

 Structure from the checkpoint file:  "checkpoint.chk"
 -----
 title
 -----
 Charge =  0 Multiplicity = 6

 SCF Done:  E(UB3LYP) =  -3531.40816390     A.U. after    2 cycles

  Exact polarizability: 323.161  14.337 294.486  13.263  14.538 293.292
 Approx polarizability: 501.776  35.122 443.107  11.715  29.197 486.019

 ******    2 imaginary frequencies (negative Signs) ******

                      1                      2                      3
                      A                      A                      A
 Frequencies --   -438.6177               -11.4443                18.7575
 Red. masses --      8.7102                 4.8171                 7.4432
 Frc consts  --      0.9873                 0.0004                 0.0015
 IR Inten    --    302.4549                 1.9058                 0.3410

                      4                      5                      6
                      A                      A                      A
 Frequencies --     29.2472                36.0623                46.2682
 Red. masses --      6.0641                 5.0607                 5.2066
 Frc consts  --      0.0031                 0.0039                 0.0066
 IR Inten    --      0.5965                 0.5298                 1.9010

                      7                      8                      9
                      A                      A                      A
 Frequencies --     51.6662                63.3606                67.8771
 Red. masses --      2.8735                 5.9987                 4.5066
 Frc consts  --      0.0045                 0.0142                 0.0122
 IR Inten    --      0.3256                 0.5748                 1.6722

                     10                     11                     12
                      A                      A                      A
 Frequencies --     84.0648                89.0547               102.0139
 Red. masses --     10.5443                 7.4182                 7.6101
 Frc consts  --      0.0439                 0.0347                 0.0467
 IR Inten    --      1.1898                 1.6634                 0.8228

                     13                     14                     15
                      A                      A                      A
 Frequencies --    103.6152               108.6431               120.6424
 Red. masses --      5.1331                 3.4153                10.8237
 Frc consts  --      0.0325                 0.0238                 0.0928
 IR Inten    --      6.7119                 0.2661                 0.7569

                     16                     17                     18
                      A                      A                      A
 Frequencies --    131.3137               133.6187               147.1642
 Red. masses --      7.3700                 1.3325                 3.4833
 Frc consts  --      0.0749                 0.0140                 0.0444
 IR Inten    --      1.5758                 6.0967                 1.2851

                     19                     20                     21
                      A                      A                      A
 Frequencies --    158.4147               169.8303               174.7697
 Red. masses --      1.2932                 2.5320                 3.1912
 Frc consts  --      0.0191                 0.0430                 0.0574
 IR Inten    --      2.7683                 5.8942                 2.7718

                     22                     23                     24
                      A                      A                      A
 Frequencies --    190.5554               211.6308               229.7901
 Red. masses --      2.8575                 2.8502                 5.2669
 Frc consts  --      0.0611                 0.0752                 0.1639
 IR Inten    --      1.5357                 2.3303                 8.4413

                     25                     26                     27
                      A                      A                      A
 Frequencies --    247.6750               261.4391               292.7280
 Red. masses --      2.6331                 2.0806                 4.1764
 Frc consts  --      0.0952                 0.0838                 0.2109
 IR Inten    --      3.2142                 4.2792                 5.2193

                     28                     29                     30
                      A                      A                      A
 Frequencies --    317.0656               321.9015               339.0502
 Red. masses --      2.3732                 6.5764                18.5187
 Frc consts  --      0.1406                 0.4015                 1.2543
 IR Inten    --      0.0989                10.1629                61.8823

                     31                     32                     33
                      A                      A                      A
 Frequencies --    351.4564               373.1745               374.4636
 Red. masses --      7.4962                 4.4000                14.2154
 Frc consts  --      0.5456                 0.3610                 1.1744
 IR Inten    --      9.0425                20.2260                69.6913

                     34                     35                     36
                      A                      A                      A
 Frequencies --    389.1713               407.5634               410.0543
 Red. masses --     32.4794                 2.9493                 2.8780
 Frc consts  --      2.8983                 0.2886                 0.2851
 IR Inten    --     76.2607                10.7039                 1.4194

                     37                     38                     39
                      A                      A                      A
 Frequencies --    434.2356               452.2628               474.3503
 Red. masses --      3.5030                 4.3016                 2.8207
 Frc consts  --      0.3892                 0.5184                 0.3739
 IR Inten    --      5.1343                21.9819                17.9477

                     40                     41                     42
                      A                      A                      A
 Frequencies --    507.2476               529.7327               564.4893
 Red. masses --      2.5983                 3.3222                 3.1280
 Frc consts  --      0.3939                 0.5493                 0.5873
 IR Inten    --      5.0029                 3.5980                46.4728

                     43                     44                     45
                      A                      A                      A
 Frequencies --    614.1671               627.7951               644.6556
 Red. masses --      3.9895                 5.9126                 4.6729
 Frc consts  --      0.8866                 1.3730                 1.1442
 IR Inten    --     18.4799                 4.6446               103.5598

                     46                     47                     48
                      A                      A                      A
 Frequencies --    697.3606               708.9159               759.8779
 Red. masses --      1.7036                 4.6830                 4.0398
 Frc consts  --      0.4881                 1.3866                 1.3743
 IR Inten    --     38.5797                44.1338                 1.4983

                     49                     50                     51
                      A                      A                      A
 Frequencies --    763.9225               803.2982               807.3523
 Red. masses --      2.5739                 1.2777                 2.5570
 Frc consts  --      0.8850                 0.4858                 0.9820
 IR Inten    --     13.5529                 9.2211                 6.5053

                     52                     53                     54
                      A                      A                      A
 Frequencies --    823.8566               841.6043               855.6142
 Red. masses --      3.4540                 1.2627                 1.3944
 Frc consts  --      1.3813                 0.5270                 0.6015
 IR Inten    --     35.4008                 1.4098                 1.3220

                     55                     56                     57
                      A                      A                      A
 Frequencies --    863.9479               879.6625               916.4680
 Red. masses --      2.3494                 1.9450                 2.3395
 Frc consts  --      1.0332                 0.8868                 1.1577
 IR Inten    --     20.2836                10.1941                12.2355

                     58                     59                     60
                      A                      A                      A
 Frequencies --    933.5978               959.2261               976.0398
 Red. masses --      1.4384                 2.8138                 1.4503
 Frc consts  --      0.7387                 1.5254                 0.8140
 IR Inten    --      5.4492                18.9399                43.3656

                     61                     62                     63
                      A                      A                      A
 Frequencies --    983.8535               997.4241               999.3633
 Red. masses --      1.4427                 2.2544                 2.0137
 Frc consts  --      0.8228                 1.3214                 1.1849
 IR Inten    --      5.7790                19.4432                 1.4776

                     64                     65                     66
                      A                      A                      A
 Frequencies --   1000.7258              1005.8042              1007.5356
 Red. masses --      1.8059                 1.4934                 2.3475
 Frc consts  --      1.0656                 0.8901                 1.4040
 IR Inten    --      2.0894                 8.5712                 3.9733

                     67                     68                     69
                      A                      A                      A
 Frequencies --   1038.3288              1045.6751              1055.8676
 Red. masses --      2.8643                 2.4640                 1.9159
 Frc consts  --      1.8194                 1.5874                 1.2585
 IR Inten    --     42.0947                10.0619                39.3835

                     70                     71                     72
                      A                      A                      A
 Frequencies --   1065.7275              1091.7786              1107.5159
 Red. masses --      2.0530                 1.6749                 1.5955
 Frc consts  --      1.3739                 1.1763                 1.1530
 IR Inten    --     11.7510                22.4782                15.5495

                     73                     74                     75
                      A                      A                      A
 Frequencies --   1128.2626              1133.6335              1159.6763
 Red. masses --      2.5280                 2.1910                 1.9239
 Frc consts  --      1.8961                 1.6590                 1.5244
 IR Inten    --     13.7801                 9.4696                35.1949

                     76                     77                     78
                      A                      A                      A
 Frequencies --   1165.7051              1173.2282              1174.7918
 Red. masses --      1.8631                 1.9722                 1.0920
 Frc consts  --      1.4916                 1.5995                 0.8880
 IR Inten    --     69.6928                40.3890                 0.2980

                     79                     80                     81
                      A                      A                      A
 Frequencies --   1195.6949              1204.8453              1229.1543
 Red. masses --      1.7016                 1.3583                 1.9572
 Frc consts  --      1.4333                 1.1618                 1.7422
 IR Inten    --     54.8840                29.7480               156.3999

                     82                     83                     84
                      A                      A                      A
 Frequencies --   1248.9316              1258.7193              1286.1235
 Red. masses --      2.4955                 1.8168                 1.1172
 Frc consts  --      2.2934                 1.6959                 1.0888
 IR Inten    --    304.6308                26.6606                 4.4789

                     85                     86                     87
                      A                      A                      A
 Frequencies --   1319.7814              1321.7783              1328.4138
 Red. masses --      1.4876                 1.3948                 1.6086
 Frc consts  --      1.5267                 1.4357                 1.6724
 IR Inten    --     67.9121                 2.1538                49.8241

                     88                     89                     90
                      A                      A                      A
 Frequencies --   1335.3050              1356.2502              1358.4261
 Red. masses --      1.5230                 1.3346                 3.5956
 Frc consts  --      1.6000                 1.4464                 3.9092
 IR Inten    --     23.0092                72.0706                 0.5854

                     91                     92                     93
                      A                      A                      A
 Frequencies --   1367.3590              1379.6540              1387.0842
 Red. masses --      1.3482                 1.2121                 1.4781
 Frc consts  --      1.4852                 1.3594                 1.6756
 IR Inten    --     22.0980                18.8631                71.7299

                     94                     95                     96
                      A                      A                      A
 Frequencies --   1396.3364              1416.5543              1430.9521
 Red. masses --      1.5676                 1.4388                 1.1118
 Frc consts  --      1.8008                 1.7011                 1.3412
 IR Inten    --     62.6546                 4.3298                29.8297

                     97                     98                     99
                      A                      A                      A
 Frequencies --   1447.5360              1467.6477              1472.7070
 Red. masses --      1.1215                 1.8744                 1.2949
 Frc consts  --      1.3846                 2.3788                 1.6547
 IR Inten    --      4.3155                 8.7605                23.0859

                    100                    101                    102
                      A                      A                      A
 Frequencies --   1473.1623              1483.5467              1488.9836
 Red. masses --      1.0432                 1.1110                 1.0544
 Frc consts  --      1.3339                 1.4407                 1.3773
 IR Inten    --      5.0957                20.6947                 2.9270

                    103                    104                    105
                      A                      A                      A
 Frequencies --   1500.2583              1505.8638              1507.1628
 Red. masses --      1.1596                 1.1493                 1.0843
 Frc consts  --      1.5377                 1.5355                 1.4512
 IR Inten    --      8.8777                27.2969                 6.5691

                    106                    107                    108
                      A                      A                      A
 Frequencies --   1515.4782              1553.5777              1619.0689
 Red. masses --      1.9177                 2.9644                 5.6339
 Frc consts  --      2.5949                 4.2155                 8.7014
 IR Inten    --      3.1338               124.1764                 0.6410

                    109                    110                    111
                      A                      A                      A
 Frequencies --   1639.3258              1762.9129              2996.2364
 Red. masses --      5.6899                11.5607                 1.0537
 Frc consts  --      9.0092                21.1688                 5.5734
 IR Inten    --     12.8322               234.6180                 6.6016

                    112                    113                    114
                      A                      A                      A
 Frequencies --   3014.0027              3040.8810              3055.6636
 Red. masses --      1.0464                 1.0361                 1.0633
 Frc consts  --      5.6005                 5.6448                 5.8496
 IR Inten    --      3.6817                21.0769                21.9980

                    115                    116                    117
                      A                      A                      A
 Frequencies --   3059.6235              3070.9412              3075.4241
 Red. masses --      1.0596                 1.0639                 1.0833
 Frc consts  --      5.8440                 5.9114                 6.0368
 IR Inten    --     15.2448                22.8224                 2.1947

                    118                    119                    120
                      A                      A                      A
 Frequencies --   3086.4251              3101.4930              3108.3441
 Red. masses --      1.0869                 1.1010                 1.1049
 Frc consts  --      6.1005                 6.2400                 6.2898
 IR Inten    --      4.0055                 7.8767                10.9560

                    121                    122                    123
                      A                      A                      A
 Frequencies --   3111.6464              3116.6697              3121.4545
 Red. masses --      1.0789                 1.1026                 1.1020
 Frc consts  --      6.1549                 6.3104                 6.3262
 IR Inten    --      4.8438                16.6691                15.2377

                    124                    125                    126
                      A                      A                      A
 Frequencies --   3139.9164              3155.0628              3164.7547
 Red. masses --      1.1042                 1.1038                 1.0879
 Frc consts  --      6.4140                 6.4738                 6.4198
 IR Inten    --     12.8448                 1.0835                 6.1103

                    127                    128                    129
                      A                      A                      A
 Frequencies --   3171.1534              3171.9970              3183.9483
 Red. masses --      1.1046                 1.0857                 1.0907
 Frc consts  --      6.5447                 6.4360                 6.5147
 IR Inten    --      2.4995                 0.2706                 7.5315

                    130                    131                    132
                      A                      A                      A
 Frequencies --   3194.5778              3215.3609              3230.0672
 Red. masses --      1.0965                 1.0924                 1.0920
 Frc consts  --      6.5933                 6.6544                 6.7125
 IR Inten    --     15.7435                 3.2372                 2.9829

 - Thermochemistry -
 -------------------
 Temperature   298.150 Kelvin.  Pressure   1.00000 Atm.
 Atom     1 has atomic number  6 and mass  12.00000

 Molecular mass:   434.99839 amu.
 Principal axes and moments of inertia in atomic units:
                           1         2         3
     Eigenvalues --  8956.92836********************
           X            0.99932   0.03178   0.01844
           Y           -0.03214   0.99929   0.01964
           Z           -0.01780  -0.02022   0.99964
 This molecule is an asymmetric top.
 Rotational symmetry number  1.
 Warning -- assumption of classical behavior for rotation
           may cause significant error
 Rotational temperatures (Kelvin)      0.00967     0.00790     0.00681
 Rotational constants (GHZ):           0.20149     0.16457     0.14188
    2 imaginary frequencies ignored.
 Zero-point vibrational energy     940102.8 (Joules/Mol)
                                  224.68997 (Kcal/Mol)
 Warning -- explicit consideration of  41 degrees of freedom as
           vibrations may cause significant error
 Vibrational temperatures:     26.99    42.08    51.89    66.57    74.34
          (Kelvin)             91.16    97.66   120.95   128.13   146.78
                              149.08   156.31   173.58   188.93   192.25
                              211.74   227.92   244.35   251.45   274.17
                              304.49   330.62   356.35   376.15   421.17
                              456.19   463.14   487.82   505.67   536.91
                              538.77   559.93   586.39   589.98   624.77
                              650.71   682.48   729.82   762.17   812.17
                              883.65   903.26   927.52  1003.35  1019.97
                             1093.29  1099.11  1155.77  1161.60  1185.35
                             1210.88  1231.04  1243.03  1265.64  1318.59
                             1343.24  1380.11  1404.30  1415.55  1435.07
                             1437.86  1439.82  1447.13  1449.62  1493.92
                             1504.49  1519.16  1533.34  1570.83  1593.47
                             1623.32  1631.05  1668.52  1677.19  1688.01
                             1690.26  1720.34  1733.50  1768.48  1796.93
                             1811.02  1850.44  1898.87  1901.74  1911.29
                             1921.21  1951.34  1954.47  1967.32  1985.01
                             1995.70  2009.02  2038.11  2058.82  2082.68
                             2111.62  2118.90  2119.55  2134.49  2142.32
                             2158.54  2166.60  2168.47  2180.44  2235.25
                             2329.48  2358.62  2536.44  4310.92  4336.48
                             4375.15  4396.42  4402.12  4418.40  4424.85
                             4440.68  4462.36  4472.21  4476.97  4484.19
                             4491.08  4517.64  4539.43  4553.38  4562.58
                             4563.80  4580.99  4596.28  4626.19  4647.35

 Zero-point correction=                           0.358066 (Hartree/Particle)
 Thermal correction to Energy=                    0.384846
 Thermal correction to Enthalpy=                  0.385790
 Thermal correction to Gibbs Free Energy=         0.296886
 Sum of electronic and zero-point Energies=          -3531.050098
 Sum of electronic and thermal Energies=             -3531.023318
 Sum of electronic and thermal Enthalpies=           -3531.022374
 Sum of electronic and thermal Free Energies=        -3531.111278

                     E (Thermal)             CV                S
                      KCal/Mol        Cal/Mol-Kelvin    Cal/Mol-Kelvin
 Total                  241.495             95.957            187.115
 Electronic               0.000              0.000              3.561
 Translational            0.889              2.981             44.100
 Rotational               0.889              2.981             35.478
 Vibrational            239.717             89.995            103.976
 Vibration     1          0.593              1.986              6.762
 Vibration     2          0.593              1.984              5.880
 Vibration     3          0.594              1.982              5.464
 Vibration     4          0.595              1.979              4.971
 Vibration     5          0.596              1.977              4.753
 Vibration     6          0.597              1.972              4.350
 Vibration     7          0.598              1.970              4.214
 Vibration     8          0.601              1.960              3.794
 Vibration     9          0.602              1.957              3.681
 Vibration    10          0.604              1.948              3.415
 Vibration    11          0.605              1.946              3.385
 Vibration    12          0.606              1.942              3.293
 Vibration    13          0.609              1.932              3.090
 Vibration    14          0.612              1.922              2.927
 Vibration    15          0.613              1.920              2.893
 Vibration    16          0.617              1.906              2.709
 Vibration    17          0.621              1.893              2.569
 Vibration    18          0.625              1.880              2.437
 Vibration    19          0.627              1.873              2.384
 Vibration    20          0.634              1.853              2.222
 Vibration    21          0.643              1.823              2.030
 Vibration    22          0.652              1.796              1.881
 Vibration    23          0.661              1.767              1.747
 Vibration    24          0.669              1.743              1.652
 Vibration    25          0.688              1.687              1.458
 Vibration    26          0.704              1.641              1.325
 Vibration    27          0.707              1.632              1.300
 Vibration    28          0.719              1.597              1.217
 Vibration    29          0.728              1.572              1.160
 Vibration    30          0.745              1.527              1.067
 Vibration    31          0.746              1.524              1.061
 Vibration    32          0.757              1.493              1.003
 Vibration    33          0.772              1.454              0.935
 Vibration    34          0.774              1.448              0.926
 Vibration    35          0.795              1.396              0.845
 Vibration    36          0.811              1.356              0.789
 Vibration    37          0.831              1.307              0.725
 Vibration    38          0.862              1.234              0.640
 Vibration    39          0.885              1.184              0.588
 Vibration    40          0.920              1.108              0.515
 Vibration    41          0.974              1.002              0.426

                           ! Non-Optimized Parameters !
 Normal termination of Gaussian 16 at Sun Jun 20 07:00:38 2021.

 ----------------------------------------------------------------------
 #p ub3lyp jul-cc-pvdz pop=cm5 scrf=(pcm,solvent=dichloroethane) guess=
 read geom=allcheck
 ----------------------------------------------------------------------

 Structure from the checkpoint file:  "checkpoint.chk"
 -----
 title
 -----
 Charge =  0 Multiplicity = 6

 SCF Done:  E(UB3LYP) =  -3531.43193626     A.U. after   19 cycles
 Normal termination of Gaussian 16 at Sun Jun 20 07:22:20 2021.
 Gaussian 16:  ES64L-G16RevA.03 25-Dec-2016

 ----------------------------------------------------------------------
 #p ub3lyp jul-cc-pvdz pop=cm5 scrf=(pcm,solvent=water) guess=read geom
 =allcheck
 ----------------------------------------------------------------------

 Structure from the checkpoint file:  "checkpoint.chk"
 -----
 title
 -----
 Charge =  0 Multiplicity = 6

                         Standard orientation:
 ---------------------------------------------------------------------
 Center     Atomic      Atomic             Coordinates (Angstroms)
 Number     Number       Type             X           Y           Z
 ---------------------------------------------------------------------
      1          6           0        3.150493   -0.860251    0.454440
      2          6           0        1.771422   -0.742982    0.716663
      3          6           0        1.351493   -0.577274    2.047545
      4          6           0        2.284175   -0.531357    3.087620
      5          6           0        3.648070   -0.656371    2.816295
      6          6           0        4.078030   -0.818133    1.492928
      7          6           0        0.735315   -0.760041   -0.384728
      8          6           0        1.017641    0.095408   -1.675011
      9          6           0        1.727533   -0.739395   -2.744685
     10          6           0        1.078664   -2.129866   -2.684040
     11          6           0        0.910484   -2.460705   -1.213617
     12          6           0       -0.301034   -2.878647   -0.631308
     13          6           0       -1.600283   -2.837604   -1.346750
     14          8           0       -0.526656   -0.698585    0.066137
     15         26           0       -2.062810    0.374064    0.379206
     16         17           0       -2.750846    1.088805   -1.613769
     17          6           0       -0.306091   -3.482832    0.724112
     18         17           0       -1.643239    1.978762    1.844034
     19         17           0       -3.492380   -1.100386    1.272616
     20          1           0        0.293161   -0.455503    2.262942
     21          1           0        1.937701   -0.390347    4.112145
     22          1           0        4.376229   -0.621327    3.628150
     23          1           0        5.141959   -0.903934    1.268655
     24          1           0        3.512632   -0.972223   -0.565252
     25          1           0        0.017048    0.378052   -2.026454
     26          6           0        1.770198    1.390172   -1.363880
     27          1           0        1.621269   -0.275692   -3.734019
     28          1           0        2.803162   -0.790256   -2.536128
     29          1           0        0.112661   -2.115291   -3.202904
     30          1           0        1.698889   -2.889662   -3.179870
     31          1           0        1.803824   -2.850866   -0.725755
     32          1           0       -0.552186   -4.552885    0.601305
     33          1           0        0.660385   -3.405342    1.232135
     34          1           0       -1.107473   -3.044452    1.334306
     35          1           0       -1.687092   -3.804735   -1.877990
     36          1           0       -2.442926   -2.754005   -0.652372
     37          1           0       -1.660639   -2.045595   -2.098167
     38          8           0        0.947264    2.308515   -0.847178
     39          8           0        2.952114    1.563188   -1.581903
     40          6           0        1.533294    3.600102   -0.504128
     41          6           0        0.399166    4.573379   -0.259341
     42          1           0        2.157880    3.453757    0.388097
     43          1           0        2.184631    3.909337   -1.331283
     44          1           0        0.819442    5.550123    0.021713
     45          1           0       -0.207105    4.704188   -1.166165
     46          1           0       -0.253661    4.222327    0.549434
 ---------------------------------------------------------------------

 SCF Done:  E(UB3LYP) =  -3531.43638167     A.U. after   15 cycles

 The electronic state is 6-A.
 Alpha  occ. eigenvalues -- -256.20000-101.51866-101.51851-101.51676 -30.19402
 Alpha  occ. eigenvalues --  -26.04703 -26.04641 -26.04553 -19.20461 -19.16085
 Alpha  occ. eigenvalues --  -19.15345 -10.33133 -10.31853 -10.29607 -10.24807
 Alpha  occ. eigenvalues --  -10.22500 -10.22277 -10.21752 -10.20971 -10.20810
 Alpha  occ. eigenvalues --  -10.20750 -10.20640 -10.20522 -10.20446 -10.20414
 Alpha  occ. eigenvalues --  -10.20329 -10.20105 -10.18456  -9.43584  -9.43580
 Alpha  occ. eigenvalues --   -9.43392  -7.19446  -7.19445  -7.19263  -7.19133
 Alpha  occ. eigenvalues --   -7.19130  -7.19120  -7.19117  -7.18939  -7.18920
 Alpha  occ. eigenvalues --   -3.67115  -2.44635  -2.44438  -2.44316  -1.12286
 Alpha  occ. eigenvalues --   -1.05340  -1.03753  -0.88205  -0.87277  -0.83987
 Alpha  occ. eigenvalues --   -0.79814  -0.79151  -0.78977  -0.78790  -0.77969
 Alpha  occ. eigenvalues --   -0.76246  -0.75247  -0.73303  -0.71499  -0.66505
 Alpha  occ. eigenvalues --   -0.64473  -0.62154  -0.61598  -0.59436  -0.57207
 Alpha  occ. eigenvalues --   -0.56295  -0.54481  -0.52912  -0.51466  -0.50613
 Alpha  occ. eigenvalues --   -0.50139  -0.49409  -0.48915  -0.48014  -0.47787
 Alpha  occ. eigenvalues --   -0.47388  -0.47241  -0.46664  -0.46504  -0.46053
 Alpha  occ. eigenvalues --   -0.44679  -0.44505  -0.43787  -0.43272  -0.42842
 Alpha  occ. eigenvalues --   -0.42477  -0.41714  -0.41031  -0.40371  -0.40018
 Alpha  occ. eigenvalues --   -0.39851  -0.39020  -0.38084  -0.37627  -0.37207
 Alpha  occ. eigenvalues --   -0.36934  -0.36700  -0.36165  -0.35886  -0.35687
 Alpha  occ. eigenvalues --   -0.34608  -0.34131  -0.33616  -0.31994  -0.31672
 Alpha  occ. eigenvalues --   -0.30783  -0.30680  -0.30424  -0.30078  -0.29766
 Alpha  occ. eigenvalues --   -0.29405  -0.28813  -0.28269  -0.27023  -0.25910
 Alpha virt. eigenvalues --   -0.11904  -0.03256  -0.02748  -0.01570  -0.01237
 Alpha virt. eigenvalues --   -0.00151  -0.00015   0.00022   0.01464   0.01608
 Alpha virt. eigenvalues --    0.01830   0.01938   0.02521   0.03298   0.03695

  Beta  occ. eigenvalues -- -256.19815-101.51696-101.51677-101.51512 -30.10462
  Beta  occ. eigenvalues --  -25.97231 -25.97168 -25.97142 -19.20461 -19.15407
  Beta  occ. eigenvalues --  -19.15342 -10.33134 -10.31850 -10.29598 -10.24807
  Beta  occ. eigenvalues --  -10.22446 -10.22260 -10.21731 -10.20970 -10.20810
  Beta  occ. eigenvalues --  -10.20749 -10.20643 -10.20526 -10.20444 -10.20416
  Beta  occ. eigenvalues --  -10.20328 -10.20102 -10.18455  -9.43414  -9.43413
  Beta  occ. eigenvalues --   -9.43231  -7.19160  -7.19157  -7.18974  -7.18901
  Beta  occ. eigenvalues --   -7.18898  -7.18898  -7.18888  -7.18721  -7.18718
  Beta  occ. eigenvalues --   -3.46272  -2.22581  -2.22504  -2.22406  -1.12283
  Beta  occ. eigenvalues --   -1.04037  -1.03750  -0.88037  -0.87254  -0.83940
  Beta  occ. eigenvalues --   -0.78816  -0.78719  -0.77972  -0.77858  -0.77784
  Beta  occ. eigenvalues --   -0.76241  -0.75205  -0.73292  -0.71366  -0.66369
  Beta  occ. eigenvalues --   -0.64401  -0.62111  -0.61555  -0.59086  -0.56967
  Beta  occ. eigenvalues --   -0.55927  -0.54374  -0.51943  -0.51446  -0.50310
  Beta  occ. eigenvalues --   -0.50106  -0.48703  -0.48334  -0.47998  -0.47025
  Beta  occ. eigenvalues --   -0.45866  -0.44784  -0.43754  -0.43332  -0.42873
  Beta  occ. eigenvalues --   -0.42453  -0.41723  -0.41021  -0.40340  -0.40025
  Beta  occ. eigenvalues --   -0.39851  -0.38978  -0.37945  -0.37675  -0.37444
  Beta  occ. eigenvalues --   -0.36943  -0.36814  -0.36151  -0.35898  -0.35810
  Beta  occ. eigenvalues --   -0.35433  -0.35343  -0.34542  -0.32920  -0.32697
  Beta  occ. eigenvalues --   -0.32238  -0.31982  -0.31855  -0.31177  -0.29962
  Beta  occ. eigenvalues --   -0.29325  -0.28811  -0.28361  -0.27020  -0.25928
  Beta virt. eigenvalues --   -0.13838  -0.13571  -0.12763  -0.12516  -0.12156
  Beta virt. eigenvalues --   -0.11300  -0.03190  -0.02739  -0.01495  -0.01180
  Beta virt. eigenvalues --   -0.00110   0.00017   0.00051   0.01479   0.01630

 Mulliken charges and spin densities:
               1          2
     1  C    0.161345   0.000925
     2  C    2.637194   0.003600
     3  C   -0.385022  -0.012698
     4  C    0.032532   0.005456
     5  C    0.247826  -0.001436
     6  C   -0.095642   0.001632
     7  C   -2.201979  -0.009281
     8  C    0.358489   0.011319
     9  C    0.552421   0.002835
    10  C    0.650828  -0.000973
    11  C    0.653224   0.034235
    12  C   -0.451872   0.001629
    13  C    0.303240   0.001915
    14  O   -0.459847   0.215293
    15  Fe   0.671589   4.053676
    16  Cl  -0.539385   0.224495
    17  C    0.343845  -0.000942
    18  Cl  -0.490822   0.237518
    19  Cl  -0.540449   0.223198
    20  H   -0.231525   0.002610
    21  H   -0.161629  -0.000007
    22  H   -0.160087   0.000026
    23  H   -0.157257   0.000205
    24  H   -0.230876  -0.000109
    25  H   -0.207656  -0.000138
    26  C    0.874267   0.001056
    27  H   -0.142819   0.000339
    28  H   -0.022230  -0.000032
    29  H   -0.089217   0.000025
    30  H   -0.115013   0.001137
    31  H   -0.238662  -0.000757
    32  H    0.034101   0.000229
    33  H    0.035447   0.000086
    34  H    0.085224  -0.000069
    35  H    0.044966  -0.000175
    36  H    0.043374   0.000269
    37  H    0.089886  -0.000259
    38  O   -0.675440   0.002702
    39  O   -0.656639   0.001174
    40  C    0.426858   0.000630
    41  C    0.036004  -0.001202
    42  H   -0.037630   0.000038
    43  H   -0.038281   0.000030
    44  H   -0.006273   0.000030
    45  H    0.024876   0.000075
    46  H    0.028712  -0.000310
 Sum of Mulliken charges =  -0.00000   5.00000

 Dipole moment (field-independent basis, Debye):
    X=              9.0261    Y=             -9.9255    Z=             -3.3801  Tot=             13.8351
 Quadrupole moment (field-independent basis, Debye-Ang):
   XX=           -201.6335   YY=           -147.5808   ZZ=           -171.5215
   XY=              2.3620   XZ=             11.7269   YZ=              7.7705

 Normal termination of Gaussian 16 at Sun Jun 20 07:39:34 2021.
