 Gaussian 16, Revision A.03,

 -----------------------------------------------------------
 #p opt=modredundant freq=noraman ub3lyp jul-cc-pvdz pop=cm5
 -----------------------------------------------------------

 -----
 title
 -----
 Symbolic Z-matrix:
 Charge =  0 Multiplicity = 6

 SCF Done:  E(UB3LYP) =  -3531.45050815     A.U. after   24 cycles
 SCF Done:  E(UB3LYP) =  -3531.45067505     A.U. after   18 cycles
 SCF Done:  E(UB3LYP) =  -3531.44923341     A.U. after   22 cycles
 SCF Done:  E(UB3LYP) =  -3531.45049863     A.U. after   16 cycles
 SCF Done:  E(UB3LYP) =  -3531.45094340     A.U. after   11 cycles
 SCF Done:  E(UB3LYP) =  -3531.45094299     A.U. after   15 cycles
 SCF Done:  E(UB3LYP) =  -3531.45115274     A.U. after   14 cycles
 SCF Done:  E(UB3LYP) =  -3531.45115903     A.U. after   12 cycles
 SCF Done:  E(UB3LYP) =  -3531.45116309     A.U. after   12 cycles
 SCF Done:  E(UB3LYP) =  -3531.45116465     A.U. after   11 cycles
 SCF Done:  E(UB3LYP) =  -3531.45116547     A.U. after   11 cycles
 SCF Done:  E(UB3LYP) =  -3531.45116538     A.U. after   10 cycles
 SCF Done:  E(UB3LYP) =  -3531.45116556     A.U. after   10 cycles
 SCF Done:  E(UB3LYP) =  -3531.45116568     A.U. after   10 cycles
 SCF Done:  E(UB3LYP) =  -3531.45116581     A.U. after   10 cycles
 SCF Done:  E(UB3LYP) =  -3531.45116596     A.U. after    9 cycles
 Optimization completed.
    -- Stationary point found.
 Normal termination of Gaussian 16 at Sun Jun 20 16:01:37 2021.

 ----------------------------------------------------------------------
 #P Geom=AllCheck Guess=TCheck SCRF=Check GenChk UB3LYP/Jul-CC-pVDZ Fre
 q
 ----------------------------------------------------------------------

 Structure from the checkpoint file:  "checkpoint.chk"
 -----
 title
 -----
 Charge =  0 Multiplicity = 6

 SCF Done:  E(UB3LYP) =  -3531.45116596     A.U. after    1 cycles

  Exact polarizability: 310.000  11.687 298.275  26.738  -7.816 303.257
 Approx polarizability: 489.568  44.566 445.495  52.436 -24.463 485.646

 ******    1 imaginary frequencies (negative Signs) ******

                      1                      2                      3
                      A                      A                      A
 Frequencies --     -7.1425                18.9134                23.4800
 Red. masses --      5.2601                 8.3506                 5.0768
 Frc consts  --      0.0002                 0.0018                 0.0016
 IR Inten    --      0.1862                 0.6611                 1.2980

                      4                      5                      6
                      A                      A                      A
 Frequencies --     30.3276                43.8486                51.1908
 Red. masses --      8.4140                 6.7539                 4.9313
 Frc consts  --      0.0046                 0.0077                 0.0076
 IR Inten    --      0.9031                 1.4684                 0.4023

                      7                      8                      9
                      A                      A                      A
 Frequencies --     64.6412                66.1224                75.8986
 Red. masses --      4.2081                 3.1770                 4.6113
 Frc consts  --      0.0104                 0.0082                 0.0157
 IR Inten    --      0.2257                 0.6841                 0.5613

                     10                     11                     12
                      A                      A                      A
 Frequencies --     80.8225                85.9752                93.0538
 Red. masses --      9.9244                 6.7202                 3.4895
 Frc consts  --      0.0382                 0.0293                 0.0178
 IR Inten    --      0.1598                 2.0107                 0.3511

                     13                     14                     15
                      A                      A                      A
 Frequencies --     99.1714               109.4808               112.5961
 Red. masses --      4.0170                 2.8535                 6.6647
 Frc consts  --      0.0233                 0.0202                 0.0498
 IR Inten    --      1.4922                 0.1736                 0.4019

                     16                     17                     18
                      A                      A                      A
 Frequencies --    116.5152               121.4490               140.7632
 Red. masses --      6.9819                11.6866                 1.6393
 Frc consts  --      0.0558                 0.1016                 0.0191
 IR Inten    --      1.0045                 1.6681                 3.9398

                     19                     20                     21
                      A                      A                      A
 Frequencies --    149.9387               152.6201               175.0504
 Red. masses --      3.2670                 3.1897                 5.0675
 Frc consts  --      0.0433                 0.0438                 0.0915
 IR Inten    --      3.2094                 5.1670                11.3850

                     22                     23                     24
                      A                      A                      A
 Frequencies --    206.2595               206.8839               214.9746
 Red. masses --      2.0732                 1.5045                 3.3710
 Frc consts  --      0.0520                 0.0379                 0.0918
 IR Inten    --      1.3084                 4.7955                 1.8916

                     25                     26                     27
                      A                      A                      A
 Frequencies --    258.4426               260.9981               278.3727
 Red. masses --      1.4346                 3.0981                 4.2130
 Frc consts  --      0.0565                 0.1243                 0.1924
 IR Inten    --      1.7874                14.1278                 1.7223

                     28                     29                     30
                      A                      A                      A
 Frequencies --    305.1121               317.6538               343.8357
 Red. masses --      9.0657                 2.3879                26.9331
 Frc consts  --      0.4972                 0.1420                 1.8760
 IR Inten    --     17.4095                 1.1541                35.0425

                     31                     32                     33
                      A                      A                      A
 Frequencies --    356.3228               381.7201               389.5127
 Red. masses --      4.7543                 3.5892                 3.0903
 Frc consts  --      0.3556                 0.3081                 0.2762
 IR Inten    --     21.0213                 2.1614                 5.5558

                     34                     35                     36
                      A                      A                      A
 Frequencies --    400.7000               408.0979               412.4914
 Red. masses --     25.7390                15.8241                 3.3466
 Frc consts  --      2.4349                 1.5527                 0.3355
 IR Inten    --     75.6781                71.0124                11.6014

                     37                     38                     39
                      A                      A                      A
 Frequencies --    423.3510               441.8728               470.1495
 Red. masses --      3.6104                 2.7650                 3.4260
 Frc consts  --      0.3812                 0.3181                 0.4462
 IR Inten    --     18.9286                 7.8825                 0.5951

                     40                     41                     42
                      A                      A                      A
 Frequencies --    492.9853               513.0102               547.3398
 Red. masses --      2.4108                 2.7904                 3.9847
 Frc consts  --      0.3452                 0.4327                 0.7033
 IR Inten    --      6.5347                 0.6256                16.4745

                     43                     44                     45
                      A                      A                      A
 Frequencies --    570.9490               623.2618               663.6561
 Red. masses --      5.0463                 6.4084                 4.8080
 Frc consts  --      0.9692                 1.4667                 1.2477
 IR Inten    --     45.9973                 1.6467                30.5597

                     46                     47                     48
                      A                      A                      A
 Frequencies --    692.5566               697.3160               749.9610
 Red. masses --      5.3713                 1.6085                 4.2519
 Frc consts  --      1.5179                 0.4608                 1.4090
 IR Inten    --      3.0257                61.3999                 5.5096

                     49                     50                     51
                      A                      A                      A
 Frequencies --    775.2546               781.0341               806.1073
 Red. masses --      2.3925                 2.1690                 1.1274
 Frc consts  --      0.8472                 0.7795                 0.4316
 IR Inten    --     28.5188                 0.6296                 1.3596

                     52                     53                     54
                      A                      A                      A
 Frequencies --    835.6542               838.8455               854.1236
 Red. masses --      3.0886                 1.7998                 1.2553
 Frc consts  --      1.2708                 0.7462                 0.5396
 IR Inten    --     10.5978                16.1211                 1.6876

                     55                     56                     57
                      A                      A                      A
 Frequencies --    863.7407               896.8788               902.9488
 Red. masses --      2.7903                 2.2434                 2.1941
 Frc consts  --      1.2265                 1.0632                 1.0540
 IR Inten    --     20.6479                 2.1846                16.5855

                     58                     59                     60
                      A                      A                      A
 Frequencies --    961.1408               963.7143               977.9397
 Red. masses --      1.4198                 1.5557                 2.9302
 Frc consts  --      0.7728                 0.8513                 1.6511
 IR Inten    --      1.5418                 4.1204                16.6755

                     61                     62                     63
                      A                      A                      A
 Frequencies --    992.0208               996.7184              1000.4430
 Red. masses --      2.4962                 1.3422                 1.9254
 Frc consts  --      1.4474                 0.7856                 1.1354
 IR Inten    --     31.5589                 4.4986                 4.0533

                     64                     65                     66
                      A                      A                      A
 Frequencies --   1002.8178              1015.3887              1019.1202
 Red. masses --      2.3025                 1.3544                 2.0821
 Frc consts  --      1.3643                 0.8228                 1.2741
 IR Inten    --      0.1934                 0.7622                 0.0546

                     67                     68                     69
                      A                      A                      A
 Frequencies --   1036.0677              1046.6827              1078.3054
 Red. masses --      2.6055                 2.4289                 2.1008
 Frc consts  --      1.6479                 1.5678                 1.4392
 IR Inten    --     42.9852                 2.6427                 0.8058

                     70                     71                     72
                      A                      A                      A
 Frequencies --   1096.1400              1096.3896              1117.4459
 Red. masses --      1.7165                 2.4539                 1.5813
 Frc consts  --      1.2152                 1.7380                 1.1634
 IR Inten    --      1.4610                16.4549                 5.7965

                     73                     74                     75
                      A                      A                      A
 Frequencies --   1133.3671              1136.1927              1165.1415
 Red. masses --      2.1700                 2.0985                 1.6747
 Frc consts  --      1.6423                 1.5961                 1.3395
 IR Inten    --     16.3529                10.0378                90.2477

                     76                     77                     78
                      A                      A                      A
 Frequencies --   1169.5889              1179.6907              1208.0026
 Red. masses --      1.5748                 1.0853                 1.4318
 Frc consts  --      1.2692                 0.8899                 1.2310
 IR Inten    --     12.5510                 1.2423                53.1896

                     79                     80                     81
                      A                      A                      A
 Frequencies --   1209.6885              1227.4030              1254.1528
 Red. masses --      1.4152                 1.9276                 1.9589
 Frc consts  --      1.2201                 1.7110                 1.8154
 IR Inten    --     86.1552               142.7541                40.6262

                     82                     83                     84
                      A                      A                      A
 Frequencies --   1279.2153              1284.4456              1320.6935
 Red. masses --      1.7468                 1.2107                 1.3818
 Frc consts  --      1.6842                 1.1768                 1.4200
 IR Inten    --    141.6123                24.0324                 9.9138

                     85                     86                     87
                      A                      A                      A
 Frequencies --   1328.6287              1339.3038              1344.4084
 Red. masses --      1.8553                 1.5000                 1.6426
 Frc consts  --      1.9296                 1.5852                 1.7492
 IR Inten    --    114.9099                14.9603                30.4877

                     88                     89                     90
                      A                      A                      A
 Frequencies --   1367.5651              1371.8301              1377.9365
 Red. masses --      1.5922                 2.5498                 1.3487
 Frc consts  --      1.7544                 2.8272                 1.5088
 IR Inten    --      6.1299                10.1143                 2.1859

                     91                     92                     93
                      A                      A                      A
 Frequencies --   1380.3775              1406.2665              1411.4875
 Red. masses --      1.3612                 1.4242                 1.2801
 Frc consts  --      1.5281                 1.6595                 1.5027
 IR Inten    --     18.4197                 7.5672                12.3760

                     94                     95                     96
                      A                      A                      A
 Frequencies --   1416.0220              1462.7142              1467.0461
 Red. masses --      1.3945                 1.0719                 1.7567
 Frc consts  --      1.6474                 1.3513                 2.2276
 IR Inten    --     12.1571                 5.1826                18.6077

                     97                     98                     99
                      A                      A                      A
 Frequencies --   1468.3175              1474.6768              1480.6606
 Red. masses --      1.2362                 1.0385                 1.0884
 Frc consts  --      1.5703                 1.3306                 1.4058
 IR Inten    --      9.6780                 5.2202                 2.1322

                    100                    101                    102
                      A                      A                      A
 Frequencies --   1483.1169              1486.8941              1487.3970
 Red. masses --      1.0450                 1.0594                 1.0844
 Frc consts  --      1.3543                 1.3800                 1.4135
 IR Inten    --     14.4259                 4.2449                 5.6164

                    103                    104                    105
                      A                      A                      A
 Frequencies --   1491.8092              1505.3437              1518.8398
 Red. masses --      1.0858                 1.0828                 2.1621
 Frc consts  --      1.4237                 1.4456                 2.9386
 IR Inten    --     10.5108                 6.4203                 6.5800

                    106                    107                    108
                      A                      A                      A
 Frequencies --   1570.8574              1620.6166              1642.7017
 Red. masses --      7.1751                 5.5352                 5.7467
 Frc consts  --     10.4317                 8.5653                 9.1366
 IR Inten    --    639.7031                65.9231                42.1456

                    109                    110                    111
                      A                      A                      A
 Frequencies --   1717.7411              1770.0296              3014.7208
 Red. masses --      6.4625                11.5746                 1.0382
 Frc consts  --     11.2348                21.3657                 5.5593
 IR Inten    --     43.7919               213.7142                15.8952

                    112                    113                    114
                      A                      A                      A
 Frequencies --   3025.8003              3028.5361              3042.2123
 Red. masses --      1.0468                 1.0609                 1.0355
 Frc consts  --      5.6465                 5.7332                 5.6466
 IR Inten    --     19.1717                31.4664                14.7653

                    115                    116                    117
                      A                      A                      A
 Frequencies --   3061.7351              3066.2135              3071.9527
 Red. masses --      1.0582                 1.0627                 1.0973
 Frc consts  --      5.8444                 5.8867                 6.1009
 IR Inten    --     14.1427                20.3404                 7.4203

                    118                    119                    120
                      A                      A                      A
 Frequencies --   3079.7989              3080.8152              3083.1176
 Red. masses --      1.0940                 1.0869                 1.0950
 Frc consts  --      6.1139                 6.0782                 6.1326
 IR Inten    --     13.8466                 3.1049                12.4414

                    121                    122                    123
                      A                      A                      A
 Frequencies --   3108.2910              3112.8775              3116.5967
 Red. masses --      1.1075                 1.1004                 1.0986
 Frc consts  --      6.3043                 6.2825                 6.2870
 IR Inten    --      6.9783                 6.5964                 1.7538

                    124                    125                    126
                      A                      A                      A
 Frequencies --   3119.0244              3122.0697              3136.3861
 Red. masses --      1.1018                 1.0914                 1.0977
 Frc consts  --      6.3150                 6.2679                 6.3622
 IR Inten    --     16.3525                38.6956                21.6827

                    127                    128                    129
                      A                      A                      A
 Frequencies --   3137.1640              3176.1108              3190.1315
 Red. masses --      1.1053                 1.0864                 1.0910
 Frc consts  --      6.4091                 6.4571                 6.5415
 IR Inten    --     18.9015                 1.2199                 7.1116

                    130                    131                    132
                      A                      A                      A
 Frequencies --   3198.1227              3215.8939              3221.3953
 Red. masses --      1.0959                 1.0943                 1.0939
 Frc consts  --      6.6038                 6.6678                 6.6882
 IR Inten    --      6.7216                 5.5340                 7.5112

 - Thermochemistry -
 -------------------
 Temperature   298.150 Kelvin.  Pressure   1.00000 Atm.
 Atom     1 has atomic number  6 and mass  12.00000

 Molecular mass:   434.99839 amu.
 Principal axes and moments of inertia in atomic units:
                           1         2         3
     Eigenvalues --  ******************************
           X            0.99867  -0.05065   0.00998
           Y            0.05035   0.99832   0.02855
           Z           -0.01141  -0.02801   0.99954
 This molecule is an asymmetric top.
 Rotational symmetry number  1.
 Warning -- assumption of classical behavior for rotation
           may cause significant error
 Rotational temperatures (Kelvin)      0.00855     0.00764     0.00662
 Rotational constants (GHZ):           0.17814     0.15930     0.13793
    1 imaginary frequencies ignored.
 Zero-point vibrational energy     943636.5 (Joules/Mol)
                                  225.53454 (Kcal/Mol)
 Warning -- explicit consideration of  42 degrees of freedom as
           vibrations may cause significant error
 Vibrational temperatures:     27.21    33.78    43.63    63.09    73.65
          (Kelvin)             93.00    95.14   109.20   116.29   123.70
                              133.88   142.69   157.52   162.00   167.64
                              174.74   202.53   215.73   219.59   251.86
                              296.76   297.66   309.30   371.84   375.52
                              400.52   438.99   457.03   494.70   512.67
                              549.21   560.42   576.52   587.16   593.48
                              609.11   635.76   676.44   709.30   738.11
                              787.50   821.47   896.73   954.85   996.43
                             1003.28  1079.03  1115.42  1123.73  1159.81
                             1202.32  1206.91  1228.89  1242.73  1290.41
                             1299.14  1382.87  1386.57  1407.04  1427.30
                             1434.06  1439.41  1442.83  1460.92  1466.29
                             1490.67  1505.94  1551.44  1577.10  1577.46
                             1607.76  1630.66  1634.73  1676.38  1682.78
                             1697.31  1738.05  1740.47  1765.96  1804.45
                             1840.51  1848.03  1900.18  1911.60  1926.96
                             1934.30  1967.62  1973.76  1982.54  1986.06
                             2023.30  2030.82  2037.34  2104.52  2110.75
                             2112.58  2121.73  2130.34  2133.87  2139.31
                             2140.03  2146.38  2165.85  2185.27  2260.11
                             2331.71  2363.48  2471.45  2546.68  4337.51
                             4353.45  4357.39  4377.06  4405.15  4411.60
                             4419.85  4431.14  4432.61  4435.92  4472.14
                             4478.74  4484.09  4487.58  4491.96  4512.56
                             4513.68  4569.72  4589.89  4601.39  4626.95
                             4634.87

 Zero-point correction=                           0.359412 (Hartree/Particle)
 Thermal correction to Energy=                    0.387181
 Thermal correction to Enthalpy=                  0.388125
 Thermal correction to Gibbs Free Energy=         0.296133
 Sum of electronic and zero-point Energies=          -3531.091754
 Sum of electronic and thermal Energies=             -3531.063985
 Sum of electronic and thermal Enthalpies=           -3531.063041
 Sum of electronic and thermal Free Energies=        -3531.155033

                     E (Thermal)             CV                S
                      KCal/Mol        Cal/Mol-Kelvin    Cal/Mol-Kelvin
 Total                  242.960             97.813            193.614
 Electronic               0.000              0.000              3.561
 Translational            0.889              2.981             44.100
 Rotational               0.889              2.981             35.661
 Vibrational            241.182             91.851            110.292
 Vibration     1          0.593              1.986              6.745
 Vibration     2          0.593              1.985              6.316
 Vibration     3          0.594              1.984              5.808
 Vibration     4          0.595              1.980              5.077
 Vibration     5          0.595              1.977              4.771
 Vibration     6          0.597              1.971              4.310
 Vibration     7          0.598              1.970              4.266
 Vibration     8          0.599              1.965              3.994
 Vibration     9          0.600              1.962              3.871
 Vibration    10          0.601              1.959              3.750
 Vibration    11          0.602              1.954              3.595
 Vibration    12          0.604              1.950              3.471
 Vibration    13          0.606              1.942              3.278
 Vibration    14          0.607              1.939              3.224
 Vibration    15          0.608              1.936              3.157
 Vibration    16          0.609              1.931              3.077
 Vibration    17          0.615              1.913              2.793
 Vibration    18          0.618              1.903              2.673
 Vibration    19          0.619              1.900              2.639
 Vibration    20          0.627              1.873              2.381
 Vibration    21          0.641              1.831              2.077
 Vibration    22          0.641              1.830              2.071
 Vibration    23          0.645              1.818              2.001
 Vibration    24          0.667              1.748              1.672
 Vibration    25          0.669              1.744              1.655
 Vibration    26          0.679              1.714              1.544
 Vibration    27          0.696              1.664              1.389
 Vibration    28          0.704              1.640              1.322
 Vibration    29          0.723              1.588              1.194
 Vibration    30          0.732              1.562              1.138
 Vibration    31          0.751              1.509              1.032
 Vibration    32          0.757              1.493              1.002
 Vibration    33          0.767              1.469              0.960
 Vibration    34          0.773              1.453              0.933
 Vibration    35          0.776              1.443              0.918
 Vibration    36          0.786              1.419              0.881
 Vibration    37          0.802              1.379              0.821
 Vibration    38          0.827              1.316              0.737
 Vibration    39          0.849              1.266              0.676
 Vibration    40          0.868              1.221              0.626
 Vibration    41          0.903              1.146              0.550
 Vibration    42          0.927              1.094              0.502

                           ! Non-Optimized Parameters !
 Normal termination of Gaussian 16 at Sun Jun 20 20:17:04 2021.

 ----------------------------------------------------------------------
 #p ub3lyp jul-cc-pvdz pop=cm5 scrf=(pcm,solvent=dichloroethane) guess=
 read geom=allcheck
 ----------------------------------------------------------------------

 Structure from the checkpoint file:  "checkpoint.chk"
 -----
 title
 -----
 Charge =  0 Multiplicity = 6

 SCF Done:  E(UB3LYP) =  -3531.46791713     A.U. after   18 cycles
 Normal termination of Gaussian 16 at Sun Jun 20 20:44:56 2021.
 Gaussian 16:  ES64L-G16RevA.03 25-Dec-2016

 ----------------------------------------------------------------------
 #p ub3lyp jul-cc-pvdz pop=cm5 scrf=(pcm,solvent=water) guess=read geom
 =allcheck
 ----------------------------------------------------------------------

 Structure from the checkpoint file:  "checkpoint.chk"
 -----
 title
 -----
 Charge =  0 Multiplicity = 6

                         Standard orientation:
 ---------------------------------------------------------------------
 Center     Atomic      Atomic             Coordinates (Angstroms)
 Number     Number       Type             X           Y           Z
 ---------------------------------------------------------------------
      1          6           0        2.762789    0.066460    1.452128
      2          6           0        1.526402   -0.492566    1.061691
      3          6           0        0.878648   -1.398702    1.930034
      4          6           0        1.456197   -1.743362    3.147495
      5          6           0        2.680418   -1.178853    3.526975
      6          6           0        3.326850   -0.271005    2.681149
      7          6           0        0.869164   -0.132465   -0.205121
      8          6           0        1.572213    0.650021   -1.318806
      9          6           0        2.854707    0.015697   -1.893018
     10          6           0        2.545571   -1.267001   -2.687498
     11          6           0        1.878683   -2.310046   -1.832697
     12          6           0        0.594175   -2.715502   -1.874810
     13          6           0       -0.422920   -2.259557   -2.886497
     14          8           0       -0.339424   -0.405069   -0.391472
     15         26           0       -2.180023   -0.062632    0.310388
     16         17           0       -3.313917    0.701292   -1.405857
     17          6           0        0.088899   -3.760778   -0.913902
     18         17           0       -1.897119    1.402707    1.926913
     19         17           0       -2.934815   -1.997459    1.050518
     20          1           0       -0.074609   -1.837348    1.641554
     21          1           0        0.948001   -2.447646    3.806503
     22          1           0        3.129098   -1.444476    4.485613
     23          1           0        4.273696    0.179061    2.980880
     24          1           0        3.274218    0.787683    0.819094
     25          1           0        0.815942    0.709177   -2.112198
     26          6           0        1.794618    2.106330   -0.863251
     27          1           0        3.332716    0.759800   -2.544507
     28          1           0        3.573987   -0.198962   -1.093810
     29          1           0        1.929384   -1.011791   -3.560352
     30          1           0        3.496225   -1.660682   -3.081227
     31          1           0        2.519471   -2.753802   -1.062969
     32          1           0        0.862235   -4.068225   -0.197853
     33          1           0       -0.787596   -3.395564   -0.357126
     34          1           0       -0.246021   -4.655721   -1.463001
     35          1           0       -0.771392   -3.123120   -3.475570
     36          1           0       -1.311767   -1.845025   -2.389234
     37          1           0       -0.043547   -1.506478   -3.585631
     38          8           0        0.622892    2.739441   -0.754642
     39          8           0        2.878278    2.607730   -0.653212
     40          6           0        0.661838    4.131743   -0.312978
     41          6           0       -0.758704    4.654802   -0.329086
     42          1           0        1.104974    4.151969    0.691725
     43          1           0        1.324748    4.683446   -0.992408
     44          1           0       -0.759507    5.701528    0.007599
     45          1           0       -1.181345    4.616019   -1.342270
     46          1           0       -1.400096    4.069290    0.342133
 ---------------------------------------------------------------------

 SCF Done:  E(UB3LYP) =  -3531.47110699     A.U. after   14 cycles

 The electronic state is 6-A.
 Alpha  occ. eigenvalues -- -256.21908-101.53100-101.53045-101.52939 -30.21284
 Alpha  occ. eigenvalues --  -26.06758 -26.06416 -26.06380 -19.21203 -19.20406
 Alpha  occ. eigenvalues --  -19.16360 -10.34340 -10.33738 -10.25273 -10.23484
 Alpha  occ. eigenvalues --  -10.23124 -10.22333 -10.22227 -10.22162 -10.21425
 Alpha  occ. eigenvalues --  -10.21406 -10.20439 -10.20157 -10.19333 -10.18758
 Alpha  occ. eigenvalues --  -10.18280 -10.18178 -10.18030  -9.44810  -9.44764
 Alpha  occ. eigenvalues --   -9.44676  -7.20680  -7.20633  -7.20543  -7.20380
 Alpha  occ. eigenvalues --   -7.20344  -7.20325  -7.20300  -7.20225  -7.20219
 Alpha  occ. eigenvalues --   -3.68919  -2.46707  -2.46065  -2.45999  -1.13170
 Alpha  occ. eigenvalues --   -1.10684  -1.04709  -0.88896  -0.84780  -0.81988
 Alpha  occ. eigenvalues --   -0.81074  -0.80330  -0.80271  -0.79216  -0.78546
 Alpha  occ. eigenvalues --   -0.77539  -0.75002  -0.69601  -0.69119  -0.67540
 Alpha  occ. eigenvalues --   -0.64784  -0.63192  -0.61847  -0.60016  -0.57854
 Alpha  occ. eigenvalues --   -0.56632  -0.53873  -0.52688  -0.51987  -0.51044
 Alpha  occ. eigenvalues --   -0.50345  -0.49537  -0.49238  -0.48970  -0.48831
 Alpha  occ. eigenvalues --   -0.48545  -0.47496  -0.47113  -0.46792  -0.45754
 Alpha  occ. eigenvalues --   -0.45410  -0.44924  -0.44453  -0.43242  -0.42964
 Alpha  occ. eigenvalues --   -0.42433  -0.40846  -0.40491  -0.39927  -0.39429
 Alpha  occ. eigenvalues --   -0.38746  -0.38620  -0.38083  -0.37878  -0.37396
 Alpha  occ. eigenvalues --   -0.37190  -0.36923  -0.36576  -0.36442  -0.35118
 Alpha  occ. eigenvalues --   -0.35074  -0.34810  -0.33179  -0.32752  -0.32406
 Alpha  occ. eigenvalues --   -0.31844  -0.31822  -0.31676  -0.31462  -0.30551
 Alpha  occ. eigenvalues --   -0.30362  -0.30026  -0.28903  -0.28167  -0.24518
 Alpha virt. eigenvalues --   -0.11443  -0.03796  -0.02362  -0.01647  -0.00694
 Alpha virt. eigenvalues --   -0.00145  -0.00047   0.00106   0.00548   0.01540
 Alpha virt. eigenvalues --    0.01689   0.01894   0.02220   0.02626   0.03298

  Beta  occ. eigenvalues -- -256.21722-101.52897-101.52848-101.52744 -30.12347
  Beta  occ. eigenvalues --  -25.99163 -25.99037 -25.99010 -19.21203 -19.20082
  Beta  occ. eigenvalues --  -19.16355 -10.34336 -10.33708 -10.25273 -10.23470
  Beta  occ. eigenvalues --  -10.23114 -10.22328 -10.22219 -10.22157 -10.21426
  Beta  occ. eigenvalues --  -10.21409 -10.20438 -10.20149 -10.19333 -10.18757
  Beta  occ. eigenvalues --  -10.18272 -10.18179 -10.18030  -9.44612  -9.44572
  Beta  occ. eigenvalues --   -9.44484  -7.20358  -7.20314  -7.20230  -7.20091
  Beta  occ. eigenvalues --   -7.20074  -7.20054  -7.20038  -7.19958  -7.19951
  Beta  occ. eigenvalues --   -3.48075  -2.24389  -2.24260  -2.24217  -1.13160
  Beta  occ. eigenvalues --   -1.10067  -1.04702  -0.88863  -0.84729  -0.81952
  Beta  occ. eigenvalues --   -0.79793  -0.79192  -0.78946  -0.78894  -0.78533
  Beta  occ. eigenvalues --   -0.77531  -0.74966  -0.69588  -0.69011  -0.67450
  Beta  occ. eigenvalues --   -0.64756  -0.63164  -0.61591  -0.59710  -0.57737
  Beta  occ. eigenvalues --   -0.55963  -0.53402  -0.52619  -0.51876  -0.50770
  Beta  occ. eigenvalues --   -0.50048  -0.49268  -0.47458  -0.46850  -0.46378
  Beta  occ. eigenvalues --   -0.45454  -0.45117  -0.44446  -0.43258  -0.42954
  Beta  occ. eigenvalues --   -0.42427  -0.40857  -0.40484  -0.39914  -0.39298
  Beta  occ. eigenvalues --   -0.38876  -0.38626  -0.38487  -0.37932  -0.37392
  Beta  occ. eigenvalues --   -0.37192  -0.36905  -0.36702  -0.36673  -0.36483
  Beta  occ. eigenvalues --   -0.36430  -0.35065  -0.33972  -0.33793  -0.33458
  Beta  occ. eigenvalues --   -0.33081  -0.32801  -0.32406  -0.31770  -0.30978
  Beta  occ. eigenvalues --   -0.30230  -0.30190  -0.28955  -0.28149  -0.24455
  Beta virt. eigenvalues --   -0.15978  -0.15500  -0.14530  -0.14147  -0.14054
  Beta virt. eigenvalues --   -0.10482  -0.03760  -0.02327  -0.01511  -0.00613
  Beta virt. eigenvalues --   -0.00087  -0.00006   0.00157   0.00645   0.01567

 Mulliken charges and spin densities:
               1          2
     1  C   -0.132949   0.004561
     2  C    3.224501  -0.001741
     3  C   -0.662100  -0.003565
     4  C    0.116637   0.000616
     5  C    0.259373   0.008896
     6  C   -0.161010  -0.001886
     7  C   -1.751427  -0.005854
     8  C    0.169335   0.008994
     9  C    0.637782   0.002238
    10  C    0.519095  -0.000324
    11  C    0.136637   0.004592
    12  C   -0.025210   0.009039
    13  C    0.153902  -0.001495
    14  O   -0.308826   0.093053
    15  Fe   0.734561   4.072457
    16  Cl  -0.480704   0.267745
    17  C    0.159361  -0.001929
    18  Cl  -0.446081   0.270828
    19  Cl  -0.447532   0.264453
    20  H   -0.274267   0.000182
    21  H   -0.160118   0.000015
    22  H   -0.141102  -0.000126
    23  H   -0.152180   0.000083
    24  H   -0.214074  -0.000100
    25  H   -0.140322  -0.000352
    26  C    0.793238   0.005295
    27  H   -0.141608   0.000402
    28  H   -0.048185   0.000027
    29  H   -0.090688   0.000001
    30  H   -0.124674   0.000512
    31  H   -0.240465  -0.000241
    32  H   -0.027050   0.000053
    33  H    0.053760   0.000599
    34  H   -0.024832   0.000320
    35  H   -0.020307   0.000325
    36  H    0.013501   0.000673
    37  H   -0.012267   0.000033
    38  O   -0.660464   0.000796
    39  O   -0.543087   0.001719
    40  C    0.443756  -0.000105
    41  C    0.033670  -0.000467
    42  H   -0.031148   0.000044
    43  H   -0.036603   0.000008
    44  H   -0.003985   0.000039
    45  H    0.025784   0.000041
    46  H    0.028372  -0.000451
 Sum of Mulliken charges =  -0.00000   5.00000

 Dipole moment (field-independent basis, Debye):
    X=              9.4379    Y=             -0.6822    Z=             -0.0628  Tot=              9.4627
 Quadrupole moment (field-independent basis, Debye-Ang):
   XX=           -193.2079   YY=           -167.8086   ZZ=           -164.7151
   XY=             -7.2406   XZ=              8.6049   YZ=             -4.1854

 Normal termination of Gaussian 16 at Sun Jun 20 21:06:43 2021.
