 Gaussian 16, Revision A.03,

 -----------------------------------------------------------
 #p opt=modredundant freq=noraman ub3lyp jul-cc-pvdz pop=cm5
 -----------------------------------------------------------

 -----
 title
 -----
 Symbolic Z-matrix:
 Charge =  0 Multiplicity = 6

 SCF Done:  E(UB3LYP) =  -3531.41384841     A.U. after   26 cycles
 SCF Done:  E(UB3LYP) =  -3531.41373321     A.U. after   17 cycles
 SCF Done:  E(UB3LYP) =  -3531.40870617     A.U. after   21 cycles
 SCF Done:  E(UB3LYP) =  -3531.40856119     A.U. after   20 cycles
 SCF Done:  E(UB3LYP) =  -3531.41398323     A.U. after   14 cycles
 SCF Done:  E(UB3LYP) =  -3531.41361792     A.U. after   18 cycles
 SCF Done:  E(UB3LYP) =  -3531.41422215     A.U. after   18 cycles
 SCF Done:  E(UB3LYP) =  -3531.41428925     A.U. after   15 cycles
 SCF Done:  E(UB3LYP) =  -3531.41446307     A.U. after   16 cycles
 SCF Done:  E(UB3LYP) =  -3531.41445801     A.U. after   16 cycles
 SCF Done:  E(UB3LYP) =  -3531.41450709     A.U. after   10 cycles
 SCF Done:  E(UB3LYP) =  -3531.41450708     A.U. after   10 cycles
 SCF Done:  E(UB3LYP) =  -3531.41450711     A.U. after   10 cycles
 SCF Done:  E(UB3LYP) =  -3531.41450706     A.U. after   10 cycles
 SCF Done:  E(UB3LYP) =  -3531.41450713     A.U. after   10 cycles
 SCF Done:  E(UB3LYP) =  -3531.41450718     A.U. after   10 cycles
 SCF Done:  E(UB3LYP) =  -3531.41450723     A.U. after    9 cycles
 Optimization completed.
    -- Stationary point found.
 Normal termination of Gaussian 16 at Sun Jun 20 06:31:05 2021.

 ----------------------------------------------------------------------
 #P Geom=AllCheck Guess=TCheck SCRF=Check GenChk UB3LYP/Jul-CC-pVDZ Fre
 q
 ----------------------------------------------------------------------

 Structure from the checkpoint file:  "checkpoint.chk"
 -----
 title
 -----
 Charge =  0 Multiplicity = 6

 SCF Done:  E(UB3LYP) =  -3531.41450723     A.U. after    2 cycles

  Exact polarizability: 318.683  14.659 299.488  12.186  12.963 295.609
 Approx polarizability: 494.236  40.608 454.133   8.847  23.164 491.135

 ******    2 imaginary frequencies (negative Signs) ******

                      1                      2                      3
                      A                      A                      A
 Frequencies --   -231.7096               -20.6909                17.1938
 Red. masses --      8.1181                 5.3860                 5.7477
 Frc consts  --      0.2568                 0.0014                 0.0010
 IR Inten    --    332.2029                 1.3436                 0.4854

                      4                      5                      6
                      A                      A                      A
 Frequencies --     27.0317                30.8541                47.5900
 Red. masses --      5.3441                 7.6038                 5.1660
 Frc consts  --      0.0023                 0.0043                 0.0069
 IR Inten    --      1.3481                 0.4489                 2.6454

                      7                      8                      9
                      A                      A                      A
 Frequencies --     52.2370                62.5575                67.9400
 Red. masses --      3.1035                 5.0382                 4.3897
 Frc consts  --      0.0050                 0.0116                 0.0119
 IR Inten    --      0.7949                 0.5864                 1.1069

                     10                     11                     12
                      A                      A                      A
 Frequencies --     83.4787                89.3277               102.5481
 Red. masses --     11.2176                 7.6082                 8.2984
 Frc consts  --      0.0461                 0.0358                 0.0514
 IR Inten    --      0.4105                 1.7736                 1.3285

                     13                     14                     15
                      A                      A                      A
 Frequencies --    105.2883               106.0742               120.6413
 Red. masses --      6.0077                 4.1072                18.2612
 Frc consts  --      0.0392                 0.0272                 0.1566
 IR Inten    --      9.0887                 4.0813                 1.5417

                     16                     17                     18
                      A                      A                      A
 Frequencies --    129.4300               141.5294               145.6892
 Red. masses --      7.0639                 1.1861                 2.1297
 Frc consts  --      0.0697                 0.0140                 0.0266
 IR Inten    --      1.5819                 1.0254                 3.5699

                     19                     20                     21
                      A                      A                      A
 Frequencies --    151.3037               163.6692               170.6876
 Red. masses --      1.5423                 2.9003                 2.8460
 Frc consts  --      0.0208                 0.0458                 0.0489
 IR Inten    --      1.0929                 2.9767                 1.7225

                     22                     23                     24
                      A                      A                      A
 Frequencies --    192.6794               207.8284               225.7593
 Red. masses --      2.9350                 3.0609                 4.7962
 Frc consts  --      0.0642                 0.0779                 0.1440
 IR Inten    --      1.5017                 3.7907                19.8536

                     25                     26                     27
                      A                      A                      A
 Frequencies --    244.3997               261.1343               293.2656
 Red. masses --      3.1025                 1.8866                 3.9979
 Frc consts  --      0.1092                 0.0758                 0.2026
 IR Inten    --      5.0166                 3.1446                 3.7600

                     28                     29                     30
                      A                      A                      A
 Frequencies --    319.1081               324.8388               346.5085
 Red. masses --      2.3105                 8.3450                11.6675
 Frc consts  --      0.1386                 0.5188                 0.8254
 IR Inten    --      1.4429                 3.0874                41.5012

                     31                     32                     33
                      A                      A                      A
 Frequencies --    353.4178               371.8638               380.2906
 Red. masses --      7.9391                 3.8020                33.6792
 Frc consts  --      0.5843                 0.3098                 2.8697
 IR Inten    --     21.8918                 9.4439                84.3361

                     34                     35                     36
                      A                      A                      A
 Frequencies --    391.4532               403.9254               411.0476
 Red. masses --     31.8054                 2.8368                 2.8719
 Frc consts  --      2.8715                 0.2727                 0.2859
 IR Inten    --     76.2866                 9.3985                 0.5633

                     37                     38                     39
                      A                      A                      A
 Frequencies --    435.4099               451.4026               479.5505
 Red. masses --      3.6486                 4.3084                 2.4774
 Frc consts  --      0.4075                 0.5172                 0.3357
 IR Inten    --     21.9396                 7.0940                10.6680

                     40                     41                     42
                      A                      A                      A
 Frequencies --    506.8042               530.6113               554.7866
 Red. masses --      2.8007                 3.2691                 3.1358
 Frc consts  --      0.4238                 0.5423                 0.5687
 IR Inten    --      5.7172                 2.8503                38.6102

                     43                     44                     45
                      A                      A                      A
 Frequencies --    614.1168               626.5432               640.5098
 Red. masses --      4.6573                 6.0689                 4.0722
 Frc consts  --      1.0349                 1.4037                 0.9843
 IR Inten    --     27.0558                15.3938               116.7820

                     46                     47                     48
                      A                      A                      A
 Frequencies --    696.4733               706.2784               757.7554
 Red. masses --      1.6416                 5.6877                 4.3744
 Frc consts  --      0.4692                 1.6716                 1.4799
 IR Inten    --     47.5831                32.9565                 2.6774

                     49                     50                     51
                      A                      A                      A
 Frequencies --    764.7148               801.1375               807.5085
 Red. masses --      2.4395                 1.5296                 2.0965
 Frc consts  --      0.8405                 0.5784                 0.8054
 IR Inten    --     13.0339                17.7811                 5.5640

                     52                     53                     54
                      A                      A                      A
 Frequencies --    820.2294               841.6530               863.8542
 Red. masses --      2.8124                 1.2601                 2.3231
 Frc consts  --      1.1148                 0.5259                 1.0214
 IR Inten    --     28.5334                 1.5952                13.4769

                     55                     56                     57
                      A                      A                      A
 Frequencies --    872.6086               890.0435               921.5664
 Red. masses --      1.6498                 1.7136                 2.1421
 Frc consts  --      0.7401                 0.7998                 1.0719
 IR Inten    --     21.5782                 3.1777                15.4225

                     58                     59                     60
                      A                      A                      A
 Frequencies --    936.3121               961.0748               970.5357
 Red. masses --      1.4266                 2.8701                 1.3681
 Frc consts  --      0.7369                 1.5619                 0.7593
 IR Inten    --      2.6777                19.5133                24.8089

                     61                     62                     63
                      A                      A                      A
 Frequencies --    984.4653               990.4080              1000.9005
 Red. masses --      1.4478                 2.8029                 1.8098
 Frc consts  --      0.8267                 1.6199                 1.0682
 IR Inten    --      2.7770                39.3703                 1.0158

                     64                     65                     66
                      A                      A                      A
 Frequencies --   1004.4354              1004.7028              1007.7026
 Red. masses --      1.4560                 1.7234                 2.3809
 Frc consts  --      0.8655                 1.0250                 1.4245
 IR Inten    --     22.0685                 0.8269                 3.5153

                     67                     68                     69
                      A                      A                      A
 Frequencies --   1037.7599              1046.8262              1064.5961
 Red. masses --      2.8055                 2.4501                 2.2689
 Frc consts  --      1.7801                 1.5819                 1.5151
 IR Inten    --     38.0424                 5.6653                 3.1351

                     70                     71                     72
                      A                      A                      A
 Frequencies --   1072.3893              1095.3961              1109.8119
 Red. masses --      1.8403                 1.6818                 1.5728
 Frc consts  --      1.2470                 1.1890                 1.1414
 IR Inten    --     23.9938                12.2064                10.9460

                     73                     74                     75
                      A                      A                      A
 Frequencies --   1131.4472              1134.4554              1161.2227
 Red. masses --      2.2413                 2.3228                 1.7274
 Frc consts  --      1.6905                 1.7613                 1.3724
 IR Inten    --     11.2001                 6.7569                45.9517

                     76                     77                     78
                      A                      A                      A
 Frequencies --   1169.9953              1175.4740              1192.7301
 Red. masses --      1.5760                 1.0893                 1.7084
 Frc consts  --      1.2711                 0.8868                 1.4320
 IR Inten    --      9.6377                 0.8486                52.3081

                     79                     80                     81
                      A                      A                      A
 Frequencies --   1201.7776              1211.3631              1229.8519
 Red. masses --      1.3721                 2.4871                 1.9554
 Frc consts  --      1.1676                 2.1502                 1.7426
 IR Inten    --     19.2046                34.2234               156.6804

                     82                     83                     84
                      A                      A                      A
 Frequencies --   1259.3976              1276.0131              1287.1782
 Red. masses --      1.8448                 2.1294                 1.1949
 Frc consts  --      1.7239                 2.0428                 1.1665
 IR Inten    --     35.9856               356.5938                51.3773

                     85                     86                     87
                      A                      A                      A
 Frequencies --   1322.3458              1323.7403              1331.6690
 Red. masses --      1.5172                 1.4145                 1.6915
 Frc consts  --      1.5631                 1.4603                 1.7673
 IR Inten    --     84.9652                 6.3693                27.4819

                     88                     89                     90
                      A                      A                      A
 Frequencies --   1349.8016              1359.5082              1362.2994
 Red. masses --      1.5502                 3.5756                 1.3942
 Frc consts  --      1.6641                 3.8937                 1.5245
 IR Inten    --     91.0045                 0.2820                48.8851

                     91                     92                     93
                      A                      A                      A
 Frequencies --   1371.5474              1384.6374              1387.7885
 Red. masses --      1.3245                 1.3500                 1.3430
 Frc consts  --      1.4680                 1.5249                 1.5239
 IR Inten    --     75.5747                11.0091                85.1940

                     94                     95                     96
                      A                      A                      A
 Frequencies --   1407.4136              1416.2237              1440.6717
 Red. masses --      1.6967                 1.4409                 1.0709
 Frc consts  --      1.9801                 1.7027                 1.3096
 IR Inten    --     83.1376                 0.8459                20.0075

                     97                     98                     99
                      A                      A                      A
 Frequencies --   1460.1455              1466.5181              1471.3543
 Red. masses --      1.0753                 1.2112                 1.9511
 Frc consts  --      1.3507                 1.5348                 2.4886
 IR Inten    --      1.4907                 6.9429                42.6124

                    100                    101                    102
                      A                      A                      A
 Frequencies --   1473.2772              1480.8654              1488.8711
 Red. masses --      1.0397                 1.1220                 1.0544
 Frc consts  --      1.3297                 1.4497                 1.3771
 IR Inten    --      4.7282                19.4889                 2.4644

                    103                    104                    105
                      A                      A                      A
 Frequencies --   1499.4814              1504.7625              1506.9417
 Red. masses --      1.1580                 1.1297                 1.0844
 Frc consts  --      1.5340                 1.5072                 1.4508
 IR Inten    --      9.4655                18.6729                 6.8680

                    106                    107                    108
                      A                      A                      A
 Frequencies --   1516.0222              1605.3940              1620.3753
 Red. masses --      1.8970                 4.3933                 5.5400
 Frc consts  --      2.5688                 6.6712                 8.5702
 IR Inten    --      2.8159               143.6071                 9.5560

                    109                    110                    111
                      A                      A                      A
 Frequencies --   1639.4409              1763.9539              3006.2510
 Red. masses --      5.6804                11.5284                 1.0519
 Frc consts  --      8.9954                21.1345                 5.6012
 IR Inten    --     14.6375               233.4599                 3.7017

                    112                    113                    114
                      A                      A                      A
 Frequencies --   3023.5890              3041.1348              3051.4328
 Red. masses --      1.0400                 1.0360                 1.0644
 Frc consts  --      5.6017                 5.6454                 5.8391
 IR Inten    --      2.9459                20.6557                22.0392

                    115                    116                    117
                      A                      A                      A
 Frequencies --   3060.1738              3070.9889              3076.7193
 Red. masses --      1.0595                 1.0623                 1.0853
 Frc consts  --      5.8459                 5.9028                 6.0530
 IR Inten    --     14.8450                23.5446                 1.2934

                    118                    119                    120
                      A                      A                      A
 Frequencies --   3079.4186              3100.8074              3106.6881
 Red. masses --      1.0956                 1.0975                 1.0843
 Frc consts  --      6.1212                 6.2175                 6.1658
 IR Inten    --      0.9259                 7.2079                 2.2931

                    121                    122                    123
                      A                      A                      A
 Frequencies --   3109.0704              3117.0685              3121.8274
 Red. masses --      1.1049                 1.1027                 1.1019
 Frc consts  --      6.2925                 6.3126                 6.3273
 IR Inten    --     10.7622                16.0880                16.0677

                    124                    125                    126
                      A                      A                      A
 Frequencies --   3140.1622              3151.7355              3167.0463
 Red. masses --      1.1043                 1.1018                 1.1025
 Frc consts  --      6.4156                 6.4483                 6.5151
 IR Inten    --     12.8497                 5.7651                 3.1847

                    127                    128                    129
                      A                      A                      A
 Frequencies --   3172.5977              3174.5312              3184.8862
 Red. masses --      1.0858                 1.0879                 1.0909
 Frc consts  --      6.4392                 6.4594                 6.5197
 IR Inten    --      0.0890                 7.7456                 7.4052

                    130                    131                    132
                      A                      A                      A
 Frequencies --   3195.2022              3221.9811              3228.6600
 Red. masses --      1.0968                 1.0920                 1.0920
 Frc consts  --      6.5972                 6.6794                 6.7070
 IR Inten    --     14.8223                 2.1851                 2.3113

 - Thermochemistry -
 -------------------
 Temperature   298.150 Kelvin.  Pressure   1.00000 Atm.
 Atom     1 has atomic number  6 and mass  12.00000

 Molecular mass:   434.99839 amu.
 Principal axes and moments of inertia in atomic units:
                           1         2         3
     Eigenvalues --  9060.49721********************
           X            0.99985  -0.00015   0.01706
           Y           -0.00024   0.99975   0.02251
           Z           -0.01706  -0.02251   0.99960
 This molecule is an asymmetric top.
 Rotational symmetry number  1.
 Warning -- assumption of classical behavior for rotation
           may cause significant error
 Rotational temperatures (Kelvin)      0.00956     0.00791     0.00678
 Rotational constants (GHZ):           0.19919     0.16481     0.14126
    2 imaginary frequencies ignored.
 Zero-point vibrational energy     941469.4 (Joules/Mol)
                                  225.01659 (Kcal/Mol)
 Warning -- explicit consideration of  41 degrees of freedom as
           vibrations may cause significant error
 Vibrational temperatures:     24.74    38.89    44.39    68.47    75.16
          (Kelvin)             90.01    97.75   120.11   128.52   147.54
                              151.49   152.62   173.58   186.22   203.63
                              209.61   217.69   235.48   245.58   277.22
                              299.02   324.82   351.64   375.71   421.94
                              459.13   467.37   498.55   508.49   535.03
                              547.15   563.21   581.16   591.41   626.46
                              649.47   689.97   729.18   763.43   798.21
                              883.58   901.46   921.55  1002.07  1016.18
                             1090.24  1100.25  1152.66  1161.82  1180.13
                             1210.95  1242.89  1255.49  1280.57  1325.93
                             1347.14  1382.77  1396.38  1416.43  1424.98
                             1440.07  1445.16  1445.54  1449.86  1493.10
                             1506.15  1531.72  1542.93  1576.03  1596.77
                             1627.90  1632.23  1670.74  1683.36  1691.24
                             1716.07  1729.09  1742.88  1769.48  1811.99
                             1835.90  1851.96  1902.56  1904.57  1915.97
                             1942.06  1956.03  1960.04  1973.35  1992.18
                             1996.72  2024.95  2037.63  2072.81  2100.82
                             2109.99  2116.95  2119.72  2130.64  2142.15
                             2157.42  2165.02  2168.15  2181.22  2309.80
                             2331.36  2358.79  2537.94  4325.32  4350.27
                             4375.51  4390.33  4402.91  4418.47  4426.71
                             4430.60  4461.37  4469.83  4473.26  4484.77
                             4491.61  4517.99  4534.64  4556.67  4564.66
                             4567.44  4582.34  4597.18  4635.71  4645.32

 Zero-point correction=                           0.358587 (Hartree/Particle)
 Thermal correction to Energy=                    0.385389
 Thermal correction to Enthalpy=                  0.386333
 Thermal correction to Gibbs Free Energy=         0.297092
 Sum of electronic and zero-point Energies=          -3531.055920
 Sum of electronic and thermal Energies=             -3531.029119
 Sum of electronic and thermal Enthalpies=           -3531.028174
 Sum of electronic and thermal Free Energies=        -3531.117415

                     E (Thermal)             CV                S
                      KCal/Mol        Cal/Mol-Kelvin    Cal/Mol-Kelvin
 Total                  241.835             95.844            187.823
 Electronic               0.000              0.000              3.561
 Translational            0.889              2.981             44.100
 Rotational               0.889              2.981             35.493
 Vibrational            240.058             89.882            104.669
 Vibration     1          0.593              1.986              6.934
 Vibration     2          0.593              1.984              6.036
 Vibration     3          0.594              1.984              5.774
 Vibration     4          0.595              1.978              4.915
 Vibration     5          0.596              1.977              4.731
 Vibration     6          0.597              1.972              4.375
 Vibration     7          0.598              1.969              4.212
 Vibration     8          0.600              1.961              3.807
 Vibration     9          0.602              1.957              3.675
 Vibration    10          0.605              1.947              3.405
 Vibration    11          0.605              1.945              3.354
 Vibration    12          0.605              1.944              3.340
 Vibration    13          0.609              1.932              3.090
 Vibration    14          0.612              1.924              2.954
 Vibration    15          0.615              1.912              2.783
 Vibration    16          0.617              1.907              2.728
 Vibration    17          0.619              1.901              2.656
 Vibration    18          0.623              1.887              2.507
 Vibration    19          0.626              1.879              2.428
 Vibration    20          0.635              1.850              2.202
 Vibration    21          0.641              1.829              2.063
 Vibration    22          0.650              1.802              1.912
 Vibration    23          0.660              1.772              1.771
 Vibration    24          0.669              1.744              1.654
 Vibration    25          0.688              1.686              1.455
 Vibration    26          0.705              1.637              1.315
 Vibration    27          0.709              1.626              1.286
 Vibration    28          0.725              1.582              1.182
 Vibration    29          0.730              1.568              1.151
 Vibration    30          0.744              1.530              1.072
 Vibration    31          0.750              1.512              1.038
 Vibration    32          0.759              1.488              0.995
 Vibration    33          0.769              1.462              0.948
 Vibration    34          0.775              1.446              0.923
 Vibration    35          0.796              1.393              0.841
 Vibration    36          0.810              1.358              0.792
 Vibration    37          0.836              1.295              0.711
 Vibration    38          0.862              1.235              0.641
 Vibration    39          0.886              1.182              0.586
 Vibration    40          0.910              1.129              0.534
 Vibration    41          0.974              1.002              0.426

                           ! Non-Optimized Parameters !
 Normal termination of Gaussian 16 at Sun Jun 20 10:28:28 2021.

 ----------------------------------------------------------------------
 #p ub3lyp jul-cc-pvdz pop=cm5 scrf=(pcm,solvent=dichloroethane) guess=
 read geom=allcheck
 ----------------------------------------------------------------------

 Structure from the checkpoint file:  "checkpoint.chk"
 -----
 title
 -----
 Charge =  0 Multiplicity = 6

 SCF Done:  E(UB3LYP) =  -3531.43632670     A.U. after   19 cycles
 Normal termination of Gaussian 16 at Sun Jun 20 10:55:30 2021.
 Gaussian 16:  ES64L-G16RevA.03 25-Dec-2016

 ----------------------------------------------------------------------
 #p ub3lyp jul-cc-pvdz pop=cm5 scrf=(pcm,solvent=water) guess=read geom
 =allcheck
 ----------------------------------------------------------------------

 Structure from the checkpoint file:  "checkpoint.chk"
 -----
 title
 -----
 Charge =  0 Multiplicity = 6

                         Standard orientation:
 ---------------------------------------------------------------------
 Center     Atomic      Atomic             Coordinates (Angstroms)
 Number     Number       Type             X           Y           Z
 ---------------------------------------------------------------------
      1          6           0        3.211745   -0.494713    0.446862
      2          6           0        1.829878   -0.586829    0.704316
      3          6           0        1.393575   -0.602007    2.041116
      4          6           0        2.312795   -0.536085    3.090752
      5          6           0        3.681179   -0.455899    2.822992
      6          6           0        4.126728   -0.430613    1.495421
      7          6           0        0.797296   -0.625962   -0.395409
      8          6           0        0.999528    0.279460   -1.662844
      9          6           0        1.817969   -0.410270   -2.756454
     10          6           0        1.332661   -1.864595   -2.789302
     11          6           0        1.235181   -2.326160   -1.353316
     12          6           0        0.126159   -2.920325   -0.775335
     13          6           0       -1.208034   -2.979458   -1.431930
     14          8           0       -0.440259   -0.728879    0.022623
     15         26           0       -2.105332    0.146455    0.387493
     16         17           0       -2.869665    0.903764   -1.554436
     17          6           0        0.222981   -3.567391    0.561000
     18         17           0       -1.809443    1.697715    1.935608
     19         17           0       -3.370375   -1.498272    1.203877
     20          1           0        0.328340   -0.633376    2.255342
     21          1           0        1.952761   -0.537811    4.120224
     22          1           0        4.399602   -0.403085    3.642540
     23          1           0        5.192213   -0.352304    1.276126
     24          1           0        3.584162   -0.456916   -0.573945
     25          1           0       -0.023695    0.450451   -2.021057
     26          6           0        1.579604    1.648480   -1.292334
     27          1           0        1.673361    0.096163   -3.719781
     28          1           0        2.889284   -0.351875   -2.529345
     29          1           0        0.362097   -1.927426   -3.295897
     30          1           0        2.029420   -2.507917   -3.345748
     31          1           0        2.189893   -2.548631   -0.878124
     32          1           0        1.235025   -3.550251    0.977329
     33          1           0       -0.481625   -3.081656    1.253559
     34          1           0       -0.112414   -4.613513    0.470219
     35          1           0       -1.265149   -3.952291   -1.953846
     36          1           0       -2.018196   -2.953128   -0.694091
     37          1           0       -1.368535   -2.194185   -2.175556
     38          8           0        0.635371    2.442768   -0.779251
     39          8           0        2.736488    1.970409   -1.470103
     40          6           0        1.045580    3.787275   -0.385904
     41          6           0       -0.207934    4.606579   -0.160683
     42          1           0        1.652909    3.693942    0.525112
     43          1           0        1.680883    4.195968   -1.181715
     44          1           0        0.078626    5.619803    0.156882
     45          1           0       -0.795544    4.685669   -1.085579
     46          1           0       -0.837727    4.156744    0.616870
 ---------------------------------------------------------------------

 SCF Done:  E(UB3LYP) =  -3531.44046045     A.U. after   17 cycles

 The electronic state is 6-A.
 Alpha  occ. eigenvalues -- -256.20378-101.52057-101.52011-101.51915 -30.19782
 Alpha  occ. eigenvalues --  -26.05098 -26.05022 -26.04915 -19.20571 -19.16612
 Alpha  occ. eigenvalues --  -19.15480 -10.33314 -10.32448 -10.27407 -10.24865
 Alpha  occ. eigenvalues --  -10.22526 -10.21947 -10.21944 -10.20932 -10.20832
 Alpha  occ. eigenvalues --  -10.20738 -10.20561 -10.20457 -10.20415 -10.20333
 Alpha  occ. eigenvalues --  -10.20232 -10.20196 -10.18488  -9.43775  -9.43741
 Alpha  occ. eigenvalues --   -9.43634  -7.19640  -7.19607  -7.19506  -7.19322
 Alpha  occ. eigenvalues --   -7.19315  -7.19289  -7.19280  -7.19180  -7.19166
 Alpha  occ. eigenvalues --   -3.67481  -2.45014  -2.44819  -2.44643  -1.12416
 Alpha  occ. eigenvalues --   -1.06613  -1.03893  -0.88040  -0.87074  -0.83747
 Alpha  occ. eigenvalues --   -0.80019  -0.79322  -0.79207  -0.78811  -0.78128
 Alpha  occ. eigenvalues --   -0.76412  -0.75168  -0.72555  -0.71213  -0.66611
 Alpha  occ. eigenvalues --   -0.64548  -0.62303  -0.61698  -0.59551  -0.57359
 Alpha  occ. eigenvalues --   -0.56149  -0.54461  -0.53043  -0.51532  -0.50545
 Alpha  occ. eigenvalues --   -0.49895  -0.49447  -0.48930  -0.48049  -0.47896
 Alpha  occ. eigenvalues --   -0.47684  -0.47505  -0.46868  -0.46712  -0.46083
 Alpha  occ. eigenvalues --   -0.44907  -0.44749  -0.43618  -0.43332  -0.42778
 Alpha  occ. eigenvalues --   -0.42470  -0.41291  -0.40727  -0.40489  -0.40028
 Alpha  occ. eigenvalues --   -0.39503  -0.38852  -0.38136  -0.37676  -0.37415
 Alpha  occ. eigenvalues --   -0.37104  -0.36860  -0.36123  -0.35904  -0.35790
 Alpha  occ. eigenvalues --   -0.34669  -0.34246  -0.33769  -0.32091  -0.31780
 Alpha  occ. eigenvalues --   -0.30938  -0.30867  -0.30568  -0.30252  -0.29897
 Alpha  occ. eigenvalues --   -0.29539  -0.28997  -0.28308  -0.27161  -0.26021
 Alpha virt. eigenvalues --   -0.11354  -0.03278  -0.02803  -0.01609  -0.01218
 Alpha virt. eigenvalues --   -0.00153   0.00009   0.00018   0.01466   0.01602
 Alpha virt. eigenvalues --    0.01792   0.01958   0.02534   0.03256   0.03663

  Beta  occ. eigenvalues -- -256.20194-101.51882-101.51832-101.51745 -30.10834
  Beta  occ. eigenvalues --  -25.97589 -25.97554 -25.97520 -19.20571 -19.16018
  Beta  occ. eigenvalues --  -19.15478 -10.33315 -10.32448 -10.27380 -10.24865
  Beta  occ. eigenvalues --  -10.22510 -10.21926 -10.21896 -10.20933 -10.20835
  Beta  occ. eigenvalues --  -10.20743 -10.20558 -10.20455 -10.20416 -10.20335
  Beta  occ. eigenvalues --  -10.20233 -10.20193 -10.18487  -9.43603  -9.43566
  Beta  occ. eigenvalues --   -9.43467  -7.19347  -7.19313  -7.19211  -7.19088
  Beta  occ. eigenvalues --   -7.19084  -7.19049  -7.19038  -7.18953  -7.18950
  Beta  occ. eigenvalues --   -3.46621  -2.22908  -2.22839  -2.22779  -1.12413
  Beta  occ. eigenvalues --   -1.05469  -1.03890  -0.87934  -0.87013  -0.83697
  Beta  occ. eigenvalues --   -0.78893  -0.78818  -0.78119  -0.78035  -0.77965
  Beta  occ. eigenvalues --   -0.76408  -0.75131  -0.72540  -0.71095  -0.66469
  Beta  occ. eigenvalues --   -0.64471  -0.62265  -0.61645  -0.59148  -0.57099
  Beta  occ. eigenvalues --   -0.55762  -0.54365  -0.52112  -0.51481  -0.50274
  Beta  occ. eigenvalues --   -0.49866  -0.48655  -0.48432  -0.47869  -0.47188
  Beta  occ. eigenvalues --   -0.45911  -0.44886  -0.43610  -0.43357  -0.42827
  Beta  occ. eigenvalues --   -0.42423  -0.41279  -0.40694  -0.40492  -0.40035
  Beta  occ. eigenvalues --   -0.39513  -0.38784  -0.38058  -0.37799  -0.37553
  Beta  occ. eigenvalues --   -0.37204  -0.36914  -0.36160  -0.35903  -0.35848
  Beta  occ. eigenvalues --   -0.35614  -0.35597  -0.34563  -0.33092  -0.32874
  Beta  occ. eigenvalues --   -0.32368  -0.32133  -0.31948  -0.31235  -0.30078
  Beta  occ. eigenvalues --   -0.29441  -0.28973  -0.28412  -0.27161  -0.25991
  Beta virt. eigenvalues --   -0.14248  -0.13912  -0.13095  -0.12852  -0.12429
  Beta virt. eigenvalues --   -0.10717  -0.03214  -0.02793  -0.01537  -0.01154
  Beta virt. eigenvalues --   -0.00113   0.00040   0.00049   0.01484   0.01628

 Mulliken charges and spin densities:
               1          2
     1  C    0.176712  -0.000357
     2  C    2.772007   0.004464
     3  C   -0.456445  -0.012938
     4  C    0.053672   0.005814
     5  C    0.251834  -0.002225
     6  C   -0.080872   0.002535
     7  C   -2.349680  -0.008327
     8  C    0.382062   0.011118
     9  C    0.548893   0.002662
    10  C    0.676542  -0.001413
    11  C    0.539930   0.026638
    12  C   -0.332164   0.014431
    13  C    0.272326   0.001117
    14  O   -0.392609   0.182706
    15  Fe   0.666475   4.058945
    16  Cl  -0.527456   0.232297
    17  C    0.333883  -0.000607
    18  Cl  -0.485715   0.242936
    19  Cl  -0.519335   0.232392
    20  H   -0.240537   0.001745
    21  H   -0.161505  -0.000010
    22  H   -0.157263   0.000043
    23  H   -0.156289   0.000190
    24  H   -0.238911  -0.000116
    25  H   -0.199435  -0.000212
    26  C    0.822973   0.000638
    27  H   -0.144582   0.000360
    28  H   -0.017570  -0.000042
    29  H   -0.088663   0.000034
    30  H   -0.113777   0.001116
    31  H   -0.246541  -0.000925
    32  H    0.011170   0.000059
    33  H    0.104258   0.000227
    34  H    0.007287   0.000650
    35  H    0.031610   0.000550
    36  H    0.055822   0.000874
    37  H    0.075493  -0.000081
    38  O   -0.666073   0.002669
    39  O   -0.642763   0.000956
    40  C    0.426127   0.000643
    41  C    0.035946  -0.001374
    42  H   -0.036909   0.000026
    43  H   -0.037756   0.000023
    44  H   -0.006514   0.000034
    45  H    0.025638   0.000079
    46  H    0.028704  -0.000344
 Sum of Mulliken charges =  -0.00000   5.00000

 Dipole moment (field-independent basis, Debye):
    X=             10.1195    Y=             -7.5183    Z=             -3.3735  Tot=             13.0503
 Quadrupole moment (field-independent basis, Debye-Ang):
   XX=           -199.4670   YY=           -152.1769   ZZ=           -169.8914
   XY=             -4.7159   XZ=             10.1583   YZ=              8.0472

 Normal termination of Gaussian 16 at Sun Jun 20 11:19:29 2021.
