 Gaussian 16, Revision A.03,

 -----------------------------------------------------------
 #p opt=modredundant freq=noraman ub3lyp jul-cc-pvdz pop=cm5
 -----------------------------------------------------------

 -----
 title
 -----
 Symbolic Z-matrix:
 Charge =  0 Multiplicity = 6

 SCF Done:  E(UB3LYP) =  -3531.41492825     A.U. after   25 cycles
 SCF Done:  E(UB3LYP) =  -3531.41540679     A.U. after   16 cycles
 SCF Done:  E(UB3LYP) =  -3531.41484484     A.U. after   15 cycles
 SCF Done:  E(UB3LYP) =  -3531.41553364     A.U. after   15 cycles
 SCF Done:  E(UB3LYP) =  -3531.41555769     A.U. after   13 cycles
 SCF Done:  E(UB3LYP) =  -3531.41558508     A.U. after   14 cycles
 SCF Done:  E(UB3LYP) =  -3531.41560752     A.U. after   13 cycles
 SCF Done:  E(UB3LYP) =  -3531.41563013     A.U. after   14 cycles
 SCF Done:  E(UB3LYP) =  -3531.41565645     A.U. after   15 cycles
 SCF Done:  E(UB3LYP) =  -3531.41568351     A.U. after   14 cycles
 SCF Done:  E(UB3LYP) =  -3531.41571372     A.U. after   11 cycles
 SCF Done:  E(UB3LYP) =  -3531.41571404     A.U. after   11 cycles
 SCF Done:  E(UB3LYP) =  -3531.41571423     A.U. after   11 cycles
 SCF Done:  E(UB3LYP) =  -3531.41571433     A.U. after   11 cycles
 SCF Done:  E(UB3LYP) =  -3531.41571431     A.U. after    9 cycles
 SCF Done:  E(UB3LYP) =  -3531.41571425     A.U. after   10 cycles
 SCF Done:  E(UB3LYP) =  -3531.41571420     A.U. after   10 cycles
 Optimization completed.
    -- Stationary point found.
 Normal termination of Gaussian 16 at Sun Jun 20 05:28:41 2021.

 ----------------------------------------------------------------------
 #P Geom=AllCheck Guess=TCheck SCRF=Check GenChk UB3LYP/Jul-CC-pVDZ Fre
 q
 ----------------------------------------------------------------------

 Structure from the checkpoint file:  "checkpoint.chk"
 -----
 title
 -----
 Charge =  0 Multiplicity = 6

 SCF Done:  E(UB3LYP) =  -3531.41571420     A.U. after    1 cycles

  Exact polarizability: 321.926 -12.040 298.924  10.509  -7.799 287.758
 Approx polarizability: 495.639 -21.501 451.679   0.287 -18.152 478.134

 ******    1 imaginary frequencies (negative Signs) ******

                      1                      2                      3
                      A                      A                      A
 Frequencies --   -147.6804                 6.9065                14.7591
 Red. masses --      6.5437                 8.6286                 4.6737
 Frc consts  --      0.0841                 0.0002                 0.0006
 IR Inten    --    243.0367                 0.5592                 1.1617

                      4                      5                      6
                      A                      A                      A
 Frequencies --     28.3657                42.3612                49.2687
 Red. masses --      3.7361                 7.2238                 4.9745
 Frc consts  --      0.0018                 0.0076                 0.0071
 IR Inten    --      0.8887                 1.4365                 7.9340

                      7                      8                      9
                      A                      A                      A
 Frequencies --     60.5090                71.0561                72.8865
 Red. masses --      3.7845                 4.0822                 3.3158
 Frc consts  --      0.0082                 0.0121                 0.0104
 IR Inten    --      0.4492                 1.1425                 0.7968

                     10                     11                     12
                      A                      A                      A
 Frequencies --     79.3166                87.8320                95.1397
 Red. masses --      2.3077                 5.3765                 6.3245
 Frc consts  --      0.0086                 0.0244                 0.0337
 IR Inten    --      0.7775                 0.6858                 0.1587

                     13                     14                     15
                      A                      A                      A
 Frequencies --     99.0434               113.7307               116.9336
 Red. masses --      5.7149                 3.5857                11.3323
 Frc consts  --      0.0330                 0.0273                 0.0913
 IR Inten    --      0.4692                 2.5532                 9.2940

                     16                     17                     18
                      A                      A                      A
 Frequencies --    123.6454               132.2029               149.1333
 Red. masses --      6.6014                 5.7601                 2.5443
 Frc consts  --      0.0595                 0.0593                 0.0333
 IR Inten    --     25.5565                 7.4307                10.6484

                     19                     20                     21
                      A                      A                      A
 Frequencies --    155.7107               168.3679               193.8095
 Red. masses --      3.4379                 2.2286                 2.2945
 Frc consts  --      0.0491                 0.0372                 0.0508
 IR Inten    --      3.9195                12.4685                 3.3033

                     22                     23                     24
                      A                      A                      A
 Frequencies --    200.9817               221.3652               230.3705
 Red. masses --      1.5945                 2.6988                 5.0702
 Frc consts  --      0.0379                 0.0779                 0.1585
 IR Inten    --      3.1456                 0.6544                24.2742

                     25                     26                     27
                      A                      A                      A
 Frequencies --    254.4815               260.5800               283.5069
 Red. masses --      2.2244                 2.4698                 3.2029
 Frc consts  --      0.0849                 0.0988                 0.1517
 IR Inten    --      2.1007                 3.7867                 1.0705

                     28                     29                     30
                      A                      A                      A
 Frequencies --    300.8881               326.9220               344.5286
 Red. masses --      3.3070                 6.3117                12.5435
 Frc consts  --      0.1764                 0.3975                 0.8772
 IR Inten    --      7.5758                 4.1975                43.6067

                     31                     32                     33
                      A                      A                      A
 Frequencies --    355.2178               369.4555               378.5000
 Red. masses --      5.2181                 4.3070                32.3767
 Frc consts  --      0.3879                 0.3464                 2.7328
 IR Inten    --     22.0610                11.9058                81.9723

                     34                     35                     36
                      A                      A                      A
 Frequencies --    389.7029               405.7778               416.1880
 Red. masses --     33.2798                 3.0067                 2.9329
 Frc consts  --      2.9778                 0.2917                 0.2993
 IR Inten    --     77.0337                 1.5131                 0.3667

                     37                     38                     39
                      A                      A                      A
 Frequencies --    434.4858               453.9521               476.1978
 Red. masses --      3.7183                 4.3782                 2.1560
 Frc consts  --      0.4136                 0.5316                 0.2881
 IR Inten    --     18.1013                28.0784                 2.2163

                     40                     41                     42
                      A                      A                      A
 Frequencies --    506.4068               537.6499               544.9132
 Red. masses --      2.7835                 3.0135                 3.6608
 Frc consts  --      0.4206                 0.5132                 0.6404
 IR Inten    --      5.0138                 7.8434                23.5778

                     43                     44                     45
                      A                      A                      A
 Frequencies --    612.2115               627.2882               659.7035
 Red. masses --      4.5310                 6.3368                 4.7669
 Frc consts  --      1.0006                 1.4691                 1.2223
 IR Inten    --     20.5698                 1.4777               108.4344

                     46                     47                     48
                      A                      A                      A
 Frequencies --    701.5160               710.1299               764.2173
 Red. masses --      3.7909                 1.8169                 3.4616
 Frc consts  --      1.0992                 0.5398                 1.1911
 IR Inten    --      3.4168                98.1659                 9.7346

                     49                     50                     51
                      A                      A                      A
 Frequencies --    769.5911               804.4346               808.4688
 Red. masses --      2.7118                 1.2226                 1.6401
 Frc consts  --      0.9463                 0.4661                 0.6316
 IR Inten    --     12.1161                 6.9614                 9.3249

                     52                     53                     54
                      A                      A                      A
 Frequencies --    819.6203               849.8782               858.4134
 Red. masses --      3.7138                 1.2619                 2.0186
 Frc consts  --      1.4699                 0.5370                 0.8764
 IR Inten    --     35.2866                 1.6480                 2.2708

                     55                     56                     57
                      A                      A                      A
 Frequencies --    870.1617               896.0999               925.0572
 Red. masses --      2.5754                 1.8723                 2.6660
 Frc consts  --      1.1489                 0.8858                 1.3441
 IR Inten    --     16.9763                 2.5770                11.0989

                     58                     59                     60
                      A                      A                      A
 Frequencies --    934.0638               957.2462               983.5624
 Red. masses --      1.4861                 2.3128                 1.4288
 Frc consts  --      0.7639                 1.2487                 0.8143
 IR Inten    --      5.3843                10.8721                 3.4016

                     61                     62                     63
                      A                      A                      A
 Frequencies --    986.2525               993.3865               998.4053
 Red. masses --      1.3770                 2.3750                 2.4154
 Frc consts  --      0.7892                 1.3809                 1.4186
 IR Inten    --      4.0397                77.5300                 3.0553

                     64                     65                     66
                      A                      A                      A
 Frequencies --   1000.8255              1009.0859              1015.2173
 Red. masses --      1.5823                 3.1640                 1.5430
 Frc consts  --      0.9338                 1.8982                 0.9370
 IR Inten    --      1.8461                 3.0222                29.1040

                     67                     68                     69
                      A                      A                      A
 Frequencies --   1039.1001              1047.4972              1054.8898
 Red. masses --      3.0218                 2.2741                 2.0151
 Frc consts  --      1.9223                 1.4702                 1.3212
 IR Inten    --     29.3504                18.1622                 7.6390

                     70                     71                     72
                      A                      A                      A
 Frequencies --   1069.1555              1103.9209              1107.1294
 Red. masses --      1.8452                 1.6082                 1.6604
 Frc consts  --      1.2427                 1.1547                 1.1991
 IR Inten    --     11.8400                 9.6294                20.6102

                     73                     74                     75
                      A                      A                      A
 Frequencies --   1129.3100              1134.4790              1161.1767
 Red. masses --      2.6867                 2.2347                 1.7748
 Frc consts  --      2.0188                 1.6946                 1.4099
 IR Inten    --     16.6499                13.2671                 9.3648

                     76                     77                     78
                      A                      A                      A
 Frequencies --   1168.3529              1173.8566              1181.8448
 Red. masses --      1.5518                 1.0878                 2.3865
 Frc consts  --      1.2481                 0.8831                 1.9640
 IR Inten    --      3.8271                 0.0814                58.9240

                     79                     80                     81
                      A                      A                      A
 Frequencies --   1196.2999              1203.4850              1228.7588
 Red. masses --      1.7229                 1.3027                 2.0226
 Frc consts  --      1.4527                 1.1117                 1.7993
 IR Inten    --     91.1294                23.8257               168.4051

                     82                     83                     84
                      A                      A                      A
 Frequencies --   1255.8157              1263.5444              1282.5987
 Red. masses --      2.4682                 1.7313                 1.1066
 Frc consts  --      2.2934                 1.6285                 1.0725
 IR Inten    --    311.7246                40.6171                 1.8896

                     85                     86                     87
                      A                      A                      A
 Frequencies --   1313.5623              1319.9843              1327.2847
 Red. masses --      1.4066                 1.3075                 1.4673
 Frc consts  --      1.4299                 1.3423                 1.5230
 IR Inten    --     17.3318                64.8275                61.6116

                     88                     89                     90
                      A                      A                      A
 Frequencies --   1331.2259              1343.4415              1357.0940
 Red. masses --      1.6167                 1.4987                 2.6402
 Frc consts  --      1.6880                 1.5936                 2.8649
 IR Inten    --      4.4201                26.3974                20.1225

                     91                     92                     93
                      A                      A                      A
 Frequencies --   1359.6743              1367.4296              1387.8642
 Red. masses --      1.4127                 1.3572                 1.6081
 Frc consts  --      1.5388                 1.4953                 1.8250
 IR Inten    --     65.7828                14.1716                65.4278

                     94                     95                     96
                      A                      A                      A
 Frequencies --   1394.4434              1406.6657              1417.9385
 Red. masses --      1.7059                 1.0719                 1.4641
 Frc consts  --      1.9543                 1.2496                 1.7344
 IR Inten    --     59.9953                 2.7443                 5.3215

                     97                     98                     99
                      A                      A                      A
 Frequencies --   1452.2665              1460.7323              1470.8928
 Red. masses --      1.0898                 1.2663                 1.9516
 Frc consts  --      1.3542                 1.5919                 2.4877
 IR Inten    --      6.5973                32.6557                24.8024

                    100                    101                    102
                      A                      A                      A
 Frequencies --   1473.8427              1480.7560              1484.8538
 Red. masses --      1.0387                 1.0890                 1.0514
 Frc consts  --      1.3294                 1.4068                 1.3658
 IR Inten    --      6.0942                 7.6845                 5.7824

                    103                    104                    105
                      A                      A                      A
 Frequencies --   1494.7746              1503.6400              1506.8755
 Red. masses --      1.1511                 1.2027                 1.0882
 Frc consts  --      1.5154                 1.6021                 1.4558
 IR Inten    --      9.2635                 3.1814                 8.6944

                    106                    107                    108
                      A                      A                      A
 Frequencies --   1515.8514              1543.1600              1621.8221
 Red. masses --      2.1335                 2.8391                 5.7291
 Frc consts  --      2.8884                 3.9834                 8.8786
 IR Inten    --      4.5369                95.6960                 0.3679

                    109                    110                    111
                      A                      A                      A
 Frequencies --   1640.0071              1762.0413              2891.3656
 Red. masses --      5.6779                11.7717                 1.0617
 Frc consts  --      8.9976                21.5338                 5.2294
 IR Inten    --      2.4449               231.1046               239.0194

                    112                    113                    114
                      A                      A                      A
 Frequencies --   3016.4156              3041.7087              3051.3766
 Red. masses --      1.0413                 1.0358                 1.0610
 Frc consts  --      5.5820                 5.6464                 5.8205
 IR Inten    --      1.6621                14.5036                17.7025

                    115                    116                    117
                      A                      A                      A
 Frequencies --   3056.7749              3057.7030              3069.0414
 Red. masses --      1.0585                 1.0643                 1.0945
 Frc consts  --      5.8272                 5.8627                 6.0739
 IR Inten    --     14.7792                20.9795                 0.3368

                    118                    119                    120
                      A                      A                      A
 Frequencies --   3080.2805              3091.3481              3102.1475
 Red. masses --      1.0836                 1.0673                 1.1004
 Frc consts  --      6.0576                 6.0092                 6.2389
 IR Inten    --     14.7390                 5.2236                16.1331

                    121                    122                    123
                      A                      A                      A
 Frequencies --   3102.9616              3115.1118              3118.2342
 Red. masses --      1.1075                 1.1027                 1.1009
 Frc consts  --      6.2828                 6.3047                 6.3069
 IR Inten    --      7.4998                 8.1566                22.3678

                    124                    125                    126
                      A                      A                      A
 Frequencies --   3132.0798              3134.6332              3158.7608
 Red. masses --      1.0872                 1.1048                 1.1056
 Frc consts  --      6.2839                 6.3961                 6.4997
 IR Inten    --      6.4558                21.9479                 2.7923

                    127                    128                    129
                      A                      A                      A
 Frequencies --   3163.7951              3169.8310              3179.7166
 Red. masses --      1.1002                 1.0852                 1.0891
 Frc consts  --      6.4882                 6.4245                 6.4879
 IR Inten    --      4.2411                 0.0956                 6.0727

                    130                    131                    132
                      A                      A                      A
 Frequencies --   3189.0000              3196.8291              3223.2715
 Red. masses --      1.0934                 1.0980                 1.0924
 Frc consts  --      6.5513                 6.6111                 6.6867
 IR Inten    --     12.2175                 9.2720                 3.8605

 - Thermochemistry -
 -------------------
 Temperature   298.150 Kelvin.  Pressure   1.00000 Atm.
 Atom     1 has atomic number  6 and mass  12.00000

 Molecular mass:   434.99839 amu.
 Principal axes and moments of inertia in atomic units:
                           1         2         3
     Eigenvalues --  8924.99470********************
           X            0.99666  -0.07884   0.02108
           Y            0.07909   0.99681  -0.01085
           Z           -0.02016   0.01248   0.99972
 This molecule is an asymmetric top.
 Rotational symmetry number  1.
 Warning -- assumption of classical behavior for rotation
           may cause significant error
 Rotational temperatures (Kelvin)      0.00970     0.00777     0.00664
 Rotational constants (GHZ):           0.20221     0.16192     0.13840
    1 imaginary frequencies ignored.
 Zero-point vibrational energy     939006.4 (Joules/Mol)
                                  224.42792 (Kcal/Mol)
 Warning -- explicit consideration of  42 degrees of freedom as
           vibrations may cause significant error
 Vibrational temperatures:      9.94    21.24    40.81    60.95    70.89
          (Kelvin)             87.06   102.23   104.87   114.12   126.37
                              136.88   142.50   163.63   168.24   177.90
                              190.21   214.57   224.03   242.24   278.85
                              289.17   318.50   331.45   366.14   374.92
                              407.90   432.91   470.37   495.70   511.08
                              531.56   544.58   560.70   583.82   598.80
                              625.13   653.14   685.14   728.61   773.56
                              784.01   880.84   902.53   949.17  1009.33
                             1021.72  1099.54  1107.27  1157.40  1163.21
                             1179.25  1222.79  1235.07  1251.97  1289.29
                             1330.95  1343.91  1377.26  1415.13  1419.00
                             1429.26  1436.48  1439.96  1451.85  1460.67
                             1495.03  1507.11  1517.75  1538.28  1588.30
                             1592.91  1624.83  1632.26  1670.67  1681.00
                             1688.92  1700.41  1721.21  1731.55  1767.91
                             1806.84  1817.96  1845.37  1889.92  1899.16
                             1909.67  1915.34  1932.91  1952.56  1956.27
                             1967.43  1996.83  2006.29  2023.88  2040.10
                             2089.49  2101.67  2116.29  2120.53  2130.48
                             2136.37  2150.65  2163.40  2168.06  2180.97
                             2220.26  2333.44  2359.60  2535.18  4160.03
                             4339.95  4376.34  4390.25  4398.02  4399.35
                             4415.67  4431.84  4447.76  4463.30  4464.47
                             4481.95  4486.44  4506.36  4510.04  4544.75
                             4552.00  4560.68  4574.90  4588.26  4599.52
                             4637.57

 Zero-point correction=                           0.357649 (Hartree/Particle)
 Thermal correction to Energy=                    0.385277
 Thermal correction to Enthalpy=                  0.386221
 Thermal correction to Gibbs Free Energy=         0.293381
 Sum of electronic and zero-point Energies=          -3531.058066
 Sum of electronic and thermal Energies=             -3531.030438
 Sum of electronic and thermal Enthalpies=           -3531.029493
 Sum of electronic and thermal Free Energies=        -3531.122333

                     E (Thermal)             CV                S
                      KCal/Mol        Cal/Mol-Kelvin    Cal/Mol-Kelvin
 Total                  241.765             97.796            195.398
 Electronic               0.000              0.000              3.561
 Translational            0.889              2.981             44.100
 Rotational               0.889              2.981             35.516
 Vibrational            239.987             91.835            112.222
 Vibration     1          0.593              1.987              8.746
 Vibration     2          0.593              1.986              7.238
 Vibration     3          0.593              1.984              5.941
 Vibration     4          0.595              1.980              5.145
 Vibration     5          0.595              1.978              4.847
 Vibration     6          0.597              1.973              4.441
 Vibration     7          0.598              1.968              4.124
 Vibration     8          0.599              1.967              4.074
 Vibration     9          0.600              1.963              3.908
 Vibration    10          0.601              1.958              3.708
 Vibration    11          0.603              1.953              3.552
 Vibration    12          0.604              1.950              3.473
 Vibration    13          0.607              1.938              3.204
 Vibration    14          0.608              1.935              3.150
 Vibration    15          0.610              1.929              3.043
 Vibration    16          0.612              1.921              2.914
 Vibration    17          0.618              1.904              2.683
 Vibration    18          0.620              1.896              2.601
 Vibration    19          0.625              1.881              2.454
 Vibration    20          0.635              1.848              2.191
 Vibration    21          0.638              1.838              2.124
 Vibration    22          0.648              1.809              1.948
 Vibration    23          0.652              1.795              1.876
 Vibration    24          0.665              1.755              1.699
 Vibration    25          0.669              1.745              1.658
 Vibration    26          0.682              1.704              1.512
 Vibration    27          0.693              1.672              1.412
 Vibration    28          0.711              1.622              1.275
 Vibration    29          0.723              1.586              1.191
 Vibration    30          0.731              1.565              1.143
 Vibration    31          0.742              1.535              1.082
 Vibration    32          0.749              1.516              1.045
 Vibration    33          0.758              1.492              1.001
 Vibration    34          0.771              1.458              0.942
 Vibration    35          0.779              1.435              0.905
 Vibration    36          0.795              1.395              0.844
 Vibration    37          0.812              1.352              0.784
 Vibration    38          0.833              1.303              0.720
 Vibration    39          0.862              1.236              0.642
 Vibration    40          0.893              1.167              0.570
 Vibration    41          0.900              1.151              0.555
 Vibration    42          0.971              1.006              0.429

                           ! Non-Optimized Parameters !
 Normal termination of Gaussian 16 at Sun Jun 20 09:34:19 2021.

 ----------------------------------------------------------------------
 #p ub3lyp jul-cc-pvdz pop=cm5 scrf=(pcm,solvent=dichloroethane) guess=
 read geom=allcheck
 ----------------------------------------------------------------------

 Structure from the checkpoint file:  "checkpoint.chk"
 -----
 title
 -----
 Charge =  0 Multiplicity = 6

 SCF Done:  E(UB3LYP) =  -3531.44062271     A.U. after   18 cycles
 Normal termination of Gaussian 16 at Sun Jun 20 10:00:40 2021.
 Gaussian 16:  ES64L-G16RevA.03 25-Dec-2016

 ----------------------------------------------------------------------
 #p ub3lyp jul-cc-pvdz pop=cm5 scrf=(pcm,solvent=water) guess=read geom
 =allcheck
 ----------------------------------------------------------------------

 Structure from the checkpoint file:  "checkpoint.chk"
 -----
 title
 -----
 Charge =  0 Multiplicity = 6

                         Standard orientation:
 ---------------------------------------------------------------------
 Center     Atomic      Atomic             Coordinates (Angstroms)
 Number     Number       Type             X           Y           Z
 ---------------------------------------------------------------------
      1          6           0       -2.908499   -1.173787   -0.309432
      2          6           0       -1.578675   -0.856524   -0.641515
      3          6           0       -1.275009   -0.535075   -1.972598
      4          6           0       -2.274350   -0.540479   -2.950855
      5          6           0       -3.590095   -0.866499   -2.614108
      6          6           0       -3.904822   -1.178578   -1.285872
      7          6           0       -0.474178   -0.830474    0.408234
      8          6           0       -0.779353   -0.017003    1.744186
      9          6           0       -0.966036   -0.977602    2.921263
     10          6           0       -0.063361   -2.165300    2.584987
     11          6           0       -0.411747   -2.475038    1.137284
     12          6           0        0.456841   -3.142740    0.245514
     13          6           0        1.908310   -3.197000    0.444179
     14          8           0        0.736183   -0.580354   -0.095288
     15         26           0        2.088973    0.744620   -0.333213
     16         17           0        2.520101    1.692326    1.630195
     17          6           0       -0.073341   -3.718595   -1.016427
     18         17           0        1.448703    2.193102   -1.877200
     19         17           0        3.823198   -0.480714   -1.033531
     20          1           0       -0.258413   -0.253036   -2.236568
     21          1           0       -2.019040   -0.279080   -3.978694
     22          1           0       -4.369637   -0.869841   -3.377495
     23          1           0       -4.931398   -1.419927   -1.007021
     24          1           0       -3.184730   -1.399863    0.720301
     25          1           0        0.140906    0.559940    1.895778
     26          6           0       -1.911141    0.993455    1.606542
     27          1           0       -0.702694   -0.499179    3.872766
     28          1           0       -2.017437   -1.288911    2.994754
     29          1           0        0.991608   -1.880514    2.686955
     30          1           0       -0.245514   -3.035351    3.231566
     31          1           0       -1.451983   -2.789222    1.020375
     32          1           0       -1.141689   -3.539891   -1.164130
     33          1           0        0.498692   -3.320065   -1.870349
     34          1           0        0.116345   -4.805352   -1.008056
     35          1           0        2.384006   -3.987023   -0.148688
     36          1           0        2.299352   -2.227988    0.054836
     37          1           0        2.209102   -3.254578    1.495319
     38          8           0       -1.542244    2.010510    0.817668
     39          8           0       -2.990374    0.904569    2.157104
     40          6           0       -2.525969    3.058980    0.589733
     41          6           0       -1.859092    4.137387   -0.239008
     42          1           0       -3.388389    2.609546    0.078178
     43          1           0       -2.864721    3.428600    1.566700
     44          1           0       -2.585628    4.936872   -0.444825
     45          1           0       -1.004204    4.571643    0.296337
     46          1           0       -1.497285    3.734389   -1.193898
 ---------------------------------------------------------------------

 SCF Done:  E(UB3LYP) =  -3531.44513049     A.U. after   15 cycles

 The electronic state is 6-A.
 Alpha  occ. eigenvalues -- -256.20214-101.52121-101.51987-101.51947 -30.19626
 Alpha  occ. eigenvalues --  -26.04919 -26.04876 -26.04772 -19.20346 -19.16161
 Alpha  occ. eigenvalues --  -19.15326 -10.32964 -10.31144 -10.29461 -10.24841
 Alpha  occ. eigenvalues --  -10.22789 -10.21904 -10.21480 -10.21413 -10.20850
 Alpha  occ. eigenvalues --  -10.20561 -10.20439 -10.20411 -10.20360 -10.20235
 Alpha  occ. eigenvalues --  -10.20177 -10.19886 -10.18612  -9.43844  -9.43720
 Alpha  occ. eigenvalues --   -9.43668  -7.19706  -7.19583  -7.19535  -7.19395
 Alpha  occ. eigenvalues --   -7.19383  -7.19271  -7.19255  -7.19213  -7.19201
 Alpha  occ. eigenvalues --   -3.67322  -2.44827  -2.44667  -2.44506  -1.12210
 Alpha  occ. eigenvalues --   -1.05115  -1.03680  -0.88608  -0.87114  -0.84115
 Alpha  occ. eigenvalues --   -0.80053  -0.79349  -0.79237  -0.78964  -0.77811
 Alpha  occ. eigenvalues --   -0.76066  -0.75242  -0.73522  -0.71378  -0.66365
 Alpha  occ. eigenvalues --   -0.64275  -0.62110  -0.61438  -0.59455  -0.57128
 Alpha  occ. eigenvalues --   -0.56646  -0.54516  -0.52733  -0.51402  -0.50888
 Alpha  occ. eigenvalues --   -0.50112  -0.49202  -0.48856  -0.48052  -0.47815
 Alpha  occ. eigenvalues --   -0.47581  -0.47276  -0.46797  -0.46629  -0.45821
 Alpha  occ. eigenvalues --   -0.44934  -0.44530  -0.44265  -0.43229  -0.42765
 Alpha  occ. eigenvalues --   -0.42331  -0.41940  -0.41212  -0.40230  -0.40049
 Alpha  occ. eigenvalues --   -0.39902  -0.38801  -0.37717  -0.37362  -0.37259
 Alpha  occ. eigenvalues --   -0.37048  -0.36781  -0.36224  -0.35805  -0.35609
 Alpha  occ. eigenvalues --   -0.35008  -0.34284  -0.33898  -0.31942  -0.31846
 Alpha  occ. eigenvalues --   -0.30932  -0.30879  -0.30672  -0.30139  -0.29788
 Alpha  occ. eigenvalues --   -0.29650  -0.28774  -0.28411  -0.26876  -0.26208
 Alpha virt. eigenvalues --   -0.12610  -0.03428  -0.02819  -0.01511  -0.01141
 Alpha virt. eigenvalues --   -0.00172  -0.00058   0.00026   0.01454   0.01623
 Alpha virt. eigenvalues --    0.01847   0.02009   0.02303   0.03607   0.03801

  Beta  occ. eigenvalues -- -256.20029-101.51947-101.51812-101.51783 -30.10685
  Beta  occ. eigenvalues --  -25.97448 -25.97394 -25.97367 -19.20346 -19.15499
  Beta  occ. eigenvalues --  -19.15323 -10.32965 -10.31140 -10.29431 -10.24841
  Beta  occ. eigenvalues --  -10.22760 -10.21888 -10.21458 -10.21414 -10.20851
  Beta  occ. eigenvalues --  -10.20561 -10.20440 -10.20412 -10.20359 -10.20235
  Beta  occ. eigenvalues --  -10.20179 -10.19885 -10.18611  -9.43673  -9.43548
  Beta  occ. eigenvalues --   -9.43508  -7.19415  -7.19294  -7.19248  -7.19163
  Beta  occ. eigenvalues --   -7.19152  -7.19030  -7.19025  -7.19004  -7.18989
  Beta  occ. eigenvalues --   -3.46476  -2.22776  -2.22703  -2.22617  -1.12208
  Beta  occ. eigenvalues --   -1.03836  -1.03675  -0.88452  -0.87092  -0.84058
  Beta  occ. eigenvalues --   -0.78980  -0.78934  -0.78141  -0.78074  -0.77711
  Beta  occ. eigenvalues --   -0.76059  -0.75212  -0.73511  -0.71271  -0.66219
  Beta  occ. eigenvalues --   -0.64187  -0.62065  -0.61386  -0.59190  -0.56982
  Beta  occ. eigenvalues --   -0.56169  -0.54364  -0.51870  -0.51324  -0.50533
  Beta  occ. eigenvalues --   -0.50082  -0.48647  -0.48360  -0.47821  -0.46628
  Beta  occ. eigenvalues --   -0.45685  -0.44787  -0.44349  -0.43273  -0.42753
  Beta  occ. eigenvalues --   -0.42276  -0.42056  -0.41186  -0.40200  -0.40042
  Beta  occ. eigenvalues --   -0.39848  -0.38732  -0.37895  -0.37469  -0.37180
  Beta  occ. eigenvalues --   -0.37019  -0.36927  -0.36209  -0.35828  -0.35765
  Beta  occ. eigenvalues --   -0.35647  -0.35553  -0.34925  -0.33029  -0.32947
  Beta  occ. eigenvalues --   -0.32373  -0.31999  -0.31830  -0.31553  -0.30043
  Beta  occ. eigenvalues --   -0.29553  -0.28708  -0.28575  -0.26878  -0.26197
  Beta virt. eigenvalues --   -0.14111  -0.13863  -0.13106  -0.12805  -0.12346
  Beta virt. eigenvalues --   -0.11402  -0.03385  -0.02804  -0.01403  -0.01109
  Beta virt. eigenvalues --   -0.00130  -0.00032   0.00057   0.01468   0.01645

 Mulliken charges and spin densities:
               1          2
     1  C   -0.230314  -0.001283
     2  C    3.007903   0.010194
     3  C   -0.790450  -0.011869
     4  C    0.056928   0.005186
     5  C    0.206673  -0.002374
     6  C    0.010003   0.002200
     7  C   -2.609736   0.009896
     8  C    0.942238   0.000644
     9  C    0.669238   0.000777
    10  C    0.700866   0.002430
    11  C    0.858117   0.012886
    12  C   -0.420897   0.023600
    13  C    0.087639  -0.007825
    14  O   -0.512357   0.200259
    15  Fe   0.595139   4.058123
    16  Cl  -0.530041   0.229824
    17  C    0.373558  -0.000819
    18  Cl  -0.493934   0.236902
    19  Cl  -0.519892   0.221656
    20  H   -0.203925   0.003427
    21  H   -0.156556   0.000003
    22  H   -0.161877   0.000028
    23  H   -0.160118   0.000171
    24  H   -0.188112  -0.000034
    25  H   -0.244428   0.000500
    26  C    0.831835  -0.004442
    27  H   -0.168515   0.000383
    28  H   -0.059023  -0.000140
    29  H   -0.071636  -0.000216
    30  H   -0.145778   0.000528
    31  H   -0.189258  -0.000622
    32  H    0.045115   0.000056
    33  H    0.102922   0.001034
    34  H    0.032705   0.000981
    35  H    0.013097   0.000030
    36  H    0.185316   0.005068
    37  H    0.047289   0.000273
    38  O   -0.700175   0.001197
    39  O   -0.656768   0.001161
    40  C    0.443608   0.000984
    41  C    0.041827  -0.000715
    42  H   -0.032062   0.000011
    43  H   -0.039287   0.000027
    44  H   -0.008337   0.000003
    45  H    0.020112   0.000040
    46  H    0.021349  -0.000146
 Sum of Mulliken charges =  -0.00000   5.00000

 Dipole moment (field-independent basis, Debye):
    X=             -8.0633    Y=            -12.2902    Z=              1.1724  Tot=             14.7458
 Quadrupole moment (field-independent basis, Debye-Ang):
   XX=           -199.6712   YY=           -145.5845   ZZ=           -176.3858
   XY=            -12.7883   XZ=             14.1192   YZ=             -2.4352

 Normal termination of Gaussian 16 at Sun Jun 20 10:22:14 2021.
