 Gaussian 16, Revision A.03,

 -----------------------------------------------------------
 #p opt=modredundant freq=noraman ub3lyp jul-cc-pvdz pop=cm5
 -----------------------------------------------------------

 -----
 title
 -----
 Symbolic Z-matrix:
 Charge =  0 Multiplicity = 6

 SCF Done:  E(UB3LYP) =  -3531.39660750     A.U. after   26 cycles
 SCF Done:  E(UB3LYP) =  -3531.39634461     A.U. after   18 cycles
 SCF Done:  E(UB3LYP) =  -3531.38869626     A.U. after   21 cycles
 SCF Done:  E(UB3LYP) =  -3531.38830897     A.U. after   21 cycles
 SCF Done:  E(UB3LYP) =  -3531.39668177     A.U. after   16 cycles
 SCF Done:  E(UB3LYP) =  -3531.39644808     A.U. after   19 cycles
 SCF Done:  E(UB3LYP) =  -3531.39703810     A.U. after   18 cycles
 SCF Done:  E(UB3LYP) =  -3531.39709504     A.U. after   18 cycles
 SCF Done:  E(UB3LYP) =  -3531.39712804     A.U. after   18 cycles
 SCF Done:  E(UB3LYP) =  -3531.39721082     A.U. after   15 cycles
 SCF Done:  E(UB3LYP) =  -3531.39722563     A.U. after   15 cycles
 SCF Done:  E(UB3LYP) =  -3531.39722635     A.U. after   11 cycles
 SCF Done:  E(UB3LYP) =  -3531.39722645     A.U. after   12 cycles
 SCF Done:  E(UB3LYP) =  -3531.39722641     A.U. after   13 cycles
 SCF Done:  E(UB3LYP) =  -3531.39722629     A.U. after   11 cycles
 SCF Done:  E(UB3LYP) =  -3531.39722621     A.U. after   12 cycles
 SCF Done:  E(UB3LYP) =  -3531.39722652     A.U. after   10 cycles
 Optimization completed.
    -- Stationary point found.
 Normal termination of Gaussian 16 at Sun Jun 20 03:52:42 2021.

 ----------------------------------------------------------------------
 #P Geom=AllCheck Guess=TCheck SCRF=Check GenChk UB3LYP/Jul-CC-pVDZ Fre
 q
 ----------------------------------------------------------------------

 Structure from the checkpoint file:  "checkpoint.chk"
 -----
 title
 -----
 Charge =  0 Multiplicity = 6

 SCF Done:  E(UB3LYP) =  -3531.39722652     A.U. after    2 cycles

  Exact polarizability: 322.742  12.909 296.400  13.345  14.965 303.137
 Approx polarizability: 502.669  39.660 455.204  15.038  28.457 507.541

 ******    2 imaginary frequencies (negative Signs) ******

                      1                      2                      3
                      A                      A                      A
 Frequencies --   -475.1404               -22.2448                28.1972
 Red. masses --      8.6735                 5.2162                 6.4473
 Frc consts  --      1.1537                 0.0015                 0.0030
 IR Inten    --    238.9207                 1.2799                 0.2477

                      4                      5                      6
                      A                      A                      A
 Frequencies --     30.0588                43.7225                50.7186
 Red. masses --      8.4862                 4.8257                 4.2272
 Frc consts  --      0.0045                 0.0054                 0.0064
 IR Inten    --      0.6140                 0.7712                 1.8860

                      7                      8                      9
                      A                      A                      A
 Frequencies --     54.3740                60.2446                67.8748
 Red. masses --      3.6629                 6.8361                 3.7408
 Frc consts  --      0.0064                 0.0146                 0.0102
 IR Inten    --      0.8414                 0.9562                 0.9551

                     10                     11                     12
                      A                      A                      A
 Frequencies --     83.2794                93.3206               100.2153
 Red. masses --      9.1055                 7.1305                 4.9881
 Frc consts  --      0.0372                 0.0366                 0.0295
 IR Inten    --      0.7008                 0.4025                 3.8361

                     13                     14                     15
                      A                      A                      A
 Frequencies --    105.2998               109.7955               120.0953
 Red. masses --     10.0154                 4.6834                19.7492
 Frc consts  --      0.0654                 0.0333                 0.1678
 IR Inten    --      2.6248                 3.4765                 0.5431

                     16                     17                     18
                      A                      A                      A
 Frequencies --    128.5710               147.1115               172.3840
 Red. masses --      7.6934                 4.4614                 2.8250
 Frc consts  --      0.0749                 0.0569                 0.0495
 IR Inten    --      2.1078                 2.2002                 3.0372

                     19                     20                     21
                      A                      A                      A
 Frequencies --    187.9136               193.1139               198.8391
 Red. masses --      1.3447                 2.8901                 2.8758
 Frc consts  --      0.0280                 0.0635                 0.0670
 IR Inten    --      2.7391                 1.2762                 3.4244

                     22                     23                     24
                      A                      A                      A
 Frequencies --    213.9710               222.6299               229.6440
 Red. masses --      2.1170                 2.0943                 1.9512
 Frc consts  --      0.0571                 0.0612                 0.0606
 IR Inten    --      0.5679                 1.1633                 5.3259

                     25                     26                     27
                      A                      A                      A
 Frequencies --    247.8015               262.0798               294.1142
 Red. masses --      2.3821                 2.1020                 4.0166
 Frc consts  --      0.0862                 0.0851                 0.2047
 IR Inten    --      4.2540                 3.2163                 5.4606

                     28                     29                     30
                      A                      A                      A
 Frequencies --    317.8200               329.5675               338.9649
 Red. masses --      2.2338                 5.1009                14.9408
 Frc consts  --      0.1329                 0.3264                 1.0114
 IR Inten    --      1.1955                 5.3654                63.2331

                     31                     32                     33
                      A                      A                      A
 Frequencies --    353.3073               382.2049               384.5785
 Red. masses --      7.4637                12.3098                 5.3188
 Frc consts  --      0.5489                 1.0595                 0.4635
 IR Inten    --      4.2807                59.4244                27.0688

                     34                     35                     36
                      A                      A                      A
 Frequencies --    391.7575               402.8737               411.0621
 Red. masses --     29.2075                 2.8140                 2.8734
 Frc consts  --      2.6411                 0.2691                 0.2861
 IR Inten    --     74.1851                13.7224                 2.6896

                     37                     38                     39
                      A                      A                      A
 Frequencies --    431.6900               447.3900               473.9785
 Red. masses --      3.3276                 4.1345                 3.4625
 Frc consts  --      0.3654                 0.4876                 0.4583
 IR Inten    --      3.3100                43.8872                13.8328

                     40                     41                     42
                      A                      A                      A
 Frequencies --    506.6281               514.0537               565.3323
 Red. masses --      3.5837                 2.6593                 3.5946
 Frc consts  --      0.5419                 0.4140                 0.6769
 IR Inten    --     16.9496                 2.6268                56.5861

                     43                     44                     45
                      A                      A                      A
 Frequencies --    603.8126               626.2148               638.7309
 Red. masses --      3.3361                 6.0679                 4.5395
 Frc consts  --      0.7166                 1.4020                 1.0912
 IR Inten    --     16.4010                 8.6379               112.7142

                     46                     47                     48
                      A                      A                      A
 Frequencies --    692.6543               702.3264               757.0988
 Red. masses --      1.6507                 5.4015                 4.6243
 Frc consts  --      0.4666                 1.5698                 1.5617
 IR Inten    --     46.1801                33.7216                 7.8395

                     49                     50                     51
                      A                      A                      A
 Frequencies --    765.3917               791.4731               801.4159
 Red. masses --      2.3750                 2.5443                 1.4254
 Frc consts  --      0.8198                 0.9391                 0.5394
 IR Inten    --      9.0273                 6.3674                10.7661

                     52                     53                     54
                      A                      A                      A
 Frequencies --    819.1051               839.7869               859.5149
 Red. masses --      2.6607                 1.2594                 1.5762
 Frc consts  --      1.0518                 0.5233                 0.6861
 IR Inten    --     26.9023                 1.3933                 4.3166

                     55                     56                     57
                      A                      A                      A
 Frequencies --    862.8973               881.7456               908.2819
 Red. masses --      2.1458                 1.8577                 1.5416
 Frc consts  --      0.9414                 0.8509                 0.7493
 IR Inten    --     42.6137                 4.9505                11.6648

                     58                     59                     60
                      A                      A                      A
 Frequencies --    928.1107               939.5082               958.5078
 Red. masses --      1.6080                 1.4296                 3.1948
 Frc consts  --      0.8161                 0.7435                 1.7294
 IR Inten    --     20.7622                 0.7591                25.2286

                     61                     62                     63
                      A                      A                      A
 Frequencies --    985.5082               990.7555               995.1802
 Red. masses --      1.4588                 2.5833                 2.0463
 Frc consts  --      0.8348                 1.4940                 1.1940
 IR Inten    --      3.1929                27.1973                 3.3727

                     64                     65                     66
                      A                      A                      A
 Frequencies --   1001.9695              1007.2350              1013.2292
 Red. masses --      2.2963                 1.9315                 1.3868
 Frc consts  --      1.3583                 1.1545                 0.8389
 IR Inten    --      2.2723                 2.1673                 3.8855

                     67                     68                     69
                      A                      A                      A
 Frequencies --   1036.3333              1045.7215              1054.9459
 Red. masses --      2.7042                 2.5546                 1.7584
 Frc consts  --      1.7112                 1.6459                 1.1530
 IR Inten    --     48.3551                 6.1299                70.1840

                     70                     71                     72
                      A                      A                      A
 Frequencies --   1065.9872              1090.5160              1110.2493
 Red. masses --      2.2425                 1.9214                 1.5938
 Frc consts  --      1.5013                 1.3463                 1.1575
 IR Inten    --      1.0248                 8.3259                15.3268

                     73                     74                     75
                      A                      A                      A
 Frequencies --   1132.3437              1135.5320              1162.0953
 Red. masses --      2.1267                 2.2840                 1.7182
 Frc consts  --      1.6066                 1.7351                 1.3671
 IR Inten    --     10.5753                11.3337                55.4285

                     76                     77                     78
                      A                      A                      A
 Frequencies --   1169.6614              1176.3903              1185.3606
 Red. masses --      1.5932                 1.0878                 2.3791
 Frc consts  --      1.2842                 0.8870                 1.9695
 IR Inten    --     12.7434                 1.1664                49.1605

                     79                     80                     81
                      A                      A                      A
 Frequencies --   1202.3542              1212.3384              1232.6192
 Red. masses --      1.2996                 1.6389                 2.6775
 Frc consts  --      1.1069                 1.4193                 2.3968
 IR Inten    --     23.4396                24.9249               259.7902

                     82                     83                     84
                      A                      A                      A
 Frequencies --   1254.9203              1264.0592              1286.8925
 Red. masses --      1.9077                 2.4379                 1.1332
 Frc consts  --      1.7701                 2.2951                 1.1057
 IR Inten    --     37.4269               260.5631                10.3708

                     85                     86                     87
                      A                      A                      A
 Frequencies --   1318.3451              1325.2401              1333.8971
 Red. masses --      1.3807                 1.4855                 1.6726
 Frc consts  --      1.4138                 1.5371                 1.7535
 IR Inten    --     20.7744                45.9623                40.2701

                     88                     89                     90
                      A                      A                      A
 Frequencies --   1346.8071              1358.2953              1362.2258
 Red. masses --      1.5318                 1.4739                 3.2314
 Frc consts  --      1.6370                 1.6022                 3.5330
 IR Inten    --     25.1627                36.7839                10.8362

                     91                     92                     93
                      A                      A                      A
 Frequencies --   1376.1660              1384.0760              1393.6182
 Red. masses --      1.4140                 1.4184                 1.3327
 Frc consts  --      1.5778                 1.6010                 1.5250
 IR Inten    --     69.5177                39.8621                43.2971

                     94                     95                     96
                      A                      A                      A
 Frequencies --   1404.0270              1415.7805              1452.9210
 Red. masses --      1.3201                 1.4205                 1.1068
 Frc consts  --      1.5332                 1.6775                 1.3766
 IR Inten    --     33.1742                 4.1296                18.1173

                     97                     98                     99
                      A                      A                      A
 Frequencies --   1455.9936              1470.2613              1473.2029
 Red. masses --      1.1011                 2.2615                 1.0387
 Frc consts  --      1.3753                 2.8803                 1.3282
 IR Inten    --      9.0798                21.0036                 4.9188

                    100                    101                    102
                      A                      A                      A
 Frequencies --   1474.8123              1486.6321              1488.0399
 Red. masses --      1.1219                 1.0959                 1.0539
 Frc consts  --      1.4377                 1.4270                 1.3749
 IR Inten    --      3.8272                17.2457                 2.1830

                    103                    104                    105
                      A                      A                      A
 Frequencies --   1498.3347              1506.2069              1506.4145
 Red. masses --      1.1530                 1.0849                 1.1088
 Frc consts  --      1.5251                 1.4502                 1.4825
 IR Inten    --      6.1984                 1.9018                28.7327

                    106                    107                    108
                      A                      A                      A
 Frequencies --   1516.3576              1566.6865              1616.4578
 Red. masses --      1.8905                 3.6710                 5.4613
 Frc consts  --      2.5612                 5.3089                 8.4076
 IR Inten    --      1.2461               166.4285                 1.2698

                    109                    110                    111
                      A                      A                      A
 Frequencies --   1638.7108              1764.9207              3010.1978
 Red. masses --      5.6322                11.4933                 1.0517
 Frc consts  --      8.9111                21.0933                 5.6150
 IR Inten    --     26.5747               237.4928                 1.1578

                    112                    113                    114
                      A                      A                      A
 Frequencies --   3019.0054              3041.8326              3052.8505
 Red. masses --      1.0490                 1.0361                 1.0627
 Frc consts  --      5.6330                 5.6484                 5.8356
 IR Inten    --      4.7623                19.9559                25.0555

                    115                    116                    117
                      A                      A                      A
 Frequencies --   3061.4804              3070.2811              3078.9229
 Red. masses --      1.0592                 1.0638                 1.0857
 Frc consts  --      5.8492                 5.9082                 6.0639
 IR Inten    --     14.2177                30.6409                 0.4772

                    118                    119                    120
                      A                      A                      A
 Frequencies --   3097.7597              3100.9203              3110.3115
 Red. masses --      1.1013                 1.0838                 1.1052
 Frc consts  --      6.2267                 6.1399                 6.2992
 IR Inten    --      4.1874                 4.4066                10.6850

                    121                    122                    123
                      A                      A                      A
 Frequencies --   3117.9515              3120.6050              3124.4593
 Red. masses --      1.1026                 1.0843                 1.0960
 Frc consts  --      6.3156                 6.2213                 6.3038
 IR Inten    --     15.6534                 1.6888                16.2911

                    124                    125                    126
                      A                      A                      A
 Frequencies --   3141.3547              3155.0030              3173.4197
 Red. masses --      1.1044                 1.1059                 1.1043
 Frc consts  --      6.4210                 6.4861                 6.5522
 IR Inten    --     12.8719                 0.9088                 2.5123

                    127                    128                    129
                      A                      A                      A
 Frequencies --   3173.8031              3176.8080              3186.7296
 Red. masses --      1.0861                 1.0888                 1.0912
 Frc consts  --      6.4457                 6.4739                 6.5292
 IR Inten    --      0.2933                 5.9692                 7.2206

                    130                    131                    132
                      A                      A                      A
 Frequencies --   3196.4265              3233.9024              3236.4419
 Red. masses --      1.0970                 1.0921                 1.0914
 Frc consts  --      6.6040                 6.7291                 6.7353
 IR Inten    --     13.9341                 1.7950                 1.2725

 - Thermochemistry -
 -------------------
 Temperature   298.150 Kelvin.  Pressure   1.00000 Atm.
 Atom     1 has atomic number  6 and mass  12.00000

 Molecular mass:   434.99839 amu.
 Principal axes and moments of inertia in atomic units:
                           1         2         3
     Eigenvalues --  9011.33270********************
           X            0.99970  -0.01715   0.01737
           Y            0.01661   0.99939   0.03088
           Z           -0.01788  -0.03058   0.99937
 This molecule is an asymmetric top.
 Rotational symmetry number  1.
 Warning -- assumption of classical behavior for rotation
           may cause significant error
 Rotational temperatures (Kelvin)      0.00961     0.00800     0.00699
 Rotational constants (GHZ):           0.20027     0.16671     0.14565
    2 imaginary frequencies ignored.
 Zero-point vibrational energy     942060.7 (Joules/Mol)
                                  225.15791 (Kcal/Mol)
 Warning -- explicit consideration of  41 degrees of freedom as
           vibrations may cause significant error
 Vibrational temperatures:     40.57    43.25    62.91    72.97    78.23
          (Kelvin)             86.68    97.66   119.82   134.27   144.19
                              151.50   157.97   172.79   184.98   211.66
                              248.02   270.37   277.85   286.09   307.86
                              320.31   330.41   356.53   377.07   423.16
                              457.27   474.17   487.69   508.33   549.91
                              553.32   563.65   579.65   591.43   621.11
                              643.69   681.95   728.92   739.61   813.39
                              868.75   900.98   918.99   996.58  1010.49
                             1089.30  1101.23  1138.75  1153.06  1178.51
                             1208.27  1236.65  1241.52  1268.64  1306.82
                             1335.34  1351.74  1379.08  1417.93  1425.48
                             1431.84  1441.61  1449.19  1457.81  1491.05
                             1504.56  1517.83  1533.72  1569.01  1597.40
                             1629.19  1633.78  1672.00  1682.88  1692.56
                             1705.47  1729.92  1744.28  1773.46  1805.55
                             1818.70  1851.55  1896.80  1906.72  1919.18
                             1937.76  1954.28  1959.94  1980.00  1991.38
                             2005.11  2020.08  2036.99  2090.43  2094.85
                             2115.38  2119.61  2121.93  2138.93  2140.96
                             2155.77  2167.10  2167.39  2181.70  2254.11
                             2325.72  2357.74  2539.33  4331.00  4343.68
                             4376.52  4392.37  4404.79  4417.45  4429.88
                             4456.99  4461.53  4475.04  4486.04  4489.85
                             4495.40  4519.71  4539.35  4565.84  4566.39
                             4570.72  4584.99  4598.94  4652.86  4656.52

 Zero-point correction=                           0.358812 (Hartree/Particle)
 Thermal correction to Energy=                    0.385303
 Thermal correction to Enthalpy=                  0.386247
 Thermal correction to Gibbs Free Energy=         0.298814
 Sum of electronic and zero-point Energies=          -3531.038415
 Sum of electronic and thermal Energies=             -3531.011924
 Sum of electronic and thermal Enthalpies=           -3531.010980
 Sum of electronic and thermal Free Energies=        -3531.098412

                     E (Thermal)             CV                S
                      KCal/Mol        Cal/Mol-Kelvin    Cal/Mol-Kelvin
 Total                  241.781             95.837            184.017
 Electronic               0.000              0.000              3.561
 Translational            0.889              2.981             44.100
 Rotational               0.889              2.981             35.446
 Vibrational            240.004             89.875            100.911
 Vibration     1          0.593              1.984              5.952
 Vibration     2          0.594              1.984              5.826
 Vibration     3          0.595              1.980              5.083
 Vibration     4          0.595              1.977              4.789
 Vibration     5          0.596              1.976              4.652
 Vibration     6          0.597              1.973              4.449
 Vibration     7          0.598              1.970              4.214
 Vibration     8          0.600              1.961              3.812
 Vibration     9          0.602              1.954              3.589
 Vibration    10          0.604              1.949              3.450
 Vibration    11          0.605              1.945              3.354
 Vibration    12          0.606              1.941              3.273
 Vibration    13          0.609              1.933              3.099
 Vibration    14          0.611              1.925              2.967
 Vibration    15          0.617              1.906              2.709
 Vibration    16          0.626              1.876              2.409
 Vibration    17          0.633              1.856              2.248
 Vibration    18          0.635              1.849              2.198
 Vibration    19          0.637              1.842              2.144
 Vibration    20          0.644              1.820              2.010
 Vibration    21          0.648              1.807              1.938
 Vibration    22          0.652              1.796              1.882
 Vibration    23          0.661              1.766              1.746
 Vibration    24          0.669              1.742              1.648
 Vibration    25          0.689              1.685              1.450
 Vibration    26          0.704              1.640              1.321
 Vibration    27          0.712              1.616              1.262
 Vibration    28          0.719              1.598              1.217
 Vibration    29          0.730              1.568              1.151
 Vibration    30          0.752              1.508              1.030
 Vibration    31          0.754              1.503              1.021
 Vibration    32          0.759              1.488              0.993
 Vibration    33          0.768              1.464              0.952
 Vibration    34          0.775              1.446              0.923
 Vibration    35          0.793              1.401              0.853
 Vibration    36          0.807              1.367              0.804
 Vibration    37          0.831              1.308              0.726
 Vibration    38          0.862              1.235              0.642
 Vibration    39          0.869              1.219              0.624
 Vibration    40          0.921              1.106              0.513
 Vibration    41          0.962              1.024              0.443

                           ! Non-Optimized Parameters !
 Normal termination of Gaussian 16 at Sun Jun 20 07:05:18 2021.

 ----------------------------------------------------------------------
 #p ub3lyp jul-cc-pvdz pop=cm5 scrf=(pcm,solvent=dichloroethane) guess=
 read geom=allcheck
 ----------------------------------------------------------------------

 Structure from the checkpoint file:  "checkpoint.chk"
 -----
 title
 -----
 Charge =  0 Multiplicity = 6

 SCF Done:  E(UB3LYP) =  -3531.41765009     A.U. after   20 cycles
 Normal termination of Gaussian 16 at Sun Jun 20 07:28:05 2021.
 Gaussian 16:  ES64L-G16RevA.03 25-Dec-2016

 ----------------------------------------------------------------------
 #p ub3lyp jul-cc-pvdz pop=cm5 scrf=(pcm,solvent=water) guess=read geom
 =allcheck
 ----------------------------------------------------------------------

 Structure from the checkpoint file:  "checkpoint.chk"
 -----
 title
 -----
 Charge =  0 Multiplicity = 6

                         Standard orientation:
 ---------------------------------------------------------------------
 Center     Atomic      Atomic             Coordinates (Angstroms)
 Number     Number       Type             X           Y           Z
 ---------------------------------------------------------------------
      1          6           0        3.207104   -0.281214    0.528420
      2          6           0        1.836121   -0.552771    0.723420
      3          6           0        1.375766   -0.790232    2.033936
      4          6           0        2.257983   -0.757126    3.114847
      5          6           0        3.614184   -0.494863    2.906735
      6          6           0        4.084252   -0.254357    1.608985
      7          6           0        0.856573   -0.577403   -0.399865
      8          6           0        1.043034    0.346937   -1.636748
      9          6           0        1.976722   -0.255632   -2.696381
     10          6           0        1.614178   -1.745868   -2.845077
     11          6           0        1.363405   -2.311211   -1.470858
     12          6           0        0.116225   -2.685535   -0.970829
     13          6           0       -1.125045   -2.666854   -1.805390
     14          8           0       -0.397922   -0.863219   -0.062633
     15         26           0       -2.040063    0.034854    0.425811
     16         17           0       -2.856098    0.926443   -1.434864
     17          6           0        0.045436   -3.477917    0.293493
     18         17           0       -1.669537    1.481256    2.057074
     19         17           0       -3.292880   -1.655660    1.156992
     20          1           0        0.317982   -0.970142    2.205029
     21          1           0        1.879072   -0.928429    4.122908
     22          1           0        4.304134   -0.468848    3.751671
     23          1           0        5.139484   -0.037000    1.440040
     24          1           0        3.594819   -0.075618   -0.464988
     25          1           0        0.031326    0.445725   -2.050006
     26          6           0        1.490061    1.758580   -1.230705
     27          1           0        1.864728    0.288212   -3.644060
     28          1           0        3.022835   -0.133900   -2.393080
     29          1           0        0.730287   -1.853977   -3.485848
     30          1           0        2.431748   -2.290251   -3.338459
     31          1           0        2.234629   -2.642019   -0.906549
     32          1           0        0.011175   -4.540153   -0.006093
     33          1           0        0.930912   -3.341841    0.924123
     34          1           0       -0.868448   -3.263051    0.857897
     35          1           0       -1.105809   -3.592285   -2.408656
     36          1           0       -2.026897   -2.683060   -1.186040
     37          1           0       -1.179110   -1.822545   -2.497442
     38          8           0        0.457158    2.463858   -0.762706
     39          8           0        2.623563    2.177189   -1.344332
     40          6           0        0.729343    3.833178   -0.334392
     41          6           0       -0.600364    4.536406   -0.160178
     42          1           0        1.298721    3.778220    0.603652
     43          1           0        1.362725    4.307320   -1.094638
     44          1           0       -0.418035    5.567411    0.176516
     45          1           0       -1.152012    4.572747   -1.109414
     46          1           0       -1.220141    4.025275    0.586814
 ---------------------------------------------------------------------

 SCF Done:  E(UB3LYP) =  -3531.42162585     A.U. after   18 cycles

 The electronic state is 6-A.
 Alpha  occ. eigenvalues -- -256.20139-101.51994-101.51970-101.51938 -30.19496
 Alpha  occ. eigenvalues --  -26.04803 -26.04742 -26.04655 -19.20650 -19.16890
 Alpha  occ. eigenvalues --  -19.15605 -10.33501 -10.32825 -10.27772 -10.24912
 Alpha  occ. eigenvalues --  -10.22804 -10.22245 -10.21442 -10.21180 -10.21148
 Alpha  occ. eigenvalues --  -10.21081 -10.20731 -10.20649 -10.20388 -10.20193
 Alpha  occ. eigenvalues --  -10.20049 -10.20001 -10.18501  -9.43718  -9.43684
 Alpha  occ. eigenvalues --   -9.43657  -7.19583  -7.19548  -7.19523  -7.19264
 Alpha  occ. eigenvalues --   -7.19260  -7.19231  -7.19227  -7.19201  -7.19195
 Alpha  occ. eigenvalues --   -3.67203  -2.44725  -2.44540  -2.44400  -1.12534
 Alpha  occ. eigenvalues --   -1.06763  -1.04022  -0.88055  -0.86715  -0.83746
 Alpha  occ. eigenvalues --   -0.79991  -0.79277  -0.79207  -0.78748  -0.78422
 Alpha  occ. eigenvalues --   -0.76665  -0.75104  -0.72357  -0.71077  -0.66739
 Alpha  occ. eigenvalues --   -0.64698  -0.62468  -0.61764  -0.59546  -0.57373
 Alpha  occ. eigenvalues --   -0.56039  -0.54207  -0.53035  -0.51624  -0.50874
 Alpha  occ. eigenvalues --   -0.49992  -0.49666  -0.48954  -0.47947  -0.47782
 Alpha  occ. eigenvalues --   -0.47534  -0.47376  -0.46816  -0.46470  -0.46103
 Alpha  occ. eigenvalues --   -0.44862  -0.44778  -0.43688  -0.43277  -0.42880
 Alpha  occ. eigenvalues --   -0.42526  -0.41177  -0.40799  -0.40172  -0.39998
 Alpha  occ. eigenvalues --   -0.39260  -0.38797  -0.38337  -0.37817  -0.37451
 Alpha  occ. eigenvalues --   -0.36999  -0.36962  -0.36202  -0.35913  -0.35910
 Alpha  occ. eigenvalues --   -0.34469  -0.34199  -0.33663  -0.32172  -0.31847
 Alpha  occ. eigenvalues --   -0.30923  -0.30843  -0.30536  -0.30463  -0.29946
 Alpha  occ. eigenvalues --   -0.29478  -0.29159  -0.28404  -0.27351  -0.24819
 Alpha virt. eigenvalues --   -0.11092  -0.03110  -0.02768  -0.01669  -0.01318
 Alpha virt. eigenvalues --   -0.00130   0.00005   0.00063   0.01321   0.01581
 Alpha virt. eigenvalues --    0.01741   0.01950   0.02527   0.02929   0.03217

  Beta  occ. eigenvalues -- -256.19955-101.51816-101.51797-101.51769 -30.10589
  Beta  occ. eigenvalues --  -25.97349 -25.97295 -25.97283 -19.20649 -19.16303
  Beta  occ. eigenvalues --  -19.15603 -10.33503 -10.32842 -10.27766 -10.24912
  Beta  occ. eigenvalues --  -10.22791 -10.22227 -10.21338 -10.21183 -10.21153
  Beta  occ. eigenvalues --  -10.21088 -10.20728 -10.20646 -10.20381 -10.20198
  Beta  occ. eigenvalues --  -10.20048 -10.19999 -10.18501  -9.43542  -9.43514
  Beta  occ. eigenvalues --   -9.43491  -7.19290  -7.19261  -7.19234  -7.19025
  Beta  occ. eigenvalues --   -7.19016  -7.19001  -7.18993  -7.18978  -7.18974
  Beta  occ. eigenvalues --   -3.46423  -2.22730  -2.22645  -2.22586  -1.12531
  Beta  occ. eigenvalues --   -1.05656  -1.04019  -0.87994  -0.86569  -0.83707
  Beta  occ. eigenvalues --   -0.78873  -0.78761  -0.78362  -0.78021  -0.78002
  Beta  occ. eigenvalues --   -0.76663  -0.75047  -0.72332  -0.70929  -0.66634
  Beta  occ. eigenvalues --   -0.64647  -0.62435  -0.61720  -0.59194  -0.57161
  Beta  occ. eigenvalues --   -0.55618  -0.54140  -0.52203  -0.51603  -0.50404
  Beta  occ. eigenvalues --   -0.49717  -0.49027  -0.48566  -0.47840  -0.47206
  Beta  occ. eigenvalues --   -0.45921  -0.45026  -0.43707  -0.43256  -0.42968
  Beta  occ. eigenvalues --   -0.42463  -0.41171  -0.40787  -0.40161  -0.40006
  Beta  occ. eigenvalues --   -0.39241  -0.38750  -0.38141  -0.37798  -0.37678
  Beta  occ. eigenvalues --   -0.37279  -0.36959  -0.36222  -0.35945  -0.35836
  Beta  occ. eigenvalues --   -0.35601  -0.35569  -0.34380  -0.33128  -0.32788
  Beta  occ. eigenvalues --   -0.32320  -0.32179  -0.31968  -0.30987  -0.30301
  Beta  occ. eigenvalues --   -0.29445  -0.29206  -0.28612  -0.27355  -0.24886
  Beta virt. eigenvalues --   -0.14113  -0.13752  -0.12877  -0.12766  -0.12462
  Beta virt. eigenvalues --   -0.10727  -0.03077  -0.02680  -0.01623  -0.01213
  Beta virt. eigenvalues --   -0.00090   0.00044   0.00091   0.01414   0.01605

 Mulliken charges and spin densities:
               1          2
     1  C    0.233201  -0.001188
     2  C    2.876892  -0.004833
     3  C   -0.495819  -0.014559
     4  C    0.065812   0.006764
     5  C    0.271871  -0.003439
     6  C   -0.097128   0.002634
     7  C   -2.292770  -0.009666
     8  C    0.430158   0.013780
     9  C    0.469190   0.005764
    10  C    0.653187  -0.006354
    11  C    0.600071   0.075897
    12  C   -0.528349  -0.005345
    13  C    0.327700   0.001728
    14  O   -0.513946   0.182028
    15  Fe   0.706558   4.048806
    16  Cl  -0.548270   0.229526
    17  C    0.388642  -0.000008
    18  Cl  -0.509344   0.240356
    19  Cl  -0.529319   0.231399
    20  H   -0.262308   0.001766
    21  H   -0.159175  -0.000022
    22  H   -0.154560   0.000068
    23  H   -0.155071   0.000150
    24  H   -0.256129  -0.000112
    25  H   -0.185998  -0.000721
    26  C    0.849302   0.002231
    27  H   -0.131710   0.000348
    28  H   -0.011267  -0.000036
    29  H   -0.077304   0.000342
    30  H   -0.108994   0.001978
    31  H   -0.273708  -0.002324
    32  H    0.022029   0.000580
    33  H    0.033911   0.000088
    34  H    0.057228   0.000039
    35  H    0.021354   0.000002
    36  H    0.037801   0.000733
    37  H    0.077695  -0.000507
    38  O   -0.656337   0.002678
    39  O   -0.617609   0.000799
    40  C    0.429354   0.000527
    41  C    0.040465  -0.001579
    42  H   -0.035021  -0.000017
    43  H   -0.037401   0.000038
    44  H   -0.008764   0.000049
    45  H    0.025477   0.000062
    46  H    0.028404  -0.000450
 Sum of Mulliken charges =  -0.00000   5.00000

 Dipole moment (field-independent basis, Debye):
    X=             10.3835    Y=             -6.0927    Z=             -3.6416  Tot=             12.5777
 Quadrupole moment (field-independent basis, Debye-Ang):
   XX=           -196.6947   YY=           -157.2993   ZZ=           -168.0864
   XY=             -7.2628   XZ=              9.9971   YZ=              7.7064

 Normal termination of Gaussian 16 at Sun Jun 20 07:48:23 2021.
