 Gaussian 16, Revision A.03,

 -----------------------------------------------------------
 #p opt=modredundant freq=noraman ub3lyp jul-cc-pvdz pop=cm5
 -----------------------------------------------------------

 -----
 title
 -----
 Symbolic Z-matrix:
 Charge =  0 Multiplicity = 6

 SCF Done:  E(UB3LYP) =  -3531.43818531     A.U. after   25 cycles
 SCF Done:  E(UB3LYP) =  -3531.43732143     A.U. after   17 cycles
 SCF Done:  E(UB3LYP) =  -3531.43650926     A.U. after   17 cycles
 SCF Done:  E(UB3LYP) =  -3531.43615042     A.U. after   17 cycles
 SCF Done:  E(UB3LYP) =  -3531.43835918     A.U. after   12 cycles
 SCF Done:  E(UB3LYP) =  -3531.43821207     A.U. after   17 cycles
 SCF Done:  E(UB3LYP) =  -3531.43864719     A.U. after   16 cycles
 SCF Done:  E(UB3LYP) =  -3531.43882918     A.U. after   15 cycles
 SCF Done:  E(UB3LYP) =  -3531.43890408     A.U. after   13 cycles
 SCF Done:  E(UB3LYP) =  -3531.43892725     A.U. after   14 cycles
 SCF Done:  E(UB3LYP) =  -3531.43894913     A.U. after   11 cycles
 SCF Done:  E(UB3LYP) =  -3531.43894932     A.U. after   10 cycles
 SCF Done:  E(UB3LYP) =  -3531.43894957     A.U. after   10 cycles
 SCF Done:  E(UB3LYP) =  -3531.43894992     A.U. after   10 cycles
 SCF Done:  E(UB3LYP) =  -3531.43895025     A.U. after   10 cycles
 SCF Done:  E(UB3LYP) =  -3531.43895053     A.U. after   10 cycles
 SCF Done:  E(UB3LYP) =  -3531.43895073     A.U. after   10 cycles
 Optimization completed.
    -- Stationary point found.
 Normal termination of Gaussian 16 at Sun Jun 20 16:08:37 2021.

 ----------------------------------------------------------------------
 #P Geom=AllCheck Guess=TCheck SCRF=Check GenChk UB3LYP/Jul-CC-pVDZ Fre
 q
 ----------------------------------------------------------------------

 Structure from the checkpoint file:  "checkpoint.chk"
 -----
 title
 -----
 Charge =  0 Multiplicity = 6

 SCF Done:  E(UB3LYP) =  -3531.43895073     A.U. after    2 cycles

  Exact polarizability: 316.440  14.507 308.244  14.501   6.540 298.960
 Approx polarizability: 485.736  47.751 467.242  13.901   0.422 496.510

 ******    1 imaginary frequencies (negative Signs) ******

                      1                      2                      3
                      A                      A                      A
 Frequencies --    -18.7255                14.2493                22.5627
 Red. masses --      6.5853                 5.0738                 4.6893
 Frc consts  --      0.0014                 0.0006                 0.0014
 IR Inten    --      0.3374                 0.4185                 1.0109

                      4                      5                      6
                      A                      A                      A
 Frequencies --     28.7602                46.6011                50.5737
 Red. masses --      9.0324                 4.1074                 4.4167
 Frc consts  --      0.0044                 0.0053                 0.0067
 IR Inten    --      0.3283                 0.8439                 1.3424

                      7                      8                      9
                      A                      A                      A
 Frequencies --     58.8820                62.9219                78.8726
 Red. masses --      4.7920                 3.9137                 8.1928
 Frc consts  --      0.0098                 0.0091                 0.0300
 IR Inten    --      0.6381                 2.2365                 0.2707

                     10                     11                     12
                      A                      A                      A
 Frequencies --     86.0843                91.3630               100.0422
 Red. masses --      7.7792                 8.3087                 3.1603
 Frc consts  --      0.0340                 0.0409                 0.0186
 IR Inten    --      0.4378                 4.2574                 0.2302

                     13                     14                     15
                      A                      A                      A
 Frequencies --    102.0291               106.4190               117.4223
 Red. masses --      3.4061                 2.5957                 9.6633
 Frc consts  --      0.0209                 0.0173                 0.0785
 IR Inten    --      1.3280                 0.5532                 0.0928

                     16                     17                     18
                      A                      A                      A
 Frequencies --    125.2795               132.4145               144.7515
 Red. masses --      8.1015                 3.2369                 3.3278
 Frc consts  --      0.0749                 0.0334                 0.0411
 IR Inten    --      1.7942                 3.2149                 2.0844

                     19                     20                     21
                      A                      A                      A
 Frequencies --    149.3125               171.4504               179.4441
 Red. masses --      1.9894                 6.9124                 1.1476
 Frc consts  --      0.0261                 0.1197                 0.0218
 IR Inten    --      3.0447                22.0704                 5.4839

                     22                     23                     24
                      A                      A                      A
 Frequencies --    200.7607               205.2955               221.4852
 Red. masses --      4.2615                 2.3443                 3.0957
 Frc consts  --      0.1012                 0.0582                 0.0895
 IR Inten    --      2.0938                 1.7796                 8.0570

                     25                     26                     27
                      A                      A                      A
 Frequencies --    257.7420               266.1105               292.0306
 Red. masses --      1.6838                 4.2349                 4.0432
 Frc consts  --      0.0659                 0.1767                 0.2032
 IR Inten    --      6.6187                74.7942                 3.2861

                     28                     29                     30
                      A                      A                      A
 Frequencies --    310.8076               318.8286               343.8410
 Red. masses --      2.8202                 5.4461                20.0089
 Frc consts  --      0.1605                 0.3262                 1.3938
 IR Inten    --      3.8491                 3.5218                51.8752

                     31                     32                     33
                      A                      A                      A
 Frequencies --    354.4012               380.3288               394.8464
 Red. masses --      5.1981                 4.6630                 4.9750
 Frc consts  --      0.3847                 0.3974                 0.4570
 IR Inten    --      1.9702                15.6556                47.9078

                     34                     35                     36
                      A                      A                      A
 Frequencies --    397.2125               400.7325               410.4962
 Red. masses --      5.5214                16.4331                 2.8640
 Frc consts  --      0.5133                 1.5548                 0.2843
 IR Inten    --     45.5141                67.4943                 1.0264

                     37                     38                     39
                      A                      A                      A
 Frequencies --    424.6891               453.0285               479.1576
 Red. masses --      3.8047                 3.4332                 2.8499
 Frc consts  --      0.4043                 0.4151                 0.3855
 IR Inten    --     44.3882                 1.7189                 7.0945

                     40                     41                     42
                      A                      A                      A
 Frequencies --    501.9413               517.4561               542.6463
 Red. masses --      2.9216                 3.0885                 3.4536
 Frc consts  --      0.4337                 0.4872                 0.5992
 IR Inten    --      9.9331                 4.0011                25.1512

                     43                     44                     45
                      A                      A                      A
 Frequencies --    583.8187               624.8305               646.9972
 Red. masses --      4.5848                 6.2540                 4.1240
 Frc consts  --      0.9207                 1.4386                 1.0171
 IR Inten    --     74.9524                 6.0532                91.7577

                     46                     47                     48
                      A                      A                      A
 Frequencies --    691.2398               701.1067               753.2257
 Red. masses --      1.6236                 6.1443                 4.4226
 Frc consts  --      0.4571                 1.7795                 1.4784
 IR Inten    --     58.2891                13.8983                 5.8987

                     49                     50                     51
                      A                      A                      A
 Frequencies --    767.9809               795.5682               804.3082
 Red. masses --      2.3128                 2.2363                 1.2818
 Frc consts  --      0.8037                 0.8339                 0.4885
 IR Inten    --     18.9207                13.1532                 0.9966

                     52                     53                     54
                      A                      A                      A
 Frequencies --    823.2441               842.8284               858.2452
 Red. masses --      3.3541                 1.2609                 1.5842
 Frc consts  --      1.3393                 0.5277                 0.6875
 IR Inten    --     15.7396                 0.9422                 6.6555

                     55                     56                     57
                      A                      A                      A
 Frequencies --    866.2367               902.4837               920.5703
 Red. masses --      2.4426                 1.9522                 1.9649
 Frc consts  --      1.0799                 0.9368                 0.9811
 IR Inten    --     42.4802                 4.4240                17.0748

                     58                     59                     60
                      A                      A                      A
 Frequencies --    944.9569               958.9272               970.4420
 Red. masses --      1.4196                 1.4152                 3.3900
 Frc consts  --      0.7468                 0.7667                 1.8810
 IR Inten    --      0.3354                 2.8876                24.4050

                     61                     62                     63
                      A                      A                      A
 Frequencies --    987.3655               988.5207               992.8793
 Red. masses --      1.8346                 1.4047                 1.6328
 Frc consts  --      1.0538                 0.8087                 0.9483
 IR Inten    --     17.2072                23.8385                11.2738

                     64                     65                     66
                      A                      A                      A
 Frequencies --   1003.2392              1008.3068              1017.4016
 Red. masses --      3.0496                 1.5908                 2.0050
 Frc consts  --      1.8085                 0.9529                 1.2228
 IR Inten    --      1.0633                 1.3300                 5.6664

                     67                     68                     69
                      A                      A                      A
 Frequencies --   1037.0331              1047.2322              1073.1988
 Red. masses --      2.6606                 2.3629                 2.2481
 Frc consts  --      1.6858                 1.5268                 1.5256
 IR Inten    --     44.9185                 2.9371                 2.0919

                     70                     71                     72
                      A                      A                      A
 Frequencies --   1089.0473              1096.1848              1112.2191
 Red. masses --      1.7961                 1.9613                 1.5626
 Frc consts  --      1.2551                 1.3885                 1.1389
 IR Inten    --      2.3250                14.9142                 8.7197

                     73                     74                     75
                      A                      A                      A
 Frequencies --   1132.8308              1138.3177              1162.2621
 Red. masses --      2.1427                 2.2348                 1.6764
 Frc consts  --      1.6201                 1.7061                 1.3343
 IR Inten    --     14.8722                 8.0019                70.1171

                     76                     77                     78
                      A                      A                      A
 Frequencies --   1170.7701              1177.0404              1200.7864
 Red. masses --      1.5631                 1.0872                 1.3574
 Frc consts  --      1.2624                 0.8874                 1.1531
 IR Inten    --      2.9498                 1.6525                47.8957

                     79                     80                     81
                      A                      A                      A
 Frequencies --   1206.7464              1226.5010              1253.8966
 Red. masses --      1.4130                 2.1512                 2.0159
 Frc consts  --      1.2123                 1.9067                 1.8674
 IR Inten    --     50.7341               152.3655                23.7215

                     82                     83                     84
                      A                      A                      A
 Frequencies --   1262.3351              1285.7445              1325.5504
 Red. masses --      2.5024                 1.1170                 1.4974
 Frc consts  --      2.3494                 1.0879                 1.5502
 IR Inten    --    131.5201                 0.3676                52.7468

                     85                     86                     87
                      A                      A                      A
 Frequencies --   1330.2888              1333.2109              1336.9412
 Red. masses --      1.4100                 1.5952                 1.6356
 Frc consts  --      1.4702                 1.6706                 1.7225
 IR Inten    --     54.4603                86.5990                19.6358

                     88                     89                     90
                      A                      A                      A
 Frequencies --   1363.5351              1366.7800              1378.0583
 Red. masses --      3.0306                 1.5526                 1.3077
 Frc consts  --      3.3198                 1.7089                 1.4631
 IR Inten    --      3.4220                13.1137                10.8671

                     91                     92                     93
                      A                      A                      A
 Frequencies --   1382.7082              1399.2848              1409.8012
 Red. masses --      1.3870                 1.2982                 1.4698
 Frc consts  --      1.5624                 1.4976                 1.7211
 IR Inten    --     25.4830                 9.9082                20.1225

                     94                     95                     96
                      A                      A                      A
 Frequencies --   1415.8752              1455.6241              1461.6892
 Red. masses --      1.4055                 1.1309                 2.1660
 Frc consts  --      1.6601                 1.4118                 2.7266
 IR Inten    --     12.6196                35.8358               106.2465

                     97                     98                     99
                      A                      A                      A
 Frequencies --   1466.6565              1473.2086              1477.8386
 Red. masses --      1.0780                 1.0387                 1.0724
 Frc consts  --      1.3662                 1.3282                 1.3799
 IR Inten    --      1.5070                 6.2612                18.5487

                    100                    101                    102
                      A                      A                      A
 Frequencies --   1479.6224              1487.8843              1493.1978
 Red. masses --      1.0775                 1.0571                 1.1918
 Frc consts  --      1.3899                 1.3788                 1.5656
 IR Inten    --      7.2648                 5.8642                69.9005

                    103                    104                    105
                      A                      A                      A
 Frequencies --   1493.6677              1506.1831              1507.1685
 Red. masses --      1.1290                 1.0996                 3.1023
 Frc consts  --      1.4840                 1.4698                 4.1521
 IR Inten    --      9.6653                 4.3819               443.2819

                    106                    107                    108
                      A                      A                      A
 Frequencies --   1518.7000              1619.1270              1639.8522
 Red. masses --      2.1131                 5.5360                 5.6510
 Frc consts  --      2.8716                 8.5508                 8.9534
 IR Inten    --    104.7669                 8.8427                31.2761

                    109                    110                    111
                      A                      A                      A
 Frequencies --   1688.3251              1767.4642              3017.3615
 Red. masses --      6.0188                11.5371                 1.0397
 Frc consts  --     10.1081                21.2347                 5.5772
 IR Inten    --    137.3333               224.5177                 4.9095

                    112                    113                    114
                      A                      A                      A
 Frequencies --   3024.7261              3034.0115              3042.2708
 Red. masses --      1.0444                 1.0673                 1.0359
 Frc consts  --      5.6296                 5.7884                 5.6490
 IR Inten    --     10.4292                27.2391                17.9986

                    115                    116                    117
                      A                      A                      A
 Frequencies --   3060.7692              3067.0612              3072.8487
 Red. masses --      1.0592                 1.0641                 1.0975
 Frc consts  --      5.8466                 5.8976                 6.1055
 IR Inten    --     14.9741                26.8092                 8.9175

                    118                    119                    120
                      A                      A                      A
 Frequencies --   3076.6040              3086.8292              3096.0609
 Red. masses --      1.0856                 1.0911                 1.0960
 Frc consts  --      6.0541                 6.1257                 6.1899
 IR Inten    --      1.6552                 4.1481                 2.7873

                    121                    122                    123
                      A                      A                      A
 Frequencies --   3109.4563              3118.3317              3120.7203
 Red. masses --      1.1059                 1.1021                 1.0995
 Frc consts  --      6.3001                 6.3142                 6.3088
 IR Inten    --      8.7156                16.3412                14.2210

                    124                    125                    126
                      A                      A                      A
 Frequencies --   3129.8701              3139.8620              3151.8420
 Red. masses --      1.1009                 1.1046                 1.0928
 Frc consts  --      6.3543                 6.4159                 6.3962
 IR Inten    --     10.8198                14.1406                 1.3755

                    127                    128                    129
                      A                      A                      A
 Frequencies --   3153.6211              3174.4795              3187.4879
 Red. masses --      1.0929                 1.0861                 1.0912
 Frc consts  --      6.4041                 6.4488                 6.5319
 IR Inten    --     26.1474                 0.4308                 6.6773

                    130                    131                    132
                      A                      A                      A
 Frequencies --   3196.8036              3223.1778              3240.5571
 Red. masses --      1.0968                 1.0928                 1.0916
 Frc consts  --      6.6042                 6.6892                 6.7542
 IR Inten    --     12.3423                 1.9167                 1.5880

 - Thermochemistry -
 -------------------
 Temperature   298.150 Kelvin.  Pressure   1.00000 Atm.
 Atom     1 has atomic number  6 and mass  12.00000

 Molecular mass:   434.99839 amu.
 Principal axes and moments of inertia in atomic units:
                           1         2         3
     Eigenvalues --  9409.27065********************
           X            0.99770  -0.06641   0.01379
           Y            0.06606   0.99753   0.02400
           Z           -0.01535  -0.02303   0.99962
 This molecule is an asymmetric top.
 Rotational symmetry number  1.
 Warning -- assumption of classical behavior for rotation
           may cause significant error
 Rotational temperatures (Kelvin)      0.00921     0.00775     0.00648
 Rotational constants (GHZ):           0.19180     0.16153     0.13496
    1 imaginary frequencies ignored.
 Zero-point vibrational energy     943692.9 (Joules/Mol)
                                  225.54803 (Kcal/Mol)
 Warning -- explicit consideration of  42 degrees of freedom as
           vibrations may cause significant error
 Vibrational temperatures:     20.50    32.46    41.38    67.05    72.76
          (Kelvin)             84.72    90.53   113.48   123.86   131.45
                              143.94   146.80   153.11   168.94   180.25
                              190.51   208.27   214.83   246.68   258.18
                              288.85   295.37   318.67   370.83   382.87
                              420.17   447.18   458.72   494.71   509.90
                              547.21   568.10   571.50   576.56   590.61
                              611.03   651.81   689.40   722.18   744.50
                              780.75   839.98   898.99   930.88   994.54
                             1008.74  1083.72  1104.95  1144.65  1157.22
                             1184.46  1212.64  1234.82  1246.32  1298.47
                             1324.50  1359.58  1379.68  1396.25  1420.60
                             1422.26  1428.53  1443.44  1450.73  1463.81
                             1492.06  1506.73  1544.09  1566.90  1577.17
                             1600.24  1629.89  1637.79  1672.24  1684.48
                             1693.50  1727.66  1736.24  1764.66  1804.08
                             1816.22  1849.90  1907.17  1913.99  1918.19
                             1923.56  1961.82  1966.49  1982.72  1989.41
                             2013.26  2028.39  2037.13  2094.32  2103.04
                             2110.19  2119.62  2126.28  2128.85  2140.73
                             2148.38  2149.05  2167.06  2168.48  2185.07
                             2329.56  2359.38  2429.12  2542.99  4341.31
                             4351.91  4365.27  4377.15  4403.76  4412.82
                             4421.14  4426.55  4441.26  4454.54  4473.81
                             4486.58  4490.02  4503.18  4517.56  4534.80
                             4537.36  4567.37  4586.08  4599.49  4637.43
                             4662.44

 Zero-point correction=                           0.359434 (Hartree/Particle)
 Thermal correction to Energy=                    0.387063
 Thermal correction to Enthalpy=                  0.388007
 Thermal correction to Gibbs Free Energy=         0.296235
 Sum of electronic and zero-point Energies=          -3531.079517
 Sum of electronic and thermal Energies=             -3531.051888
 Sum of electronic and thermal Enthalpies=           -3531.050944
 Sum of electronic and thermal Free Energies=        -3531.142716

                     E (Thermal)             CV                S
                      KCal/Mol        Cal/Mol-Kelvin    Cal/Mol-Kelvin
 Total                  242.886             97.746            193.151
 Electronic               0.000              0.000              3.561
 Translational            0.889              2.981             44.100
 Rotational               0.889              2.981             35.596
 Vibrational            241.108             91.784            109.895
 Vibration     1          0.593              1.986              7.308
 Vibration     2          0.593              1.985              6.395
 Vibration     3          0.593              1.984              5.913
 Vibration     4          0.595              1.979              4.957
 Vibration     5          0.595              1.977              4.795
 Vibration     6          0.596              1.974              4.494
 Vibration     7          0.597              1.972              4.363
 Vibration     8          0.600              1.963              3.919
 Vibration     9          0.601              1.959              3.747
 Vibration    10          0.602              1.955              3.631
 Vibration    11          0.604              1.949              3.453
 Vibration    12          0.604              1.948              3.415
 Vibration    13          0.605              1.944              3.333
 Vibration    14          0.608              1.935              3.142
 Vibration    15          0.610              1.928              3.017
 Vibration    16          0.613              1.921              2.911
 Vibration    17          0.616              1.908              2.740
 Vibration    18          0.618              1.903              2.681
 Vibration    19          0.626              1.878              2.420
 Vibration    20          0.629              1.868              2.334
 Vibration    21          0.638              1.839              2.126
 Vibration    22          0.640              1.832              2.085
 Vibration    23          0.648              1.808              1.947
 Vibration    24          0.667              1.750              1.677
 Vibration    25          0.672              1.735              1.621
 Vibration    26          0.687              1.689              1.462
 Vibration    27          0.700              1.653              1.358
 Vibration    28          0.705              1.638              1.316
 Vibration    29          0.723              1.588              1.194
 Vibration    30          0.730              1.566              1.147
 Vibration    31          0.750              1.512              1.038
 Vibration    32          0.762              1.481              0.982
 Vibration    33          0.764              1.476              0.973
 Vibration    34          0.767              1.469              0.960
 Vibration    35          0.775              1.447              0.925
 Vibration    36          0.787              1.417              0.876
 Vibration    37          0.812              1.354              0.787
 Vibration    38          0.836              1.296              0.712
 Vibration    39          0.857              1.246              0.653
 Vibration    40          0.872              1.211              0.616
 Vibration    41          0.898              1.156              0.560
 Vibration    42          0.941              1.066              0.478

                           ! Non-Optimized Parameters !
 Normal termination of Gaussian 16 at Sun Jun 20 19:49:17 2021.

 ----------------------------------------------------------------------
 #p ub3lyp jul-cc-pvdz pop=cm5 scrf=(pcm,solvent=dichloroethane) guess=
 read geom=allcheck
 ----------------------------------------------------------------------

 Structure from the checkpoint file:  "checkpoint.chk"
 -----
 title
 -----
 Charge =  0 Multiplicity = 6

 SCF Done:  E(UB3LYP) =  -3531.45658819     A.U. after   18 cycles
 Normal termination of Gaussian 16 at Sun Jun 20 20:09:26 2021.
 Gaussian 16:  ES64L-G16RevA.03 25-Dec-2016

 ----------------------------------------------------------------------
 #p ub3lyp jul-cc-pvdz pop=cm5 scrf=(pcm,solvent=water) guess=read geom
 =allcheck
 ----------------------------------------------------------------------

 Structure from the checkpoint file:  "checkpoint.chk"
 -----
 title
 -----
 Charge =  0 Multiplicity = 6

                         Standard orientation:
 ---------------------------------------------------------------------
 Center     Atomic      Atomic             Coordinates (Angstroms)
 Number     Number       Type             X           Y           Z
 ---------------------------------------------------------------------
      1          6           0        3.233172    0.277892    0.459329
      2          6           0        1.945123   -0.233266    0.718317
      3          6           0        1.647246   -0.697234    2.016541
      4          6           0        2.613024   -0.665708    3.020233
      5          6           0        3.892091   -0.169317    2.747074
      6          6           0        4.195785    0.307240    1.466460
      7          6           0        0.861141   -0.249989   -0.299690
      8          6           0        0.886747    0.649374   -1.557025
      9          6           0        1.836841    0.206758   -2.679517
     10          6           0        1.633086   -1.289814   -2.939050
     11          6           0        1.749220   -2.033143   -1.638227
     12          6           0        0.841196   -2.873218   -1.084217
     13          6           0       -0.518150   -3.148267   -1.651057
     14          8           0       -0.264882   -0.696980    0.069287
     15         26           0       -2.159245   -0.292335    0.420238
     16         17           0       -3.033103    0.413134   -1.480317
     17          6           0        1.156050   -3.613012    0.182308
     18         17           0       -2.150378    1.196666    2.044356
     19         17           0       -3.023600   -2.202274    1.112776
     20          1           0        0.644576   -1.057520    2.235215
     21          1           0        2.363470   -1.019822    4.020931
     22          1           0        4.648235   -0.142476    3.533354
     23          1           0        5.185862    0.711151    1.252628
     24          1           0        3.486662    0.674612   -0.519056
     25          1           0       -0.145400    0.604332   -1.927781
     26          6           0        1.142147    2.114004   -1.158556
     27          1           0        1.621605    0.802557   -3.577111
     28          1           0        2.878693    0.418836   -2.413145
     29          1           0        0.657757   -1.459051   -3.411862
     30          1           0        2.396389   -1.648803   -3.646969
     31          1           0        2.734241   -1.987574   -1.169122
     32          1           0        2.180247   -3.435187    0.530285
     33          1           0        0.449277   -3.323998    0.976445
     34          1           0        1.020022   -4.695481    0.030427
     35          1           0       -0.545886   -4.183991   -2.028418
     36          1           0       -1.284589   -3.084996   -0.866112
     37          1           0       -0.802439   -2.482416   -2.471286
     38          8           0        0.043284    2.656494   -0.627252
     39          8           0        2.191332    2.697808   -1.330979
     40          6           0        0.132714    4.054556   -0.213400
     41          6           0       -1.268650    4.532684    0.102701
     42          1           0        0.798072    4.100031    0.659840
     43          1           0        0.599059    4.620616   -1.029692
     44          1           0       -1.223259    5.580322    0.433972
     45          1           0       -1.911822    4.476736   -0.786047
     46          1           0       -1.720598    3.929057    0.899688
 ---------------------------------------------------------------------

 SCF Done:  E(UB3LYP) =  -3531.45982081     A.U. after   16 cycles

 The electronic state is 6-A.
 Alpha  occ. eigenvalues -- -256.21407-101.52684-101.52651-101.52628 -30.20795
 Alpha  occ. eigenvalues --  -26.06218 -26.05976 -26.05889 -19.20921 -19.19017
 Alpha  occ. eigenvalues --  -19.15924 -10.33859 -10.33361 -10.25071 -10.23114
 Alpha  occ. eigenvalues --  -10.22574 -10.22341 -10.21591 -10.21556 -10.21478
 Alpha  occ. eigenvalues --  -10.20984 -10.20937 -10.20391 -10.19698 -10.19607
 Alpha  occ. eigenvalues --  -10.18916 -10.18738 -10.18609  -9.44403  -9.44378
 Alpha  occ. eigenvalues --   -9.44354  -7.20269  -7.20247  -7.20225  -7.19958
 Alpha  occ. eigenvalues --   -7.19942  -7.19928  -7.19917  -7.19908  -7.19892
 Alpha  occ. eigenvalues --   -3.68453  -2.46154  -2.45698  -2.45524  -1.12824
 Alpha  occ. eigenvalues --   -1.09344  -1.04318  -0.88335  -0.85422  -0.82744
 Alpha  occ. eigenvalues --   -0.80704  -0.79944  -0.79918  -0.78734  -0.78691
 Alpha  occ. eigenvalues --   -0.76979  -0.75033  -0.70571  -0.69887  -0.67097
 Alpha  occ. eigenvalues --   -0.64702  -0.62720  -0.61745  -0.59844  -0.57750
 Alpha  occ. eigenvalues --   -0.56017  -0.53892  -0.53264  -0.51853  -0.50557
 Alpha  occ. eigenvalues --   -0.49926  -0.49250  -0.48929  -0.48603  -0.48487
 Alpha  occ. eigenvalues --   -0.48169  -0.47434  -0.47133  -0.46963  -0.45856
 Alpha  occ. eigenvalues --   -0.45533  -0.45013  -0.43997  -0.43137  -0.42715
 Alpha  occ. eigenvalues --   -0.42410  -0.41200  -0.40378  -0.40081  -0.39587
 Alpha  occ. eigenvalues --   -0.38863  -0.38275  -0.38040  -0.37868  -0.37701
 Alpha  occ. eigenvalues --   -0.37160  -0.37077  -0.36441  -0.36153  -0.35314
 Alpha  occ. eigenvalues --   -0.34931  -0.34378  -0.33887  -0.32527  -0.32329
 Alpha  occ. eigenvalues --   -0.31476  -0.31462  -0.31097  -0.30950  -0.30311
 Alpha  occ. eigenvalues --   -0.30022  -0.29704  -0.28520  -0.27668  -0.25324
 Alpha virt. eigenvalues --   -0.10957  -0.03355  -0.02336  -0.01716  -0.01076
 Alpha virt. eigenvalues --   -0.00174  -0.00003   0.00072   0.01193   0.01500
 Alpha virt. eigenvalues --    0.01691   0.01997   0.02485   0.02695   0.03183

  Beta  occ. eigenvalues -- -256.21222-101.52494-101.52462-101.52435 -30.11851
  Beta  occ. eigenvalues --  -25.98635 -25.98569 -25.98514 -19.20921 -19.18620
  Beta  occ. eigenvalues --  -19.15922 -10.33858 -10.33343 -10.25071 -10.23103
  Beta  occ. eigenvalues --  -10.22555 -10.22316 -10.21590 -10.21555 -10.21478
  Beta  occ. eigenvalues --  -10.20982 -10.20938 -10.20389 -10.19698 -10.19583
  Beta  occ. eigenvalues --  -10.18917 -10.18739 -10.18607  -9.44216  -9.44193
  Beta  occ. eigenvalues --   -9.44165  -7.19961  -7.19937  -7.19912  -7.19699
  Beta  occ. eigenvalues --   -7.19686  -7.19673  -7.19664  -7.19645  -7.19630
  Beta  occ. eigenvalues --   -3.47594  -2.23874  -2.23810  -2.23743  -1.12819
  Beta  occ. eigenvalues --   -1.08580  -1.04315  -0.88298  -0.85367  -0.82688
  Beta  occ. eigenvalues --   -0.79476  -0.78733  -0.78674  -0.78613  -0.78538
  Beta  occ. eigenvalues --   -0.76974  -0.75005  -0.70553  -0.69788  -0.66955
  Beta  occ. eigenvalues --   -0.64644  -0.62690  -0.61644  -0.59416  -0.57508
  Beta  occ. eigenvalues --   -0.55487  -0.53716  -0.52715  -0.51779  -0.50373
  Beta  occ. eigenvalues --   -0.49543  -0.48949  -0.47638  -0.47392  -0.46827
  Beta  occ. eigenvalues --   -0.45589  -0.45098  -0.43999  -0.43149  -0.42708
  Beta  occ. eigenvalues --   -0.42385  -0.41245  -0.40337  -0.40086  -0.39588
  Beta  occ. eigenvalues --   -0.38768  -0.38459  -0.38171  -0.38014  -0.37688
  Beta  occ. eigenvalues --   -0.37126  -0.37091  -0.36483  -0.36355  -0.36292
  Beta  occ. eigenvalues --   -0.36118  -0.35316  -0.34037  -0.33628  -0.33401
  Beta  occ. eigenvalues --   -0.32890  -0.32709  -0.32234  -0.31496  -0.30611
  Beta  occ. eigenvalues --   -0.29887  -0.29693  -0.28619  -0.27668  -0.25192
  Beta virt. eigenvalues --   -0.15486  -0.14940  -0.14006  -0.13685  -0.13533
  Beta virt. eigenvalues --   -0.10123  -0.03339  -0.02292  -0.01617  -0.01004
  Beta virt. eigenvalues --   -0.00133   0.00029   0.00107   0.01299   0.01523

 Mulliken charges and spin densities:
               1          2
     1  C    0.206181   0.000211
     2  C    3.035428   0.002914
     3  C   -0.615897  -0.003697
     4  C    0.024208   0.001703
     5  C    0.297801   0.001953
     6  C   -0.096524   0.001489
     7  C   -2.369806  -0.004194
     8  C    0.438923   0.006850
     9  C    0.527183   0.002357
    10  C    0.663480  -0.000963
    11  C    0.274984   0.013450
    12  C   -0.044755   0.016135
    13  C    0.123681  -0.001229
    14  O   -0.248901   0.115360
    15  Fe   0.647018   4.069219
    16  Cl  -0.498491   0.250879
    17  C    0.260909  -0.000203
    18  Cl  -0.456443   0.261785
    19  Cl  -0.470429   0.258327
    20  H   -0.243482  -0.000351
    21  H   -0.156282   0.000017
    22  H   -0.150787  -0.000024
    23  H   -0.153885   0.000145
    24  H   -0.224161  -0.000110
    25  H   -0.182544  -0.000248
    26  C    0.719608   0.000382
    27  H   -0.133552   0.000237
    28  H   -0.008410  -0.000018
    29  H   -0.088292   0.000040
    30  H   -0.115183   0.000959
    31  H   -0.269635  -0.000741
    32  H   -0.011824   0.000003
    33  H    0.063274   0.000622
    34  H   -0.024631   0.001049
    35  H   -0.010725   0.001213
    36  H    0.064145   0.001971
    37  H    0.021994  -0.000122
    38  O   -0.661421   0.002132
    39  O   -0.581457   0.000981
    40  C    0.426192   0.000992
    41  C    0.040215  -0.001296
    42  H   -0.033430   0.000051
    43  H   -0.034934   0.000022
    44  H   -0.006061   0.000039
    45  H    0.027229   0.000070
    46  H    0.029487  -0.000359
 Sum of Mulliken charges =  -0.00000   5.00000

 Dipole moment (field-independent basis, Debye):
    X=             10.4447    Y=             -1.6356    Z=             -1.9408  Tot=             10.7486
 Quadrupole moment (field-independent basis, Debye-Ang):
   XX=           -188.9054   YY=           -166.0307   ZZ=           -169.0076
   XY=            -11.3686   XZ=             10.5784   YZ=              4.6313

 Normal termination of Gaussian 16 at Sun Jun 20 20:27:13 2021.
