 Gaussian 16, Revision A.03,

 -----------------------------------------------------------
 #p opt=modredundant freq=noraman ub3lyp jul-cc-pvdz pop=cm5
 -----------------------------------------------------------

 -----
 title
 -----
 Symbolic Z-matrix:
 Charge =  0 Multiplicity = 6

 SCF Done:  E(UB3LYP) =  -3531.44451442     A.U. after   25 cycles
 SCF Done:  E(UB3LYP) =  -3531.44456984     A.U. after   15 cycles
 SCF Done:  E(UB3LYP) =  -3531.44245371     A.U. after   22 cycles
 SCF Done:  E(UB3LYP) =  -3531.44346339     A.U. after   18 cycles
 SCF Done:  E(UB3LYP) =  -3531.44483190     A.U. after   11 cycles
 SCF Done:  E(UB3LYP) =  -3531.44511128     A.U. after   15 cycles
 SCF Done:  E(UB3LYP) =  -3531.44512048     A.U. after   14 cycles
 SCF Done:  E(UB3LYP) =  -3531.44517222     A.U. after   13 cycles
 SCF Done:  E(UB3LYP) =  -3531.44517629     A.U. after   13 cycles
 SCF Done:  E(UB3LYP) =  -3531.44518246     A.U. after   12 cycles
 SCF Done:  E(UB3LYP) =  -3531.44518817     A.U. after   13 cycles
 SCF Done:  E(UB3LYP) =  -3531.44518815     A.U. after   11 cycles
 SCF Done:  E(UB3LYP) =  -3531.44518927     A.U. after   13 cycles
 SCF Done:  E(UB3LYP) =  -3531.44518814     A.U. after   13 cycles
 SCF Done:  E(UB3LYP) =  -3531.44518792     A.U. after   11 cycles
 SCF Done:  E(UB3LYP) =  -3531.44518926     A.U. after   13 cycles
 SCF Done:  E(UB3LYP) =  -3531.44518772     A.U. after   13 cycles
 Optimization completed.
    -- Stationary point found.
 Normal termination of Gaussian 16 at Sun Jun 20 18:58:24 2021.

 ----------------------------------------------------------------------
 #P Geom=AllCheck Guess=TCheck SCRF=Check GenChk UB3LYP/Jul-CC-pVDZ Fre
 q
 ----------------------------------------------------------------------

 Structure from the checkpoint file:  "checkpoint.chk"
 -----
 title
 -----
 Charge =  0 Multiplicity = 6

 SCF Done:  E(UB3LYP) =  -3531.44518772     A.U. after    2 cycles

  Exact polarizability: 307.575   9.619 312.584  21.330   6.144 304.340
 Approx polarizability: 474.485  43.511 478.069  38.000   0.561 492.945

 ******    1 imaginary frequencies (negative Signs) ******

                      1                      2                      3
                      A                      A                      A
 Frequencies --     -9.7719                 5.9680                15.3982
 Red. masses --      8.2640                 6.8745                 7.3073
 Frc consts  --      0.0005                 0.0001                 0.0010
 IR Inten    --      0.1703                 0.7805                 0.6562

                      4                      5                      6
                      A                      A                      A
 Frequencies --     34.4564                43.6114                54.5944
 Red. masses --      4.4325                 6.7249                 4.4606
 Frc consts  --      0.0031                 0.0075                 0.0078
 IR Inten    --      0.4792                 1.1939                 0.3878

                      7                      8                      9
                      A                      A                      A
 Frequencies --     62.4913                64.7588                75.9974
 Red. masses --      4.2599                 3.1206                 8.2402
 Frc consts  --      0.0098                 0.0077                 0.0280
 IR Inten    --      1.0923                 1.1930                 0.1972

                     10                     11                     12
                      A                      A                      A
 Frequencies --     80.5605                82.5599                94.1273
 Red. masses --      4.6858                 7.2622                 4.4180
 Frc consts  --      0.0179                 0.0292                 0.0231
 IR Inten    --      1.7449                 0.2934                 3.3640

                     13                     14                     15
                      A                      A                      A
 Frequencies --     99.2398               104.5044               108.6719
 Red. masses --      2.9998                 2.2039                 3.2732
 Frc consts  --      0.0174                 0.0142                 0.0228
 IR Inten    --      0.3317                 0.1150                 0.1725

                     16                     17                     18
                      A                      A                      A
 Frequencies --    117.1900               121.2096               129.4693
 Red. masses --      4.5549                10.5119                 2.5798
 Frc consts  --      0.0369                 0.0910                 0.0255
 IR Inten    --      0.4242                 1.7414                 1.5791

                     19                     20                     21
                      A                      A                      A
 Frequencies --    147.6599               163.6585               189.8974
 Red. masses --      3.4472                 9.5633                 1.7723
 Frc consts  --      0.0443                 0.1509                 0.0377
 IR Inten    --      2.1968                19.1045                 9.0892

                     22                     23                     24
                      A                      A                      A
 Frequencies --    202.2778               206.8241               213.9144
 Red. masses --      2.2007                 2.8878                 2.8456
 Frc consts  --      0.0531                 0.0728                 0.0767
 IR Inten    --      6.5464                 1.0469                 2.9103

                     25                     26                     27
                      A                      A                      A
 Frequencies --    258.6118               264.2710               286.3790
 Red. masses --      1.4920                 3.5095                 4.1557
 Frc consts  --      0.0588                 0.1444                 0.2008
 IR Inten    --      1.7469                46.4812                 4.1036

                     28                     29                     30
                      A                      A                      A
 Frequencies --    298.9825               308.0378               342.0093
 Red. masses --      4.4273                 3.0240                17.0784
 Frc consts  --      0.2332                 0.1691                 1.1770
 IR Inten    --     11.9256                 5.8424                35.8326

                     31                     32                     33
                      A                      A                      A
 Frequencies --    350.2009               376.9600               391.6842
 Red. masses --      6.2006                 3.9214                 3.2065
 Frc consts  --      0.4480                 0.3283                 0.2898
 IR Inten    --     17.5642                 4.7709                17.5707

                     34                     35                     36
                      A                      A                      A
 Frequencies --    396.9087               405.2545               413.6611
 Red. masses --     13.1386                29.4989                 2.9793
 Frc consts  --      1.2195                 2.8544                 0.3004
 IR Inten    --     65.4396                79.2355                 2.4610

                     37                     38                     39
                      A                      A                      A
 Frequencies --    422.7130               451.9901               480.6288
 Red. masses --      3.8068                 2.9550                 2.9862
 Frc consts  --      0.4008                 0.3557                 0.4064
 IR Inten    --     34.0069                 6.4644                 0.8589

                     40                     41                     42
                      A                      A                      A
 Frequencies --    494.7971               515.2691               532.2843
 Red. masses --      2.7231                 2.9951                 4.1213
 Frc consts  --      0.3928                 0.4685                 0.6880
 IR Inten    --     10.9836                 4.7446                24.6146

                     43                     44                     45
                      A                      A                      A
 Frequencies --    588.1158               624.4950               647.7623
 Red. masses --      4.7683                 6.3325                 4.2506
 Frc consts  --      0.9717                 1.4551                 1.0508
 IR Inten    --     67.6246                 5.1556                71.0992

                     46                     47                     48
                      A                      A                      A
 Frequencies --    695.8148               696.6102               753.3367
 Red. masses --      4.4773                 1.7590                 4.2053
 Frc consts  --      1.2772                 0.5029                 1.4061
 IR Inten    --     31.8068                33.9952                 3.6244

                     49                     50                     51
                      A                      A                      A
 Frequencies --    772.3928               800.7706               805.5833
 Red. masses --      2.3209                 2.2923                 1.2145
 Frc consts  --      0.8158                 0.8660                 0.4644
 IR Inten    --     25.5405                 7.2336                 0.7374

                     52                     53                     54
                      A                      A                      A
 Frequencies --    826.0128               849.4981               854.9503
 Red. masses --      4.2458                 1.2517                 1.4721
 Frc consts  --      1.7068                 0.5322                 0.6340
 IR Inten    --     15.5763                 0.4813                10.4036

                     55                     56                     57
                      A                      A                      A
 Frequencies --    866.7519               905.9835               916.1008
 Red. masses --      2.6170                 2.0645                 1.9042
 Frc consts  --      1.1583                 0.9984                 0.9416
 IR Inten    --     34.2991                 5.5526                12.4855

                     58                     59                     60
                      A                      A                      A
 Frequencies --    953.5092               960.5482               972.3624
 Red. masses --      1.4210                 1.4317                 3.1542
 Frc consts  --      0.7612                 0.7783                 1.7571
 IR Inten    --      1.0778                 2.6554                23.7122

                     61                     62                     63
                      A                      A                      A
 Frequencies --    990.5586               993.9556               996.9615
 Red. masses --      2.2748                 1.4197                 1.4391
 Frc consts  --      1.3151                 0.8264                 0.8427
 IR Inten    --     43.0891                11.1472                 6.9898

                     64                     65                     66
                      A                      A                      A
 Frequencies --   1003.7485              1010.6831              1023.0445
 Red. masses --      3.8367                 1.3554                 2.0548
 Frc consts  --      2.2775                 0.8158                 1.2671
 IR Inten    --      0.4952                 0.7102                 1.8835

                     67                     68                     69
                      A                      A                      A
 Frequencies --   1037.3330              1047.7593              1075.8248
 Red. masses --      2.6206                 2.3553                 2.1306
 Frc consts  --      1.6614                 1.5234                 1.4529
 IR Inten    --     45.3843                 3.0745                 1.6062

                     70                     71                     72
                      A                      A                      A
 Frequencies --   1092.1096              1102.2770              1115.6547
 Red. masses --      1.7497                 1.9273                 1.5841
 Frc consts  --      1.2295                 1.3797                 1.1617
 IR Inten    --      0.3509                15.8856                 7.6482

                     73                     74                     75
                      A                      A                      A
 Frequencies --   1133.4166              1140.6886              1165.0625
 Red. masses --      2.1699                 2.2246                 1.7060
 Frc consts  --      1.6423                 1.7054                 1.3643
 IR Inten    --     15.0449                 5.2877                74.8785

                     76                     77                     78
                      A                      A                      A
 Frequencies --   1170.3456              1178.3143              1203.4148
 Red. masses --      1.6142                 1.0876                 1.4482
 Frc consts  --      1.3026                 0.8897                 1.2357
 IR Inten    --     16.0502                 1.3515                41.2279

                     79                     80                     81
                      A                      A                      A
 Frequencies --   1209.3728              1228.9330              1253.4820
 Red. masses --      1.2937                 2.2304                 2.0211
 Frc consts  --      1.1148                 1.9847                 1.8710
 IR Inten    --     36.7096               186.8124                19.5884

                     82                     83                     84
                      A                      A                      A
 Frequencies --   1267.5678              1283.7445              1324.9136
 Red. masses --      2.3207                 1.1156                 1.5846
 Frc consts  --      2.1969                 1.0833                 1.6389
 IR Inten    --    147.0857                 0.6555               116.7157

                     85                     86                     87
                      A                      A                      A
 Frequencies --   1326.9512              1333.5455              1340.5865
 Red. masses --      1.4888                 1.4807                 1.7528
 Frc consts  --      1.5445                 1.5514                 1.8560
 IR Inten    --     30.7194                28.3397                17.8995

                     88                     89                     90
                      A                      A                      A
 Frequencies --   1365.7101              1370.2645              1380.8685
 Red. masses --      2.7297                 1.5424                 1.3406
 Frc consts  --      2.9997                 1.7063                 1.5061
 IR Inten    --      3.1484                10.1583                25.7431

                     91                     92                     93
                      A                      A                      A
 Frequencies --   1382.3196              1404.1382              1407.5799
 Red. masses --      1.3544                 1.3466                 1.3928
 Frc consts  --      1.5248                 1.5643                 1.6259
 IR Inten    --      7.2522                 6.8777                19.5843

                     94                     95                     96
                      A                      A                      A
 Frequencies --   1416.0722              1458.6301              1465.9102
 Red. masses --      1.4000                 1.0616                 2.2688
 Frc consts  --      1.6541                 1.3308                 2.8725
 IR Inten    --     12.7114                 5.6497                42.0577

                     97                     98                     99
                      A                      A                      A
 Frequencies --   1467.5132              1474.2792              1477.7645
 Red. masses --      1.0899                 1.0384                 1.0738
 Frc consts  --      1.3830                 1.3298                 1.3816
 IR Inten    --      7.0363                 5.4645                 3.7388

                    100                    101                    102
                      A                      A                      A
 Frequencies --   1481.4685              1487.4019              1488.2818
 Red. masses --      1.0570                 1.0572                 1.1036
 Frc consts  --      1.3669                 1.3780                 1.4403
 IR Inten    --     22.4507                 4.4379                 6.7564

                    103                    104                    105
                      A                      A                      A
 Frequencies --   1491.2787              1505.5535              1517.9497
 Red. masses --      1.1079                 1.0829                 2.1562
 Frc consts  --      1.4517                 1.4463                 2.9272
 IR Inten    --      4.5009                 6.6007                14.2428

                    106                    107                    108
                      A                      A                      A
 Frequencies --   1542.5295              1620.5911              1640.2113
 Red. masses --      5.9933                 5.5182                 5.6207
 Frc consts  --      8.4020                 8.5388                 8.9093
 IR Inten    --    697.8054                27.3621                34.0022

                    109                    110                    111
                      A                      A                      A
 Frequencies --   1690.5727              1768.7374              3014.9450
 Red. masses --      6.0136                11.5999                 1.0386
 Frc consts  --     10.1264                21.3811                 5.5623
 IR Inten    --    130.8210               220.1683                 9.4299

                    112                    113                    114
                      A                      A                      A
 Frequencies --   3023.9149              3026.6222              3041.7853
 Red. masses --      1.0424                 1.0652                 1.0356
 Frc consts  --      5.6158                 5.7493                 5.6453
 IR Inten    --      9.6402                28.2867                15.9353

                    115                    116                    117
                      A                      A                      A
 Frequencies --   3061.0914              3068.7194              3069.9985
 Red. masses --      1.0583                 1.0635                 1.0980
 Frc consts  --      5.8428                 5.9004                 6.0972
 IR Inten    --     14.6476                24.1171                 0.1997

                    118                    119                    120
                      A                      A                      A
 Frequencies --   3075.5122              3075.6587              3087.3968
 Red. masses --      1.0967                 1.0856                 1.0960
 Frc consts  --      6.1117                 6.0503                 6.1553
 IR Inten    --     18.9832                 2.4035                 5.7942

                    121                    122                    123
                      A                      A                      A
 Frequencies --   3107.7839              3118.4512              3120.4969
 Red. masses --      1.1073                 1.1018                 1.1001
 Frc consts  --      6.3013                 6.3127                 6.3117
 IR Inten    --      7.7008                15.9698                15.3072

                    124                    125                    126
                      A                      A                      A
 Frequencies --   3124.5264              3136.9719              3143.0519
 Red. masses --      1.1010                 1.1052                 1.0889
 Frc consts  --      6.3329                 6.4078                 6.3377
 IR Inten    --      9.0549                15.7845                 7.1674

                    127                    128                    129
                      A                      A                      A
 Frequencies --   3145.6817              3174.9605              3188.2923
 Red. masses --      1.0952                 1.0862                 1.0911
 Frc consts  --      6.3849                 6.4512                 6.5347
 IR Inten    --     28.0000                 0.7910                 6.9830

                    130                    131                    132
                      A                      A                      A
 Frequencies --   3197.1645              3217.9328              3232.1078
 Red. masses --      1.0964                 1.0937                 1.0925
 Frc consts  --      6.6033                 6.6728                 6.7239
 IR Inten    --      9.8254                 3.5401                 3.4303

 - Thermochemistry -
 -------------------
 Temperature   298.150 Kelvin.  Pressure   1.00000 Atm.
 Atom     1 has atomic number  6 and mass  12.00000

 Molecular mass:   434.99839 amu.
 Principal axes and moments of inertia in atomic units:
                           1         2         3
     Eigenvalues --  9916.01558********************
           X            0.99359  -0.11295   0.00484
           Y            0.11280   0.99331   0.02476
           Z           -0.00760  -0.02406   0.99968
 This molecule is an asymmetric top.
 Rotational symmetry number  1.
 Warning -- assumption of classical behavior for rotation
           may cause significant error
 Rotational temperatures (Kelvin)      0.00873     0.00776     0.00646
 Rotational constants (GHZ):           0.18200     0.16163     0.13451
    1 imaginary frequencies ignored.
 Zero-point vibrational energy     943310.6 (Joules/Mol)
                                  225.45666 (Kcal/Mol)
 Warning -- explicit consideration of  42 degrees of freedom as
           vibrations may cause significant error
 Vibrational temperatures:      8.59    22.15    49.58    62.75    78.55
          (Kelvin)             89.91    93.17   109.34   115.91   118.79
                              135.43   142.78   150.36   156.35   168.61
                              174.39   186.28   212.45   235.47   273.22
                              291.03   297.57   307.78   372.08   380.23
                              412.04   430.17   443.20   492.08   503.86
                              542.36   563.55   571.06   583.07   595.17
                              608.19   650.31   691.52   711.90   741.36
                              765.84   846.17   898.51   931.99  1001.12
                             1002.27  1083.88  1111.30  1152.13  1159.05
                             1188.45  1222.24  1230.08  1247.06  1303.51
                             1318.06  1371.89  1382.01  1399.01  1425.19
                             1430.08  1434.41  1444.17  1454.15  1471.93
                             1492.49  1507.49  1547.87  1571.30  1585.93
                             1605.18  1630.73  1641.20  1676.27  1683.87
                             1695.33  1731.45  1740.02  1768.16  1803.48
                             1823.75  1847.02  1906.26  1909.19  1918.67
                             1928.80  1964.95  1971.51  1986.76  1988.85
                             2020.24  2025.19  2037.41  2098.64  2109.12
                             2111.42  2121.16  2126.17  2131.50  2140.04
                             2141.31  2145.62  2166.16  2183.99  2219.36
                             2331.67  2359.90  2432.36  2544.82  4337.83
                             4350.74  4354.63  4376.45  4404.23  4415.20
                             4417.04  4424.98  4425.19  4442.08  4471.41
                             4486.76  4489.70  4495.50  4513.40  4522.15
                             4525.93  4568.06  4587.24  4600.01  4629.89
                             4650.28

 Zero-point correction=                           0.359288 (Hartree/Particle)
 Thermal correction to Energy=                    0.387106
 Thermal correction to Enthalpy=                  0.388050
 Thermal correction to Gibbs Free Energy=         0.294618
 Sum of electronic and zero-point Energies=          -3531.085900
 Sum of electronic and thermal Energies=             -3531.058082
 Sum of electronic and thermal Enthalpies=           -3531.057137
 Sum of electronic and thermal Free Energies=        -3531.150570

                     E (Thermal)             CV                S
                      KCal/Mol        Cal/Mol-Kelvin    Cal/Mol-Kelvin
 Total                  242.913             97.804            196.646
 Electronic               0.000              0.000              3.561
 Translational            0.889              2.981             44.100
 Rotational               0.889              2.981             35.650
 Vibrational            241.135             91.843            113.334
 Vibration     1          0.593              1.987              9.037
 Vibration     2          0.593              1.986              7.154
 Vibration     3          0.594              1.983              5.555
 Vibration     4          0.595              1.980              5.088
 Vibration     5          0.596              1.976              4.644
 Vibration     6          0.597              1.972              4.377
 Vibration     7          0.597              1.971              4.307
 Vibration     8          0.599              1.965              3.992
 Vibration     9          0.600              1.962              3.877
 Vibration    10          0.600              1.961              3.829
 Vibration    11          0.603              1.953              3.572
 Vibration    12          0.604              1.950              3.469
 Vibration    13          0.605              1.946              3.369
 Vibration    14          0.606              1.942              3.292
 Vibration    15          0.608              1.935              3.146
 Vibration    16          0.609              1.932              3.081
 Vibration    17          0.612              1.924              2.954
 Vibration    18          0.617              1.905              2.702
 Vibration    19          0.623              1.887              2.507
 Vibration    20          0.633              1.854              2.229
 Vibration    21          0.639              1.837              2.112
 Vibration    22          0.641              1.830              2.072
 Vibration    23          0.644              1.820              2.010
 Vibration    24          0.667              1.748              1.671
 Vibration    25          0.671              1.738              1.633
 Vibration    26          0.684              1.699              1.495
 Vibration    27          0.692              1.676              1.423
 Vibration    28          0.698              1.658              1.373
 Vibration    29          0.721              1.591              1.203
 Vibration    30          0.727              1.575              1.165
 Vibration    31          0.748              1.519              1.051
 Vibration    32          0.759              1.488              0.994
 Vibration    33          0.763              1.477              0.974
 Vibration    34          0.770              1.459              0.944
 Vibration    35          0.777              1.441              0.914
 Vibration    36          0.785              1.421              0.883
 Vibration    37          0.811              1.356              0.790
 Vibration    38          0.837              1.293              0.708
 Vibration    39          0.850              1.262              0.671
 Vibration    40          0.870              1.216              0.621
 Vibration    41          0.887              1.179              0.582
 Vibration    42          0.945              1.057              0.471

                           ! Non-Optimized Parameters !
 Normal termination of Gaussian 16 at Sun Jun 20 23:02:13 2021.

 ----------------------------------------------------------------------
 #p ub3lyp jul-cc-pvdz pop=cm5 scrf=(pcm,solvent=dichloroethane) guess=
 read geom=allcheck
 ----------------------------------------------------------------------

 Structure from the checkpoint file:  "checkpoint.chk"
 -----
 title
 -----
 Charge =  0 Multiplicity = 6

 SCF Done:  E(UB3LYP) =  -3531.46232671     A.U. after   18 cycles
 Normal termination of Gaussian 16 at Sun Jun 20 23:23:33 2021.
 Gaussian 16:  ES64L-G16RevA.03 25-Dec-2016

 ----------------------------------------------------------------------
 #p ub3lyp jul-cc-pvdz pop=cm5 scrf=(pcm,solvent=water) guess=read geom
 =allcheck
 ----------------------------------------------------------------------

 Structure from the checkpoint file:  "checkpoint.chk"
 -----
 title
 -----
 Charge =  0 Multiplicity = 6

                         Standard orientation:
 ---------------------------------------------------------------------
 Center     Atomic      Atomic             Coordinates (Angstroms)
 Number     Number       Type             X           Y           Z
 ---------------------------------------------------------------------
      1          6           0        2.927878    0.448195    1.076563
      2          6           0        1.692558   -0.206947    0.894594
      3          6           0        1.177072   -0.993772    1.946038
      4          6           0        1.881737   -1.129953    3.138746
      5          6           0        3.108868   -0.477655    3.307580
      6          6           0        3.624821    0.314978    2.276884
      7          6           0        0.885247   -0.049580   -0.338654
      8          6           0        1.278221    0.888542   -1.496827
      9          6           0        2.523567    0.492975   -2.295036
     10          6           0        2.360026   -0.957553   -2.758225
     11          6           0        2.100927   -1.850411   -1.575235
     12          6           0        1.134016   -2.788766   -1.437179
     13          6           0       -0.022747   -2.965187   -2.377020
     14          8           0       -0.320077   -0.411110   -0.327061
     15         26           0       -2.189646   -0.373103    0.285787
     16         17           0       -3.398406    0.250387   -1.441065
     17          6           0        1.125184   -3.712888   -0.251248
     18         17           0       -2.237021    1.041819    1.971548
     19         17           0       -2.599307   -2.450266    0.923579
     20          1           0        0.220040   -1.496798    1.825067
     21          1           0        1.468302   -1.739336    3.942852
     22          1           0        3.658302   -0.580692    4.244702
     23          1           0        4.572076    0.838692    2.409456
     24          1           0        3.337756    1.090430    0.302055
     25          1           0        0.404875    0.842626   -2.160668
     26          6           0        1.342311    2.341617   -0.991417
     27          1           0        2.627220    1.176053   -3.148934
     28          1           0        3.433529    0.608889   -1.694909
     29          1           0        1.549014   -1.022474   -3.495261
     30          1           0        3.279812   -1.283438   -3.269870
     31          1           0        2.902024   -1.857820   -0.831987
     32          1           0        1.955381   -3.513622    0.437257
     33          1           0        0.173124   -3.634944    0.296644
     34          1           0        1.202417   -4.758801   -0.590115
     35          1           0       -0.082458   -4.013133   -2.710105
     36          1           0       -0.966844   -2.755914   -1.848814
     37          1           0        0.024583   -2.324809   -3.263468
     38          8           0        0.117626    2.794535   -0.709224
     39          8           0        2.363675    2.987527   -0.889669
     40          6           0        0.019238    4.163354   -0.208460
     41          6           0       -1.451517    4.493026   -0.066273
     42          1           0        0.553688    4.207650    0.750184
     43          1           0        0.534759    4.821897   -0.919695
     44          1           0       -1.553851    5.516807    0.321693
     45          1           0       -1.962918    4.437073   -1.036877
     46          1           0       -1.943771    3.801902    0.629924
 ---------------------------------------------------------------------

 SCF Done:  E(UB3LYP) =  -3531.46538332     A.U. after   15 cycles

 The electronic state is 6-A.
 Alpha  occ. eigenvalues -- -256.21694-101.52946-101.52833-101.52776 -30.21083
 Alpha  occ. eigenvalues --  -26.06539 -26.06232 -26.06175 -19.21074 -19.19694
 Alpha  occ. eigenvalues --  -19.16159 -10.34108 -10.33549 -10.25198 -10.23255
 Alpha  occ. eigenvalues --  -10.22825 -10.21809 -10.21731 -10.21691 -10.21679
 Alpha  occ. eigenvalues --  -10.21128 -10.21111 -10.20296 -10.19623 -10.19261
 Alpha  occ. eigenvalues --  -10.18715 -10.18705 -10.18638  -9.44665  -9.44552
 Alpha  occ. eigenvalues --   -9.44511  -7.20534  -7.20424  -7.20380  -7.20228
 Alpha  occ. eigenvalues --   -7.20202  -7.20103  -7.20092  -7.20057  -7.20055
 Alpha  occ. eigenvalues --   -3.68737  -2.46508  -2.45912  -2.45809  -1.13009
 Alpha  occ. eigenvalues --   -1.09980  -1.04525  -0.88537  -0.85252  -0.82508
 Alpha  occ. eigenvalues --   -0.80892  -0.80156  -0.80076  -0.78908  -0.78751
 Alpha  occ. eigenvalues --   -0.77175  -0.75053  -0.70252  -0.69684  -0.67317
 Alpha  occ. eigenvalues --   -0.64689  -0.62898  -0.62020  -0.60028  -0.57831
 Alpha  occ. eigenvalues --   -0.56479  -0.53980  -0.53153  -0.52023  -0.50739
 Alpha  occ. eigenvalues --   -0.50127  -0.49410  -0.49070  -0.48816  -0.48657
 Alpha  occ. eigenvalues --   -0.48399  -0.47439  -0.47004  -0.46920  -0.45824
 Alpha  occ. eigenvalues --   -0.45408  -0.44999  -0.44189  -0.43275  -0.42979
 Alpha  occ. eigenvalues --   -0.42533  -0.41365  -0.40282  -0.40019  -0.39454
 Alpha  occ. eigenvalues --   -0.38884  -0.38373  -0.38072  -0.37827  -0.37685
 Alpha  occ. eigenvalues --   -0.37183  -0.36989  -0.36624  -0.36324  -0.35393
 Alpha  occ. eigenvalues --   -0.35000  -0.34678  -0.33758  -0.32538  -0.32215
 Alpha  occ. eigenvalues --   -0.31776  -0.31683  -0.31486  -0.31328  -0.30436
 Alpha  occ. eigenvalues --   -0.30250  -0.29811  -0.28678  -0.27824  -0.25154
 Alpha virt. eigenvalues --   -0.11125  -0.03568  -0.02303  -0.01774  -0.00999
 Alpha virt. eigenvalues --   -0.00149  -0.00023   0.00095   0.01064   0.01510
 Alpha virt. eigenvalues --    0.01729   0.01927   0.02375   0.02460   0.03201

  Beta  occ. eigenvalues -- -256.21509-101.52747-101.52641-101.52584 -30.12138
  Beta  occ. eigenvalues --  -25.98937 -25.98841 -25.98802 -19.21073 -19.19320
  Beta  occ. eigenvalues --  -19.16156 -10.34106 -10.33523 -10.25198 -10.23240
  Beta  occ. eigenvalues --  -10.22811 -10.21807 -10.21727 -10.21691 -10.21659
  Beta  occ. eigenvalues --  -10.21128 -10.21112 -10.20294 -10.19623 -10.19249
  Beta  occ. eigenvalues --  -10.18716 -10.18704 -10.18639  -9.44470  -9.44363
  Beta  occ. eigenvalues --   -9.44323  -7.20217  -7.20106  -7.20069  -7.19948
  Beta  occ. eigenvalues --   -7.19935  -7.19843  -7.19834  -7.19797  -7.19793
  Beta  occ. eigenvalues --   -3.47878  -2.24181  -2.24077  -2.24026  -1.13000
  Beta  occ. eigenvalues --   -1.09268  -1.04520  -0.88503  -0.85202  -0.82455
  Beta  occ. eigenvalues --   -0.79633  -0.78889  -0.78795  -0.78743  -0.78703
  Beta  occ. eigenvalues --   -0.77169  -0.75017  -0.70239  -0.69570  -0.67181
  Beta  occ. eigenvalues --   -0.64650  -0.62874  -0.61773  -0.59623  -0.57633
  Beta  occ. eigenvalues --   -0.55845  -0.53732  -0.52830  -0.51920  -0.50522
  Beta  occ. eigenvalues --   -0.49838  -0.49148  -0.47471  -0.47108  -0.46401
  Beta  occ. eigenvalues --   -0.45474  -0.45157  -0.44186  -0.43295  -0.42982
  Beta  occ. eigenvalues --   -0.42558  -0.41390  -0.40266  -0.40006  -0.39440
  Beta  occ. eigenvalues --   -0.38840  -0.38611  -0.38264  -0.37956  -0.37684
  Beta  occ. eigenvalues --   -0.37191  -0.37006  -0.36553  -0.36542  -0.36478
  Beta  occ. eigenvalues --   -0.36308  -0.35314  -0.33974  -0.33753  -0.33667
  Beta  occ. eigenvalues --   -0.32995  -0.32913  -0.32355  -0.31732  -0.30728
  Beta  occ. eigenvalues --   -0.30097  -0.29836  -0.28738  -0.27822  -0.25035
  Beta virt. eigenvalues --   -0.15840  -0.15245  -0.14222  -0.13904  -0.13820
  Beta virt. eigenvalues --   -0.10233  -0.03548  -0.02265  -0.01661  -0.00920
  Beta virt. eigenvalues --   -0.00108   0.00006   0.00132   0.01187   0.01533

 Mulliken charges and spin densities:
               1          2
     1  C    0.051862   0.002470
     2  C    2.995700   0.001120
     3  C   -0.683540  -0.010427
     4  C    0.053466   0.002671
     5  C    0.267307   0.004571
     6  C   -0.144960   0.000383
     7  C   -1.923483  -0.016548
     8  C    0.463459   0.017736
     9  C    0.514064   0.001803
    10  C    0.690758  -0.000016
    11  C    0.242801   0.004416
    12  C   -0.053911   0.017959
    13  C    0.080024  -0.002114
    14  O   -0.311254   0.109468
    15  Fe   0.728156   4.072228
    16  Cl  -0.484333   0.261583
    17  C    0.181170  -0.001367
    18  Cl  -0.445559   0.265223
    19  Cl  -0.466018   0.260352
    20  H   -0.272709   0.000477
    21  H   -0.157979   0.000020
    22  H   -0.149328  -0.000050
    23  H   -0.155703   0.000121
    24  H   -0.189573  -0.000084
    25  H   -0.161135  -0.000634
    26  C    0.720353   0.002188
    27  H   -0.136271   0.000582
    28  H   -0.026179   0.000022
    29  H   -0.093869   0.000062
    30  H   -0.117727   0.000676
    31  H   -0.274251  -0.000433
    32  H   -0.008989   0.000082
    33  H    0.048174   0.000824
    34  H   -0.016025   0.000799
    35  H   -0.008282   0.000750
    36  H    0.030217   0.001390
    37  H   -0.006847   0.000016
    38  O   -0.663487   0.001285
    39  O   -0.562810   0.001441
    40  C    0.424370  -0.000330
    41  C    0.036893  -0.000366
    42  H   -0.030853   0.000041
    43  H   -0.034910   0.000008
    44  H   -0.004209   0.000029
    45  H    0.026751   0.000036
    46  H    0.028667  -0.000465
 Sum of Mulliken charges =  -0.00000   5.00000

 Dipole moment (field-independent basis, Debye):
    X=             10.2541    Y=             -0.5784    Z=             -1.3644  Tot=             10.3607
 Quadrupole moment (field-independent basis, Debye-Ang):
   XX=           -191.1901   YY=           -167.5715   ZZ=           -164.9918
   XY=            -12.3860   XZ=              6.8969   YZ=              1.7746

 Normal termination of Gaussian 16 at Sun Jun 20 23:41:19 2021.
