 Gaussian 16, Revision A.03,

 -----------------------------------------------------------
 #p opt=modredundant freq=noraman ub3lyp jul-cc-pvdz pop=cm5
 -----------------------------------------------------------

 -----
 title
 -----
 Symbolic Z-matrix:
 Charge =  0 Multiplicity = 6

 SCF Done:  E(UB3LYP) =  -3531.42040795     A.U. after   26 cycles
 SCF Done:  E(UB3LYP) =  -3531.41866087     A.U. after   18 cycles
 SCF Done:  E(UB3LYP) =  -3531.41822361     A.U. after   18 cycles
 SCF Done:  E(UB3LYP) =  -3531.41748850     A.U. after   20 cycles
 SCF Done:  E(UB3LYP) =  -3531.42055479     A.U. after   13 cycles
 SCF Done:  E(UB3LYP) =  -3531.42049837     A.U. after   17 cycles
 SCF Done:  E(UB3LYP) =  -3531.42072885     A.U. after   17 cycles
 SCF Done:  E(UB3LYP) =  -3531.42089803     A.U. after   18 cycles
 SCF Done:  E(UB3LYP) =  -3531.42104184     A.U. after   15 cycles
 SCF Done:  E(UB3LYP) =  -3531.42105600     A.U. after   15 cycles
 SCF Done:  E(UB3LYP) =  -3531.42109165     A.U. after    9 cycles
 SCF Done:  E(UB3LYP) =  -3531.42109172     A.U. after   10 cycles
 SCF Done:  E(UB3LYP) =  -3531.42109191     A.U. after    9 cycles
 SCF Done:  E(UB3LYP) =  -3531.42109218     A.U. after   10 cycles
 SCF Done:  E(UB3LYP) =  -3531.42109245     A.U. after   10 cycles
 SCF Done:  E(UB3LYP) =  -3531.42109264     A.U. after    9 cycles
 SCF Done:  E(UB3LYP) =  -3531.42109283     A.U. after   10 cycles
 Optimization completed.
    -- Stationary point found.
 Normal termination of Gaussian 16 at Sun Jun 20 07:50:21 2021.

 ----------------------------------------------------------------------
 #P Geom=AllCheck Guess=TCheck SCRF=Check GenChk UB3LYP/Jul-CC-pVDZ Fre
 q
 ----------------------------------------------------------------------

 Structure from the checkpoint file:  "checkpoint.chk"
 -----
 title
 -----
 Charge =  0 Multiplicity = 6

 SCF Done:  E(UB3LYP) =  -3531.42109283     A.U. after    1 cycles

  Exact polarizability: 317.253  13.583 301.386  12.892  11.087 300.421
 Approx polarizability: 490.615  44.124 460.587  12.271  14.906 499.731

 ******    1 imaginary frequencies (negative Signs) ******

                      1                      2                      3
                      A                      A                      A
 Frequencies --    -24.0901                18.8322                25.1312
 Red. masses --      6.1192                 5.1236                 5.9520
 Frc consts  --      0.0021                 0.0011                 0.0022
 IR Inten    --      0.8331                 0.3629                 0.4211

                      4                      5                      6
                      A                      A                      A
 Frequencies --     30.1690                42.7214                49.2665
 Red. masses --      7.9455                 3.9488                 4.8894
 Frc consts  --      0.0043                 0.0042                 0.0070
 IR Inten    --      0.1529                14.7238                 1.8972

                      7                      8                      9
                      A                      A                      A
 Frequencies --     59.7318                65.7968                80.5072
 Red. masses --      4.8898                 3.6545                 9.7729
 Frc consts  --      0.0103                 0.0093                 0.0373
 IR Inten    --      0.7486                 3.8150                 5.1363

                     10                     11                     12
                      A                      A                      A
 Frequencies --     88.8653                91.2101                98.3060
 Red. masses --      6.8800                 7.7780                 3.7801
 Frc consts  --      0.0320                 0.0381                 0.0215
 IR Inten    --      5.2262                 7.0106                 7.6508

                     13                     14                     15
                      A                      A                      A
 Frequencies --    103.9186               114.8255               126.3888
 Red. masses --      7.8131                 8.9400                 9.4334
 Frc consts  --      0.0497                 0.0694                 0.0888
 IR Inten    --      3.0475                18.9725                 2.8704

                     16                     17                     18
                      A                      A                      A
 Frequencies --    128.4374               143.0940               150.7822
 Red. masses --      3.6645                 1.7637                 3.7204
 Frc consts  --      0.0356                 0.0213                 0.0498
 IR Inten    --     60.3366                 0.4682                23.3205

                     19                     20                     21
                      A                      A                      A
 Frequencies --    160.5880               176.2854               185.7500
 Red. masses --      2.4206                 2.1655                 1.5044
 Frc consts  --      0.0368                 0.0396                 0.0306
 IR Inten    --      3.3448                 5.4378                 2.1904

                     22                     23                     24
                      A                      A                      A
 Frequencies --    198.4934               206.4561               234.3076
 Red. masses --      2.6459                 2.4559                 3.7843
 Frc consts  --      0.0614                 0.0617                 0.1224
 IR Inten    --      0.4327                 7.3138                16.0141

                     25                     26                     27
                      A                      A                      A
 Frequencies --    239.1420               259.5188               292.0355
 Red. masses --      4.0767                 1.7738                 3.9527
 Frc consts  --      0.1374                 0.0704                 0.1986
 IR Inten    --     77.6000                 3.1986                 3.5209

                     28                     29                     30
                      A                      A                      A
 Frequencies --    317.8632               329.7493               349.3563
 Red. masses --      2.2374                10.4247                 8.0082
 Frc consts  --      0.1332                 0.6679                 0.5759
 IR Inten    --      0.6253                 8.6021                16.6425

                     31                     32                     33
                      A                      A                      A
 Frequencies --    357.4974               373.2974               388.4608
 Red. masses --      8.9926                 3.9735                32.0006
 Frc consts  --      0.6771                 0.3262                 2.8451
 IR Inten    --     36.4122                12.7403                87.6966

                     34                     35                     36
                      A                      A                      A
 Frequencies --    395.3187               401.1926               411.0865
 Red. masses --     22.0039                 2.7541                 2.8609
 Frc consts  --      2.0260                 0.2612                 0.2849
 IR Inten    --     72.4654                12.8592                 0.4789

                     37                     38                     39
                      A                      A                      A
 Frequencies --    428.0475               454.4962               480.0546
 Red. masses --      3.6265                 4.0517                 2.8978
 Frc consts  --      0.3915                 0.4931                 0.3935
 IR Inten    --     38.0174                 0.8200                12.2045

                     40                     41                     42
                      A                      A                      A
 Frequencies --    509.0237               525.5519               555.5287
 Red. masses --      2.9470                 3.1921                 3.0390
 Frc consts  --      0.4499                 0.5195                 0.5526
 IR Inten    --      8.5248                 5.3017                32.8084

                     43                     44                     45
                      A                      A                      A
 Frequencies --    601.9545               624.7320               639.9797
 Red. masses --      4.4807                 5.9847                 4.0587
 Frc consts  --      0.9566                 1.3762                 0.9794
 IR Inten    --     64.8259                18.3961                97.3623

                     46                     47                     48
                      A                      A                      A
 Frequencies --    692.8771               703.2466               755.4129
 Red. masses --      1.6186                 6.2312                 4.6025
 Frc consts  --      0.4578                 1.8157                 1.5474
 IR Inten    --     55.6414                20.3045                 5.5066

                     49                     50                     51
                      A                      A                      A
 Frequencies --    765.7812               794.4575               802.8199
 Red. masses --      2.3614                 2.3197                 1.4179
 Frc consts  --      0.8159                 0.8626                 0.5384
 IR Inten    --     16.2315                17.8024                 3.0226

                     52                     53                     54
                      A                      A                      A
 Frequencies --    819.3193               841.4335               862.1754
 Red. masses --      2.7188                 1.2595                 2.0257
 Frc consts  --      1.0753                 0.5254                 0.8872
 IR Inten    --     21.7254                 1.2072                 5.6639

                     55                     56                     57
                      A                      A                      A
 Frequencies --    868.4720               895.2957               922.9334
 Red. masses --      1.8375                 1.8058                 1.9520
 Frc consts  --      0.8166                 0.8528                 0.9797
 IR Inten    --     40.6148                 4.5964                15.4366

                     58                     59                     60
                      A                      A                      A
 Frequencies --    940.9347               956.4815               964.4327
 Red. masses --      1.4172                 1.3017                 3.2135
 Frc consts  --      0.7392                 0.7016                 1.7611
 IR Inten    --      0.5469                18.2224                30.4477

                     61                     62                     63
                      A                      A                      A
 Frequencies --    985.3415               988.9090               994.4419
 Red. masses --      1.9103                 1.8882                 1.3225
 Frc consts  --      1.0928                 1.0880                 0.7705
 IR Inten    --     16.3514                20.1720                 6.6524

                     64                     65                     66
                      A                      A                      A
 Frequencies --   1002.3523              1006.6168              1008.2832
 Red. masses --      2.3079                 2.0423                 1.8931
 Frc consts  --      1.3662                 1.2193                 1.1339
 IR Inten    --      0.8462                 6.7310                 1.3228

                     67                     68                     69
                      A                      A                      A
 Frequencies --   1036.7108              1047.2426              1069.0598
 Red. masses --      2.7126                 2.4384                 2.3314
 Frc consts  --      1.7177                 1.5756                 1.5699
 IR Inten    --     39.7032                 3.9204                 4.0988

                     70                     71                     72
                      A                      A                      A
 Frequencies --   1083.2638              1096.4095              1112.1011
 Red. masses --      1.8142                 1.8005                 1.5675
 Frc consts  --      1.2543                 1.2752                 1.1422
 IR Inten    --     19.0474                11.5068                 9.7711

                     73                     74                     75
                      A                      A                      A
 Frequencies --   1132.4631              1136.7197              1161.5550
 Red. masses --      2.1363                 2.3061                 1.7022
 Frc consts  --      1.6142                 1.7557                 1.3531
 IR Inten    --     12.4544                 6.6660                62.3989

                     76                     77                     78
                      A                      A                      A
 Frequencies --   1170.5634              1176.5750              1196.9692
 Red. masses --      1.5678                 1.0883                 1.5353
 Frc consts  --      1.2657                 0.8876                 1.2960
 IR Inten    --      4.4061                 1.2434                48.1188

                     79                     80                     81
                      A                      A                      A
 Frequencies --   1205.5502              1222.2090              1244.8325
 Red. masses --      1.2588                 2.4017                 2.4543
 Frc consts  --      1.0779                 2.1138                 2.2408
 IR Inten    --     27.8211               118.0037                89.2360

                     82                     83                     84
                      A                      A                      A
 Frequencies --   1256.2085              1285.8057              1311.1571
 Red. masses --      1.9592                 1.1133                 1.6826
 Frc consts  --      1.8216                 1.0845                 1.7043
 IR Inten    --     32.3883                 2.0930               218.6863

                     85                     86                     87
                      A                      A                      A
 Frequencies --   1322.4604              1328.3181              1334.7063
 Red. masses --      1.4464                 1.5224                 1.6848
 Frc consts  --      1.4904                 1.5826                 1.7683
 IR Inten    --     42.3546                67.4711                27.4182

                     88                     89                     90
                      A                      A                      A
 Frequencies --   1361.2376              1362.9481              1368.1947
 Red. masses --      2.1494                 1.9905                 1.3597
 Frc consts  --      2.3466                 2.1785                 1.4996
 IR Inten    --      6.5333                22.5563                35.2177

                     91                     92                     93
                      A                      A                      A
 Frequencies --   1383.2012              1391.3835              1405.2396
 Red. masses --      1.4143                 1.3228                 1.4861
 Frc consts  --      1.5943                 1.5089                 1.7290
 IR Inten    --     35.7726                54.9686                31.9270

                     94                     95                     96
                      A                      A                      A
 Frequencies --   1414.4823              1419.8590              1453.9614
 Red. masses --      1.5407                 2.0580                 1.0775
 Frc consts  --      1.8162                 2.4444                 1.3420
 IR Inten    --    142.1202               249.2761                14.9732

                     97                     98                     99
                      A                      A                      A
 Frequencies --   1467.4707              1469.9918              1473.2927
 Red. masses --      1.0882                 1.1030                 1.0447
 Frc consts  --      1.3807                 1.4043                 1.3360
 IR Inten    --      1.9149                 5.3583                 7.7027

                    100                    101                    102
                      A                      A                      A
 Frequencies --   1474.9854              1481.5285              1487.9957
 Red. masses --      1.9750                 1.1716                 1.0546
 Frc consts  --      2.5316                 1.5152                 1.3758
 IR Inten    --     70.6461                48.2643                 2.0014

                    103                    104                    105
                      A                      A                      A
 Frequencies --   1497.7158              1504.1394              1506.1164
 Red. masses --      1.1584                 1.1147                 1.0841
 Frc consts  --      1.5310                 1.4859                 1.4489
 IR Inten    --      9.1418                17.6180                 7.2836

                    106                    107                    108
                      A                      A                      A
 Frequencies --   1517.0491              1618.3149              1639.3787
 Red. masses --      1.8946                 5.5092                 5.6455
 Frc consts  --      2.5690                 8.5008                 8.9394
 IR Inten    --      3.5568                 4.4937                32.4123

                    109                    110                    111
                      A                      A                      A
 Frequencies --   1655.3154              1766.4671              3015.5215
 Red. masses --      5.5727                11.4885                 1.0501
 Frc consts  --      8.9966                21.1215                 5.6259
 IR Inten    --    142.5687               230.7343                 1.8407

                    112                    113                    114
                      A                      A                      A
 Frequencies --   3025.5794              3041.7566              3046.0946
 Red. masses --      1.0415                 1.0360                 1.0650
 Frc consts  --      5.6172                 5.6474                 5.8224
 IR Inten    --      5.7698                19.5866                24.0629

                    115                    116                    117
                      A                      A                      A
 Frequencies --   3061.4667              3069.5561              3078.8954
 Red. masses --      1.0591                 1.0641                 1.0857
 Frc consts  --      5.8486                 5.9071                 6.0641
 IR Inten    --     14.1474                27.5091                 0.6343

                    118                    119                    120
                      A                      A                      A
 Frequencies --   3083.9644              3098.1986              3108.2550
 Red. masses --      1.0942                 1.0980                 1.0837
 Frc consts  --      6.1316                 6.2097                 6.1684
 IR Inten    --      2.7263                 3.8644                 0.4796

                    121                    122                    123
                      A                      A                      A
 Frequencies --   3109.9211              3117.8878              3123.4290
 Red. masses --      1.1055                 1.1026                 1.0999
 Frc consts  --      6.2992                 6.3151                 6.3221
 IR Inten    --      9.9941                15.8256                16.2416

                    124                    125                    126
                      A                      A                      A
 Frequencies --   3140.4660              3142.0738              3162.2605
 Red. masses --      1.1045                 1.1024                 1.1021
 Frc consts  --      6.4182                 6.4126                 6.4932
 IR Inten    --     13.3538                 7.3193                 4.4134

                    127                    128                    129
                      A                      A                      A
 Frequencies --   3170.2104              3173.8866              3186.8220
 Red. masses --      1.0882                 1.0861                 1.0912
 Frc consts  --      6.4434                 6.4459                 6.5294
 IR Inten    --     10.2750                 0.5295                 7.0416

                    130                    131                    132
                      A                      A                      A
 Frequencies --   3196.4157              3228.7491              3238.5894
 Red. masses --      1.0970                 1.0923                 1.0913
 Frc consts  --      6.6035                 6.7088                 6.7439
 IR Inten    --     13.4762                 1.7647                 1.2401

 - Thermochemistry -
 -------------------
 Temperature   298.150 Kelvin.  Pressure   1.00000 Atm.
 Atom     1 has atomic number  6 and mass  12.00000

 Molecular mass:   434.99839 amu.
 Principal axes and moments of inertia in atomic units:
                           1         2         3
     Eigenvalues --  9151.67430********************
           X            0.99882  -0.04647   0.01427
           Y            0.04606   0.99855   0.02797
           Z           -0.01554  -0.02728   0.99951
 This molecule is an asymmetric top.
 Rotational symmetry number  1.
 Warning -- assumption of classical behavior for rotation
           may cause significant error
 Rotational temperatures (Kelvin)      0.00946     0.00790     0.00677
 Rotational constants (GHZ):           0.19720     0.16451     0.14114
    1 imaginary frequencies ignored.
 Zero-point vibrational energy     943595.9 (Joules/Mol)
                                  225.52484 (Kcal/Mol)
 Warning -- explicit consideration of  42 degrees of freedom as
           vibrations may cause significant error
 Vibrational temperatures:     27.10    36.16    43.41    61.47    70.88
          (Kelvin)             85.94    94.67   115.83   127.86   131.23
                              141.44   149.52   165.21   181.85   184.79
                              205.88   216.94   231.05   253.64   267.25
                              285.59   297.04   337.12   344.07   373.39
                              420.17   457.33   474.44   502.65   514.36
                              537.09   558.91   568.78   577.23   591.46
                              615.86   653.92   690.69   732.37   756.15
                              799.28   866.08   898.85   920.79   996.90
                             1011.82  1086.87  1101.79  1143.05  1155.08
                             1178.82  1210.64  1240.48  1249.54  1288.13
                             1327.90  1353.80  1376.16  1387.60  1417.69
                             1422.82  1430.78  1442.16  1448.30  1450.69
                             1491.60  1506.75  1538.14  1558.58  1577.49
                             1600.07  1629.36  1635.49  1671.22  1684.18
                             1692.83  1722.17  1734.52  1758.49  1791.04
                             1807.40  1849.99  1886.46  1902.73  1911.15
                             1920.34  1958.52  1960.98  1968.53  1990.12
                             2001.89  2021.83  2035.12  2042.86  2091.93
                             2111.36  2114.99  2119.74  2122.18  2131.59
                             2140.89  2154.88  2164.12  2166.97  2182.70
                             2328.39  2358.70  2381.63  2541.55  4338.66
                             4353.13  4376.41  4382.65  4404.77  4416.41
                             4429.84  4437.14  4457.62  4472.09  4474.48
                             4485.95  4493.92  4518.43  4520.74  4549.79
                             4561.23  4566.51  4585.13  4598.93  4645.45
                             4659.61

 Zero-point correction=                           0.359397 (Hartree/Particle)
 Thermal correction to Energy=                    0.386878
 Thermal correction to Enthalpy=                  0.387822
 Thermal correction to Gibbs Free Energy=         0.296919
 Sum of electronic and zero-point Energies=          -3531.061696
 Sum of electronic and thermal Energies=             -3531.034215
 Sum of electronic and thermal Enthalpies=           -3531.033270
 Sum of electronic and thermal Free Energies=        -3531.124174

                     E (Thermal)             CV                S
                      KCal/Mol        Cal/Mol-Kelvin    Cal/Mol-Kelvin
 Total                  242.770             97.689            191.322
 Electronic               0.000              0.000              3.561
 Translational            0.889              2.981             44.100
 Rotational               0.889              2.981             35.505
 Vibrational            240.992             91.727            108.156
 Vibration     1          0.593              1.986              6.754
 Vibration     2          0.593              1.985              6.181
 Vibration     3          0.594              1.984              5.818
 Vibration     4          0.595              1.980              5.129
 Vibration     5          0.595              1.978              4.847
 Vibration     6          0.597              1.974              4.466
 Vibration     7          0.597              1.971              4.275
 Vibration     8          0.600              1.962              3.878
 Vibration     9          0.602              1.957              3.685
 Vibration    10          0.602              1.955              3.634
 Vibration    11          0.604              1.950              3.488
 Vibration    12          0.605              1.946              3.379
 Vibration    13          0.608              1.937              3.186
 Vibration    14          0.611              1.927              3.000
 Vibration    15          0.611              1.925              2.969
 Vibration    16          0.616              1.910              2.762
 Vibration    17          0.618              1.902              2.662
 Vibration    18          0.622              1.891              2.543
 Vibration    19          0.628              1.872              2.367
 Vibration    20          0.632              1.859              2.270
 Vibration    21          0.637              1.842              2.147
 Vibration    22          0.641              1.831              2.075
 Vibration    23          0.654              1.788              1.846
 Vibration    24          0.657              1.781              1.809
 Vibration    25          0.668              1.747              1.665
 Vibration    26          0.687              1.689              1.462
 Vibration    27          0.704              1.639              1.321
 Vibration    28          0.713              1.616              1.261
 Vibration    29          0.727              1.577              1.169
 Vibration    30          0.733              1.560              1.133
 Vibration    31          0.745              1.527              1.066
 Vibration    32          0.757              1.495              1.006
 Vibration    33          0.762              1.480              0.980
 Vibration    34          0.767              1.468              0.958
 Vibration    35          0.775              1.446              0.923
 Vibration    36          0.790              1.409              0.865
 Vibration    37          0.813              1.351              0.782
 Vibration    38          0.836              1.294              0.710
 Vibration    39          0.864              1.230              0.636
 Vibration    40          0.881              1.193              0.597
 Vibration    41          0.911              1.128              0.533
 Vibration    42          0.960              1.028              0.446

                           ! Non-Optimized Parameters !
 Normal termination of Gaussian 16 at Sun Jun 20 12:48:49 2021.

 ----------------------------------------------------------------------
 #p ub3lyp jul-cc-pvdz pop=cm5 scrf=(pcm,solvent=dichloroethane) guess=
 read geom=allcheck
 ----------------------------------------------------------------------

 Structure from the checkpoint file:  "checkpoint.chk"
 -----
 title
 -----
 Charge =  0 Multiplicity = 6

 SCF Done:  E(UB3LYP) =  -3531.44055405     A.U. after   18 cycles
 Normal termination of Gaussian 16 at Sun Jun 20 13:20:08 2021.
 Gaussian 16:  ES64L-G16RevA.03 25-Dec-2016

 ----------------------------------------------------------------------
 #p ub3lyp jul-cc-pvdz pop=cm5 scrf=(pcm,solvent=water) guess=read geom
 =allcheck
 ----------------------------------------------------------------------

 Structure from the checkpoint file:  "checkpoint.chk"
 -----
 title
 -----
 Charge =  0 Multiplicity = 6

                         Standard orientation:
 ---------------------------------------------------------------------
 Center     Atomic      Atomic             Coordinates (Angstroms)
 Number     Number       Type             X           Y           Z
 ---------------------------------------------------------------------
      1          6           0        3.236101    0.003426    0.494616
      2          6           0        1.897485   -0.381008    0.711841
      3          6           0        1.490371   -0.698713    2.022694
      4          6           0        2.396788   -0.645395    3.081546
      5          6           0        3.724528   -0.274965    2.850757
      6          6           0        4.138832    0.054044    1.554279
      7          6           0        0.874252   -0.416772   -0.377685
      8          6           0        0.975316    0.529352   -1.609219
      9          6           0        1.945514    0.058828   -2.699349
     10          6           0        1.709168   -1.443183   -2.913394
     11          6           0        1.636935   -2.105282   -1.563959
     12          6           0        0.564233   -2.773476   -1.045624
     13          6           0       -0.754672   -2.895960   -1.741671
     14          8           0       -0.309934   -0.780682   -0.033398
     15         26           0       -2.100411   -0.172057    0.412882
     16         17           0       -3.000614    0.613901   -1.449258
     17          6           0        0.684822   -3.533087    0.235842
     18         17           0       -1.930609    1.300454    2.050036
     19         17           0       -3.103928   -2.015578    1.131349
     20          1           0        0.451607   -0.957944    2.211041
     21          1           0        2.059750   -0.883561    4.090910
     22          1           0        4.433615   -0.231043    3.678966
     23          1           0        5.169174    0.359617    1.369152
     24          1           0        3.579094    0.281740   -0.497394
     25          1           0       -0.045786    0.539015   -2.011104
     26          6           0        1.286890    1.967038   -1.163784
     27          1           0        1.768998    0.632920   -3.619003
     28          1           0        2.982294    0.258480   -2.405470
     29          1           0        0.785879   -1.601625   -3.483872
     30          1           0        2.528566   -1.879093   -3.503856
     31          1           0        2.587309   -2.214210   -1.041115
     32          1           0        1.679364   -3.451431    0.687611
     33          1           0       -0.081502   -3.200975    0.951157
     34          1           0        0.476973   -4.596898    0.035614
     35          1           0       -0.740277   -3.837605   -2.317879
     36          1           0       -1.577996   -2.969671   -1.022044
     37          1           0       -0.965792   -2.081734   -2.440598
     38          8           0        0.187967    2.565324   -0.696970
     39          8           0        2.378784    2.488583   -1.252407
     40          6           0        0.330219    3.944761   -0.238538
     41          6           0       -1.059911    4.514538   -0.049635
     42          1           0        0.904323    3.923867    0.698004
     43          1           0        0.914379    4.493167   -0.988271
     44          1           0       -0.976101    5.550746    0.309159
     45          1           0       -1.614080    4.518862   -0.998153
     46          1           0       -1.627312    3.930987    0.685947
 ---------------------------------------------------------------------

 SCF Done:  E(UB3LYP) =  -3531.44426462     A.U. after   17 cycles

 The electronic state is 6-A.
 Alpha  occ. eigenvalues -- -256.20805-101.52279-101.52266-101.52225 -30.20197
 Alpha  occ. eigenvalues --  -26.05558 -26.05413 -26.05315 -19.20749 -19.17604
 Alpha  occ. eigenvalues --  -19.15715 -10.33624 -10.33084 -10.24967 -10.24696
 Alpha  occ. eigenvalues --  -10.22908 -10.22299 -10.21287 -10.21235 -10.21168
 Alpha  occ. eigenvalues --  -10.20785 -10.20725 -10.20713 -10.20378 -10.20028
 Alpha  occ. eigenvalues --  -10.19517 -10.19422 -10.18540  -9.43997  -9.43991
 Alpha  occ. eigenvalues --   -9.43946  -7.19863  -7.19859  -7.19816  -7.19544
 Alpha  occ. eigenvalues --   -7.19540  -7.19540  -7.19531  -7.19490  -7.19485
 Alpha  occ. eigenvalues --   -3.67881  -2.45474  -2.45189  -2.45006  -1.12633
 Alpha  occ. eigenvalues --   -1.08123  -1.04127  -0.88122  -0.86239  -0.83305
 Alpha  occ. eigenvalues --   -0.80290  -0.79554  -0.79505  -0.78752  -0.78465
 Alpha  occ. eigenvalues --   -0.76733  -0.75068  -0.71516  -0.70604  -0.66835
 Alpha  occ. eigenvalues --   -0.64662  -0.62528  -0.61774  -0.59715  -0.57550
 Alpha  occ. eigenvalues --   -0.55986  -0.54096  -0.53235  -0.51711  -0.50537
 Alpha  occ. eigenvalues --   -0.49892  -0.49252  -0.49048  -0.48261  -0.48031
 Alpha  occ. eigenvalues --   -0.47825  -0.47611  -0.47072  -0.46855  -0.45996
 Alpha  occ. eigenvalues --   -0.45333  -0.44946  -0.43775  -0.43085  -0.42815
 Alpha  occ. eigenvalues --   -0.42382  -0.40900  -0.40547  -0.40202  -0.40041
 Alpha  occ. eigenvalues --   -0.38889  -0.38716  -0.38014  -0.37737  -0.37627
 Alpha  occ. eigenvalues --   -0.37329  -0.37019  -0.36302  -0.35996  -0.35535
 Alpha  occ. eigenvalues --   -0.34664  -0.34207  -0.33948  -0.32260  -0.32005
 Alpha  occ. eigenvalues --   -0.31154  -0.31105  -0.30770  -0.30611  -0.30071
 Alpha  occ. eigenvalues --   -0.29720  -0.29338  -0.28374  -0.27431  -0.25598
 Alpha virt. eigenvalues --   -0.10818  -0.03184  -0.02625  -0.01676  -0.01205
 Alpha virt. eigenvalues --   -0.00146   0.00032   0.00044   0.01312   0.01530
 Alpha virt. eigenvalues --    0.01709   0.01982   0.02517   0.02892   0.03206

  Beta  occ. eigenvalues -- -256.20620-101.52097-101.52081-101.52046 -30.11252
  Beta  occ. eigenvalues --  -25.98004 -25.97986 -25.97930 -19.20749 -19.17118
  Beta  occ. eigenvalues --  -19.15714 -10.33624 -10.33079 -10.24967 -10.24664
  Beta  occ. eigenvalues --  -10.22895 -10.22279 -10.21289 -10.21238 -10.21172
  Beta  occ. eigenvalues --  -10.20782 -10.20712 -10.20675 -10.20374 -10.20030
  Beta  occ. eigenvalues --  -10.19518 -10.19424 -10.18539  -9.43818  -9.43809
  Beta  occ. eigenvalues --   -9.43771  -7.19564  -7.19556  -7.19514  -7.19302
  Beta  occ. eigenvalues --   -7.19293  -7.19291  -7.19279  -7.19254  -7.19249
  Beta  occ. eigenvalues --   -3.47022  -2.23289  -2.23236  -2.23197  -1.12629
  Beta  occ. eigenvalues --   -1.07187  -1.04124  -0.88076  -0.86146  -0.83250
  Beta  occ. eigenvalues --   -0.79118  -0.78759  -0.78419  -0.78265  -0.78222
  Beta  occ. eigenvalues --   -0.76730  -0.75032  -0.71493  -0.70492  -0.66704
  Beta  occ. eigenvalues --   -0.64597  -0.62498  -0.61707  -0.59278  -0.57306
  Beta  occ. eigenvalues --   -0.55523  -0.54028  -0.52446  -0.51631  -0.50321
  Beta  occ. eigenvalues --   -0.49494  -0.48908  -0.48265  -0.47668  -0.47144
  Beta  occ. eigenvalues --   -0.45898  -0.45065  -0.43791  -0.43095  -0.42835
  Beta  occ. eigenvalues --   -0.42332  -0.40877  -0.40542  -0.40196  -0.40054
  Beta  occ. eigenvalues --   -0.38898  -0.38572  -0.38103  -0.37938  -0.37668
  Beta  occ. eigenvalues --   -0.37439  -0.37031  -0.36336  -0.36041  -0.35903
  Beta  occ. eigenvalues --   -0.35866  -0.35508  -0.34333  -0.33325  -0.33060
  Beta  occ. eigenvalues --   -0.32536  -0.32391  -0.32082  -0.31246  -0.30342
  Beta  occ. eigenvalues --   -0.29615  -0.29320  -0.28542  -0.27432  -0.25512
  Beta virt. eigenvalues --   -0.14753  -0.14334  -0.13487  -0.13185  -0.12964
  Beta virt. eigenvalues --   -0.10109  -0.03159  -0.02572  -0.01606  -0.01119
  Beta virt. eigenvalues --   -0.00106   0.00065   0.00077   0.01405   0.01559

 Mulliken charges and spin densities:
               1          2
     1  C    0.268654  -0.001009
     2  C    2.955881   0.000659
     3  C   -0.552844  -0.011314
     4  C    0.070533   0.005163
     5  C    0.275606  -0.001705
     6  C   -0.086808   0.002822
     7  C   -2.459549  -0.006891
     8  C    0.413684   0.012114
     9  C    0.489638   0.003753
    10  C    0.663612  -0.002527
    11  C    0.393535   0.030914
    12  C   -0.198765   0.017657
    13  C    0.242375  -0.000046
    14  O   -0.360719   0.144687
    15  Fe   0.688722   4.063008
    16  Cl  -0.521485   0.241185
    17  C    0.320436  -0.000484
    18  Cl  -0.483991   0.249684
    19  Cl  -0.504146   0.244298
    20  H   -0.257427   0.000716
    21  H   -0.159915  -0.000004
    22  H   -0.153290   0.000040
    23  H   -0.154385   0.000157
    24  H   -0.251744  -0.000117
    25  H   -0.188332  -0.000640
    26  C    0.792489   0.001432
    27  H   -0.136047   0.000307
    28  H   -0.007909  -0.000039
    29  H   -0.085393   0.000045
    30  H   -0.109838   0.001358
    31  H   -0.269709  -0.001199
    32  H   -0.000894   0.000055
    33  H    0.081718   0.000414
    34  H   -0.010463   0.001092
    35  H    0.009272   0.001101
    36  H    0.050788   0.001353
    37  H    0.064449  -0.000090
    38  O   -0.656681   0.002424
    39  O   -0.610292   0.000811
    40  C    0.424768   0.000606
    41  C    0.039420  -0.001518
    42  H   -0.034890   0.000004
    43  H   -0.037367   0.000020
    44  H   -0.007492   0.000047
    45  H    0.026351   0.000076
    46  H    0.028448  -0.000419
 Sum of Mulliken charges =  -0.00000   5.00000

 Dipole moment (field-independent basis, Debye):
    X=             10.6458    Y=             -3.8021    Z=             -3.1641  Tot=             11.7389
 Quadrupole moment (field-independent basis, Debye-Ang):
   XX=           -193.0843   YY=           -161.8944   ZZ=           -167.8825
   XY=            -11.0537   XZ=              8.7765   YZ=              6.7802

 Normal termination of Gaussian 16 at Sun Jun 20 13:47:58 2021.
