 Gaussian 16, Revision A.03,

 -----------------------------------------------------------
 #p opt=modredundant freq=noraman ub3lyp jul-cc-pvdz pop=cm5
 -----------------------------------------------------------

 -----
 title
 -----
 Symbolic Z-matrix:
 Charge =  0 Multiplicity = 6

 SCF Done:  E(UB3LYP) =  -3531.41932996     A.U. after   25 cycles
 SCF Done:  E(UB3LYP) =  -3531.41979346     A.U. after   22 cycles
 SCF Done:  E(UB3LYP) =  -3531.41917389     A.U. after   17 cycles
 SCF Done:  E(UB3LYP) =  -3531.41999693     A.U. after   15 cycles
 SCF Done:  E(UB3LYP) =  -3531.42002879     A.U. after   14 cycles
 SCF Done:  E(UB3LYP) =  -3531.42003084     A.U. after   12 cycles
 SCF Done:  E(UB3LYP) =  -3531.42003645     A.U. after   12 cycles
 SCF Done:  E(UB3LYP) =  -3531.42003821     A.U. after   11 cycles
 SCF Done:  E(UB3LYP) =  -3531.42003963     A.U. after   11 cycles
 SCF Done:  E(UB3LYP) =  -3531.42004070     A.U. after   11 cycles
 SCF Done:  E(UB3LYP) =  -3531.42004284     A.U. after   13 cycles
 SCF Done:  E(UB3LYP) =  -3531.42004349     A.U. after   11 cycles
 SCF Done:  E(UB3LYP) =  -3531.42004362     A.U. after   11 cycles
 SCF Done:  E(UB3LYP) =  -3531.42004368     A.U. after    9 cycles
 SCF Done:  E(UB3LYP) =  -3531.42004370     A.U. after   11 cycles
 SCF Done:  E(UB3LYP) =  -3531.42004369     A.U. after   11 cycles
 SCF Done:  E(UB3LYP) =  -3531.42004367     A.U. after   10 cycles
 Optimization completed.
    -- Stationary point found.
 Normal termination of Gaussian 16 at Sun Jun 20 03:16:53 2021.

 ----------------------------------------------------------------------
 #P Geom=AllCheck Guess=TCheck SCRF=Check GenChk UB3LYP/Jul-CC-pVDZ Fre
 q
 ----------------------------------------------------------------------

 Structure from the checkpoint file:  "checkpoint.chk"
 -----
 title
 -----
 Charge =  0 Multiplicity = 6

 SCF Done:  E(UB3LYP) =  -3531.42004367     A.U. after    1 cycles

  Exact polarizability: 321.712   3.028 293.530 -13.048   1.012 293.768
 Approx polarizability: 466.024   1.874 461.714  -2.958   9.243 490.165

 ******    1 imaginary frequencies (negative Signs) ******

                      1                      2                      3
                      A                      A                      A
 Frequencies --    -14.9284                11.3372                25.2154
 Red. masses --      4.1627                15.2479                 3.8019
 Frc consts  --      0.0005                 0.0012                 0.0014
 IR Inten    --     48.5372                 0.2813                 1.9364

                      4                      5                      6
                      A                      A                      A
 Frequencies --     31.9041                36.4822                56.5283
 Red. masses --      4.9570                 6.9287                 5.8891
 Frc consts  --      0.0030                 0.0054                 0.0111
 IR Inten    --      4.6251                 3.8605                 0.2133

                      7                      8                      9
                      A                      A                      A
 Frequencies --     59.0772                63.4925                76.0004
 Red. masses --      3.2027                 2.6370                 3.5244
 Frc consts  --      0.0066                 0.0063                 0.0120
 IR Inten    --     14.7777                10.4966                21.4421

                     10                     11                     12
                      A                      A                      A
 Frequencies --     87.2295                90.0372                96.0677
 Red. masses --     13.7298                12.3324                 3.1265
 Frc consts  --      0.0616                 0.0589                 0.0170
 IR Inten    --      1.6009                 0.0780                 5.1509

                     13                     14                     15
                      A                      A                      A
 Frequencies --    104.5303               112.5699               117.3376
 Red. masses --      6.7552                 1.9157                14.0654
 Frc consts  --      0.0435                 0.0143                 0.1141
 IR Inten    --     31.5395                27.6857                 2.2043

                     16                     17                     18
                      A                      A                      A
 Frequencies --    121.2130               124.6877               138.5816
 Red. masses --      5.0245                 4.0163                 2.2496
 Frc consts  --      0.0435                 0.0368                 0.0255
 IR Inten    --      0.4342                 1.0359                53.5830

                     19                     20                     21
                      A                      A                      A
 Frequencies --    154.5029               161.4006               174.3054
 Red. masses --      4.3516                 2.2959                 3.0003
 Frc consts  --      0.0612                 0.0352                 0.0537
 IR Inten    --     12.4776                 7.1365                17.0188

                     22                     23                     24
                      A                      A                      A
 Frequencies --    202.0573               205.9368               238.9060
 Red. masses --      3.1311                 1.4726                 2.8412
 Frc consts  --      0.0753                 0.0368                 0.0955
 IR Inten    --      3.4142                10.4217                 1.6373

                     25                     26                     27
                      A                      A                      A
 Frequencies --    250.0375               265.5898               285.9026
 Red. masses --      2.4344                 2.3195                 3.0212
 Frc consts  --      0.0897                 0.0964                 0.1455
 IR Inten    --      8.2495                 7.5336                17.7816

                     28                     29                     30
                      A                      A                      A
 Frequencies --    301.8004               317.5879               340.5147
 Red. masses --      6.1544                 4.8126                22.0535
 Frc consts  --      0.3303                 0.2860                 1.5066
 IR Inten    --      4.9604                13.3933                55.2198

                     31                     32                     33
                      A                      A                      A
 Frequencies --    345.8346               352.5199               385.0563
 Red. masses --      4.2320                 7.1586                38.8098
 Frc consts  --      0.2982                 0.5241                 3.3903
 IR Inten    --      5.4725                 2.6278                85.2453

                     34                     35                     36
                      A                      A                      A
 Frequencies --    392.9353               405.4873               408.8516
 Red. masses --     32.1314                 3.9821                 3.2257
 Frc consts  --      2.9230                 0.3858                 0.3177
 IR Inten    --     84.3914                10.9763                 7.3540

                     37                     38                     39
                      A                      A                      A
 Frequencies --    418.4661               461.3235               500.0504
 Red. masses --      3.0167                 4.2592                 2.2759
 Frc consts  --      0.3112                 0.5341                 0.3353
 IR Inten    --      0.7813                43.9463                 4.9511

                     40                     41                     42
                      A                      A                      A
 Frequencies --    506.0704               552.8785               586.6328
 Red. masses --      2.7795                 3.7824                 6.2374
 Frc consts  --      0.4194                 0.6812                 1.2647
 IR Inten    --      0.9970                49.9132                41.8302

                     43                     44                     45
                      A                      A                      A
 Frequencies --    628.1058               638.3252               685.9783
 Red. masses --      6.3972                 3.8436                 5.3557
 Frc consts  --      1.4870                 0.9227                 1.4849
 IR Inten    --      0.4682                53.8496                11.6867

                     46                     47                     48
                      A                      A                      A
 Frequencies --    712.0261               726.5314               757.3674
 Red. masses --      1.8736                 2.2161                 2.5384
 Frc consts  --      0.5597                 0.6892                 0.8579
 IR Inten    --     42.6780                16.4651                15.8233

                     49                     50                     51
                      A                      A                      A
 Frequencies --    789.2271               806.4729               820.9326
 Red. masses --      2.9640                 1.2177                 2.3594
 Frc consts  --      1.0878                 0.4666                 0.9368
 IR Inten    --     15.6286                 6.3178                55.1537

                     52                     53                     54
                      A                      A                      A
 Frequencies --    835.6359               845.7726               854.7354
 Red. masses --      2.2962                 2.9037                 1.7139
 Frc consts  --      0.9447                 1.2238                 0.7377
 IR Inten    --     33.1335                21.2942                 5.2760

                     55                     56                     57
                      A                      A                      A
 Frequencies --    862.3046               882.5367               907.1652
 Red. masses --      1.2471                 2.6267                 3.0082
 Frc consts  --      0.5463                 1.2054                 1.4586
 IR Inten    --      1.2805                14.3921                 2.8982

                     58                     59                     60
                      A                      A                      A
 Frequencies --    941.2411               967.7142               971.2163
 Red. masses --      1.6345                 2.1190                 3.1445
 Frc consts  --      0.8532                 1.1692                 1.7476
 IR Inten    --      9.5993                 3.4986                 3.7733

                     61                     62                     63
                      A                      A                      A
 Frequencies --    992.3519               996.3703               998.7690
 Red. masses --      3.0171                 1.4059                 1.4368
 Frc consts  --      1.7506                 0.8223                 0.8445
 IR Inten    --     35.2290                 7.5087                14.7939

                     64                     65                     66
                      A                      A                      A
 Frequencies --   1004.7646              1009.5150              1037.4646
 Red. masses --      4.0052                 1.4080                 2.8270
 Frc consts  --      2.3823                 0.8454                 1.7928
 IR Inten    --      1.4697                 1.6128                29.7387

                     67                     68                     69
                      A                      A                      A
 Frequencies --   1043.6705              1054.4489              1064.8163
 Red. masses --      1.7773                 2.1782                 2.1896
 Frc consts  --      1.1406                 1.4269                 1.4627
 IR Inten    --     40.0339                 5.6916                31.9768

                     70                     71                     72
                      A                      A                      A
 Frequencies --   1074.3440              1102.2478              1107.9861
 Red. masses --      2.0745                 2.4033                 1.6117
 Frc consts  --      1.4108                 1.7203                 1.1657
 IR Inten    --      8.4928                 7.1751                 4.7177

                     73                     74                     75
                      A                      A                      A
 Frequencies --   1116.5077              1132.1426              1167.8191
 Red. masses --      1.5635                 2.1916                 1.5538
 Frc consts  --      1.1483                 1.6551                 1.2485
 IR Inten    --    109.1529                 7.4088                 6.6019

                     76                     77                     78
                      A                      A                      A
 Frequencies --   1174.6359              1183.5292              1198.8716
 Red. masses --      1.0850                 1.9759                 1.6488
 Frc consts  --      0.8821                 1.6307                 1.3963
 IR Inten    --      0.7054                73.0374                74.9191

                     79                     80                     81
                      A                      A                      A
 Frequencies --   1206.1133              1210.3403              1233.5753
 Red. masses --      1.2531                 2.4475                 1.3964
 Frc consts  --      1.0740                 2.1124                 1.2520
 IR Inten    --     21.8343               370.2707                 7.9364

                     82                     83                     84
                      A                      A                      A
 Frequencies --   1257.9684              1260.9514              1282.1905
 Red. masses --      1.1894                 1.7127                 1.1109
 Frc consts  --      1.1090                 1.6044                 1.0760
 IR Inten    --     32.5677                86.6889                 8.6881

                     85                     86                     87
                      A                      A                      A
 Frequencies --   1292.3684              1317.9236              1329.0327
 Red. masses --      3.3340                 1.3660                 1.6614
 Frc consts  --      3.2809                 1.3979                 1.7290
 IR Inten    --    291.5657                 4.6823                 3.8188

                     88                     89                     90
                      A                      A                      A
 Frequencies --   1332.2897              1336.4424              1358.1321
 Red. masses --      1.4247                 1.4033                 2.5202
 Frc consts  --      1.4899                 1.4767                 2.7388
 IR Inten    --     31.6401                11.9392                 3.5722

                     91                     92                     93
                      A                      A                      A
 Frequencies --   1361.1802              1363.4362              1388.9067
 Red. masses --      1.3768                 1.2322                 1.5061
 Frc consts  --      1.5030                 1.3496                 1.7118
 IR Inten    --     59.1670                51.7495                13.0259

                     94                     95                     96
                      A                      A                      A
 Frequencies --   1393.6359              1417.9507              1421.5335
 Red. masses --      1.5604                 1.5530                 1.1470
 Frc consts  --      1.7856                 1.8397                 1.3657
 IR Inten    --    124.7252                16.1635                 5.1557

                     97                     98                     99
                      A                      A                      A
 Frequencies --   1448.1106              1463.2124              1468.9093
 Red. masses --      1.1022                 1.2819                 1.9575
 Frc consts  --      1.3618                 1.6170                 2.4885
 IR Inten    --     35.4268                10.3215                31.4858

                    100                    101                    102
                      A                      A                      A
 Frequencies --   1474.7910              1478.8880              1485.4356
 Red. masses --      1.0399                 1.0782                 1.0530
 Frc consts  --      1.3327                 1.3894                 1.3690
 IR Inten    --      5.4738                 5.4169                 0.9006

                    103                    104                    105
                      A                      A                      A
 Frequencies --   1495.0360              1502.6859              1504.6958
 Red. masses --      1.2046                 1.0989                 1.0848
 Frc consts  --      1.5864                 1.4620                 1.4471
 IR Inten    --      4.6855                13.4451                 4.6737

                    106                    107                    108
                      A                      A                      A
 Frequencies --   1517.7294              1532.5735              1621.6209
 Red. masses --      2.1491                 2.9357                 5.6600
 Frc consts  --      2.9167                 4.0626                 8.7693
 IR Inten    --      5.7174                65.9087                 0.2733

                    109                    110                    111
                      A                      A                      A
 Frequencies --   1641.4086              1746.3606              2935.3746
 Red. masses --      5.6642                10.7550                 1.0585
 Frc consts  --      8.9913                19.3254                 5.3734
 IR Inten    --      0.7785               151.9572                50.7337

                    112                    113                    114
                      A                      A                      A
 Frequencies --   3009.0577              3040.9387              3057.6174
 Red. masses --      1.0443                 1.0351                 1.0583
 Frc consts  --      5.5710                 5.6398                 5.8293
 IR Inten    --      1.4234                15.2820                14.0747

                    115                    116                    117
                      A                      A                      A
 Frequencies --   3063.9890              3065.3230              3083.8251
 Red. masses --      1.0661                 1.0923                 1.0701
 Frc consts  --      5.8967                 6.0472                 5.9958
 IR Inten    --     19.1704                 0.2473                 0.7404

                    118                    119                    120
                      A                      A                      A
 Frequencies --   3085.5319              3098.0115              3101.8957
 Red. masses --      1.0618                 1.0857                 1.1073
 Frc consts  --      5.9562                 6.1391                 6.2770
 IR Inten    --     16.8145                 9.3385                 3.5813

                    121                    122                    123
                      A                      A                      A
 Frequencies --   3118.0391              3121.9229              3129.8824
 Red. masses --      1.1012                 1.0957                 1.1051
 Frc consts  --      6.3081                 6.2919                 6.3783
 IR Inten    --     19.9747                 2.2097                22.8650

                    124                    125                    126
                      A                      A                      A
 Frequencies --   3130.1393              3141.3461              3152.2413
 Red. masses --      1.0965                 1.1002                 1.1044
 Frc consts  --      6.3298                 6.3967                 6.4657
 IR Inten    --     11.1275                 4.1991                10.2635

                    127                    128                    129
                      A                      A                      A
 Frequencies --   3166.5114              3168.0498              3179.4407
 Red. masses --      1.0986                 1.0859                 1.0903
 Frc consts  --      6.4900                 6.4213                 6.4940
 IR Inten    --      8.3949                 0.5924                10.2511

                    130                    131                    132
                      A                      A                      A
 Frequencies --   3192.3965              3206.7081              3213.5298
 Red. masses --      1.0960                 1.0928                 1.0934
 Frc consts  --      6.5813                 6.6208                 6.6524
 IR Inten    --     12.7128                 2.0329                 8.7913

 - Thermochemistry -
 -------------------
 Temperature   298.150 Kelvin.  Pressure   1.00000 Atm.
 Atom     1 has atomic number  6 and mass  12.00000

 Molecular mass:   434.99839 amu.
 Principal axes and moments of inertia in atomic units:
                           1         2         3
     Eigenvalues --  8332.02602********************
           X            0.99905  -0.03450  -0.02657
           Y            0.03549   0.99866   0.03771
           Z            0.02523  -0.03861   0.99894
 This molecule is an asymmetric top.
 Rotational symmetry number  1.
 Warning -- assumption of classical behavior for rotation
           may cause significant error
 Rotational temperatures (Kelvin)      0.01040     0.00638     0.00597
 Rotational constants (GHZ):           0.21660     0.13301     0.12447
    1 imaginary frequencies ignored.
 Zero-point vibrational energy     940669.7 (Joules/Mol)
                                  224.82544 (Kcal/Mol)
 Warning -- explicit consideration of  41 degrees of freedom as
           vibrations may cause significant error
 Vibrational temperatures:     16.31    36.28    45.90    52.49    81.33
          (Kelvin)             85.00    91.35   109.35   125.50   129.54
                              138.22   150.40   161.96   168.82   174.40
                              179.40   199.39   222.30   232.22   250.79
                              290.72   296.30   343.73   359.75   382.12
                              411.35   434.22   456.94   489.92   497.58
                              507.20   554.01   565.35   583.41   588.25
                              602.08   663.74   719.46   728.12   795.47
                              844.03   903.70   918.41   986.97  1024.45
                             1045.32  1089.68  1135.52  1160.33  1181.14
                             1202.29  1216.88  1229.77  1240.66  1269.77
                             1305.21  1354.24  1392.32  1397.36  1427.77
                             1433.55  1437.01  1445.63  1452.47  1492.68
                             1501.61  1517.12  1532.03  1545.74  1585.89
                             1594.14  1606.41  1628.90  1680.23  1690.04
                             1702.83  1724.91  1735.33  1741.41  1774.84
                             1809.94  1814.23  1844.79  1859.43  1896.20
                             1912.18  1916.87  1922.84  1954.05  1958.43
                             1961.68  1998.33  2005.13  2040.11  2045.27
                             2083.51  2105.24  2113.43  2121.90  2127.79
                             2137.21  2151.02  2162.03  2164.92  2183.67
                             2205.03  2333.15  2361.62  2512.62  4223.35
                             4329.36  4375.23  4399.23  4408.40  4410.32
                             4436.94  4439.39  4457.35  4462.94  4486.16
                             4491.75  4503.20  4503.57  4519.70  4535.37
                             4555.90  4558.12  4574.51  4593.15  4613.74
                             4623.55

 Zero-point correction=                           0.358282 (Hartree/Particle)
 Thermal correction to Energy=                    0.385883
 Thermal correction to Enthalpy=                  0.386827
 Thermal correction to Gibbs Free Energy=         0.294786
 Sum of electronic and zero-point Energies=          -3531.061762
 Sum of electronic and thermal Energies=             -3531.034161
 Sum of electronic and thermal Enthalpies=           -3531.033216
 Sum of electronic and thermal Free Energies=        -3531.125258

                     E (Thermal)             CV                S
                      KCal/Mol        Cal/Mol-Kelvin    Cal/Mol-Kelvin
 Total                  242.145             97.512            193.717
 Electronic               0.000              0.000              3.561
 Translational            0.889              2.981             44.100
 Rotational               0.889              2.981             35.748
 Vibrational            240.368             91.550            110.308
 Vibration     1          0.593              1.987              7.762
 Vibration     2          0.593              1.985              6.174
 Vibration     3          0.594              1.983              5.707
 Vibration     4          0.594              1.982              5.441
 Vibration     5          0.596              1.975              4.575
 Vibration     6          0.596              1.974              4.488
 Vibration     7          0.597              1.972              4.346
 Vibration     8          0.599              1.965              3.992
 Vibration     9          0.601              1.958              3.721
 Vibration    10          0.602              1.956              3.659
 Vibration    11          0.603              1.952              3.533
 Vibration    12          0.605              1.946              3.368
 Vibration    13          0.607              1.939              3.224
 Vibration    14          0.608              1.935              3.144
 Vibration    15          0.609              1.932              3.081
 Vibration    16          0.610              1.928              3.026
 Vibration    17          0.614              1.915              2.823
 Vibration    18          0.620              1.898              2.616
 Vibration    19          0.622              1.890              2.533
 Vibration    20          0.627              1.874              2.389
 Vibration    21          0.639              1.837              2.114
 Vibration    22          0.640              1.831              2.079
 Vibration    23          0.657              1.781              1.811
 Vibration    24          0.663              1.763              1.730
 Vibration    25          0.671              1.736              1.625
 Vibration    26          0.684              1.700              1.498
 Vibration    27          0.694              1.670              1.407
 Vibration    28          0.704              1.640              1.322
 Vibration    29          0.720              1.595              1.210
 Vibration    30          0.724              1.584              1.185
 Vibration    31          0.729              1.570              1.155
 Vibration    32          0.754              1.502              1.019
 Vibration    33          0.760              1.485              0.989
 Vibration    34          0.770              1.458              0.943
 Vibration    35          0.773              1.451              0.931
 Vibration    36          0.781              1.430              0.897
 Vibration    37          0.819              1.336              0.762
 Vibration    38          0.855              1.250              0.658
 Vibration    39          0.861              1.237              0.643
 Vibration    40          0.908              1.133              0.538
 Vibration    41          0.944              1.060              0.473

                           ! Non-Optimized Parameters !
 Normal termination of Gaussian 16 at Sun Jun 20 06:37:36 2021.

 ----------------------------------------------------------------------
 #p ub3lyp jul-cc-pvdz pop=cm5 scrf=(pcm,solvent=dichloroethane) guess=
 read geom=allcheck
 ----------------------------------------------------------------------

 Structure from the checkpoint file:  "checkpoint.chk"
 -----
 title
 -----
 Charge =  0 Multiplicity = 6

 SCF Done:  E(UB3LYP) =  -3531.44349757     A.U. after   18 cycles
 Normal termination of Gaussian 16 at Sun Jun 20 06:57:34 2021.
 Gaussian 16:  ES64L-G16RevA.03 25-Dec-2016

 ----------------------------------------------------------------------
 #p ub3lyp jul-cc-pvdz pop=cm5 scrf=(pcm,solvent=water) guess=read geom
 =allcheck
 ----------------------------------------------------------------------

 Structure from the checkpoint file:  "checkpoint.chk"
 -----
 title
 -----
 Charge =  0 Multiplicity = 6

                         Standard orientation:
 ---------------------------------------------------------------------
 Center     Atomic      Atomic             Coordinates (Angstroms)
 Number     Number       Type             X           Y           Z
 ---------------------------------------------------------------------
      1          6           0        2.592997    1.426920   -0.376502
      2          6           0        1.252278    1.092576   -0.641583
      3          6           0        0.721571    1.406420   -1.903889
      4          6           0        1.512259    2.024510   -2.877601
      5          6           0        2.844301    2.345369   -2.607119
      6          6           0        3.380054    2.045008   -1.350309
      7          6           0        0.351468    0.380681    0.363713
      8          6           0        0.812778   -1.033629    0.889830
      9          6           0        0.042221   -1.278283    2.205932
     10          6           0       -0.339879    0.105611    2.788479
     11          6           0        0.406632    1.168750    1.981092
     12          6           0       -0.111857    2.468610    1.782544
     13          6           0       -1.563736    2.703398    1.694694
     14          8           0       -0.917550    0.343735   -0.019053
     15         26           0       -2.459696   -0.660145   -0.542385
     16         17           0       -3.818049   -0.611332    1.220993
     17          6           0        0.786489    3.610674    1.472808
     18         17           0       -1.821896   -2.714471   -1.064035
     19         17           0       -3.282581    0.460677   -2.266473
     20          1           0       -0.313750    1.156433   -2.127736
     21          1           0        1.079344    2.249614   -3.853302
     22          1           0        3.461645    2.826145   -3.367522
     23          1           0        4.417631    2.295190   -1.123273
     24          1           0        3.039292    1.211399    0.592226
     25          1           0        0.504233   -1.725574    0.097690
     26          6           0        2.309874   -1.195083    1.090856
     27          1           0       -0.856516   -1.872142    2.007878
     28          1           0        0.661488   -1.847065    2.908025
     29          1           0       -1.423014    0.247777    2.727798
     30          1           0       -0.047334    0.197247    3.843150
     31          1           0        1.480813    1.160266    2.186399
     32          1           0        1.848035    3.373571    1.579579
     33          1           0        0.590900    3.951497    0.440519
     34          1           0        0.526213    4.461205    2.123246
     35          1           0       -1.821104    3.752994    1.517928
     36          1           0       -1.912191    2.078297    0.843407
     37          1           0       -2.112592    2.314308    2.562084
     38          8           0        2.861179   -1.921901    0.108278
     39          8           0        2.937408   -0.750976    2.036869
     40          6           0        4.291462   -2.169732    0.200453
     41          6           0        4.678682   -3.046888   -0.972528
     42          1           0        4.808987   -1.200739    0.184830
     43          1           0        4.495760   -2.647805    1.167808
     44          1           0        5.757965   -3.252886   -0.932632
     45          1           0        4.141235   -4.004442   -0.941866
     46          1           0        4.454158   -2.550693   -1.926429
 ---------------------------------------------------------------------

 SCF Done:  E(UB3LYP) =  -3531.44761810     A.U. after   15 cycles

 The electronic state is 6-A.
 Alpha  occ. eigenvalues -- -256.20438-101.52332-101.52015-101.51991 -30.19865
 Alpha  occ. eigenvalues --  -26.05191 -26.05055 -26.05034 -19.20772 -19.16705
 Alpha  occ. eigenvalues --  -19.15538 -10.33237 -10.31246 -10.28904 -10.24984
 Alpha  occ. eigenvalues --  -10.22709 -10.22287 -10.21586 -10.21313 -10.20911
 Alpha  occ. eigenvalues --  -10.20489 -10.20356 -10.20305 -10.20224 -10.20219
 Alpha  occ. eigenvalues --  -10.20173 -10.19913 -10.18790  -9.44057  -9.43745
 Alpha  occ. eigenvalues --   -9.43711  -7.19917  -7.19612  -7.19611  -7.19598
 Alpha  occ. eigenvalues --   -7.19581  -7.19297  -7.19274  -7.19259  -7.19245
 Alpha  occ. eigenvalues --   -3.67559  -2.45104  -2.44824  -2.44780  -1.12501
 Alpha  occ. eigenvalues --   -1.05739  -1.03848  -0.88199  -0.86997  -0.83705
 Alpha  occ. eigenvalues --   -0.80170  -0.79460  -0.79262  -0.78904  -0.77837
 Alpha  occ. eigenvalues --   -0.76021  -0.75123  -0.73373  -0.71487  -0.66667
 Alpha  occ. eigenvalues --   -0.64178  -0.62186  -0.61222  -0.59685  -0.57559
 Alpha  occ. eigenvalues --   -0.56060  -0.54505  -0.53115  -0.51838  -0.50814
 Alpha  occ. eigenvalues --   -0.50279  -0.49346  -0.49179  -0.47859  -0.47813
 Alpha  occ. eigenvalues --   -0.47592  -0.47191  -0.46949  -0.46404  -0.45827
 Alpha  occ. eigenvalues --   -0.45020  -0.44805  -0.44171  -0.43690  -0.42945
 Alpha  occ. eigenvalues --   -0.42148  -0.41770  -0.40938  -0.40379  -0.40038
 Alpha  occ. eigenvalues --   -0.39492  -0.39176  -0.37604  -0.37413  -0.36982
 Alpha  occ. eigenvalues --   -0.36854  -0.36705  -0.36340  -0.35920  -0.35435
 Alpha  occ. eigenvalues --   -0.34871  -0.34331  -0.33871  -0.32117  -0.31978
 Alpha  occ. eigenvalues --   -0.31036  -0.30953  -0.30786  -0.30273  -0.29933
 Alpha  occ. eigenvalues --   -0.29767  -0.28990  -0.28847  -0.26874  -0.26362
 Alpha virt. eigenvalues --   -0.12217  -0.03951  -0.02818  -0.01642  -0.01519
 Alpha virt. eigenvalues --   -0.00344  -0.00038   0.00162   0.01382   0.01500
 Alpha virt. eigenvalues --    0.01669   0.01943   0.02659   0.03254   0.03799

  Beta  occ. eigenvalues -- -256.20253-101.52152-101.51843-101.51817 -30.10911
  Beta  occ. eigenvalues --  -25.97651 -25.97625 -25.97612 -19.20771 -19.16096
  Beta  occ. eigenvalues --  -19.15536 -10.33236 -10.31238 -10.28877 -10.24984
  Beta  occ. eigenvalues --  -10.22688 -10.22272 -10.21564 -10.21314 -10.20913
  Beta  occ. eigenvalues --  -10.20489 -10.20356 -10.20304 -10.20224 -10.20219
  Beta  occ. eigenvalues --  -10.20174 -10.19914 -10.18790  -9.43880  -9.43576
  Beta  occ. eigenvalues --   -9.43540  -7.19622  -7.19367  -7.19356  -7.19322
  Beta  occ. eigenvalues --   -7.19284  -7.19059  -7.19057  -7.19024  -7.19022
  Beta  occ. eigenvalues --   -3.46686  -2.22968  -2.22907  -2.22842  -1.12497
  Beta  occ. eigenvalues --   -1.04575  -1.03835  -0.88067  -0.86976  -0.83632
  Beta  occ. eigenvalues --   -0.79028  -0.78909  -0.78240  -0.78056  -0.77734
  Beta  occ. eigenvalues --   -0.76013  -0.75097  -0.73363  -0.71408  -0.66498
  Beta  occ. eigenvalues --   -0.64065  -0.62143  -0.61193  -0.59373  -0.57140
  Beta  occ. eigenvalues --   -0.55938  -0.54340  -0.52456  -0.51456  -0.50551
  Beta  occ. eigenvalues --   -0.50016  -0.49080  -0.48730  -0.46816  -0.46409
  Beta  occ. eigenvalues --   -0.45549  -0.45101  -0.44236  -0.43755  -0.42958
  Beta  occ. eigenvalues --   -0.42204  -0.41740  -0.40905  -0.40382  -0.40036
  Beta  occ. eigenvalues --   -0.39434  -0.39124  -0.37953  -0.37501  -0.36957
  Beta  occ. eigenvalues --   -0.36872  -0.36602  -0.36342  -0.35961  -0.35833
  Beta  occ. eigenvalues --   -0.35676  -0.35565  -0.34555  -0.33153  -0.33079
  Beta  occ. eigenvalues --   -0.32385  -0.32275  -0.32103  -0.31704  -0.30014
  Beta  occ. eigenvalues --   -0.29627  -0.29121  -0.28798  -0.26883  -0.26342
  Beta virt. eigenvalues --   -0.14296  -0.14080  -0.13224  -0.12946  -0.12400
  Beta virt. eigenvalues --   -0.11171  -0.03899  -0.02800  -0.01607  -0.01409
  Beta virt. eigenvalues --   -0.00302  -0.00012   0.00189   0.01410   0.01509

 Mulliken charges and spin densities:
               1          2
     1  C   -0.014217  -0.000589
     2  C    2.543083   0.013932
     3  C   -0.743412  -0.007065
     4  C    0.038327   0.003548
     5  C    0.283820  -0.001776
     6  C   -0.051173   0.002301
     7  C   -1.814545  -0.005433
     8  C    1.131486  -0.001337
     9  C    0.482043  -0.000772
    10  C    0.484091   0.002128
    11  C    0.499441   0.007797
    12  C   -0.574426   0.019107
    13  C    0.204310  -0.001286
    14  O   -0.563766   0.194871
    15  Fe   0.730550   4.054909
    16  Cl  -0.504243   0.234372
    17  C    0.425535  -0.000956
    18  Cl  -0.494038   0.238900
    19  Cl  -0.501220   0.236627
    20  H   -0.243288   0.002356
    21  H   -0.161715  -0.000018
    22  H   -0.160056   0.000019
    23  H   -0.165089   0.000173
    24  H   -0.203189  -0.000014
    25  H   -0.213943  -0.000950
    26  C    0.588618   0.004943
    27  H   -0.076269   0.000318
    28  H   -0.115664   0.000202
    29  H   -0.052259  -0.000590
    30  H   -0.122614  -0.000059
    31  H   -0.186497  -0.000204
    32  H    0.016405   0.000027
    33  H    0.103157   0.001716
    34  H    0.020011   0.000868
    35  H   -0.025787   0.000066
    36  H    0.186138   0.000547
    37  H    0.068097   0.000587
    38  O   -0.686424   0.000155
    39  O   -0.603874   0.000508
    40  C    0.423960   0.000002
    41  C    0.086561   0.000020
    42  H   -0.038576   0.000025
    43  H   -0.040237   0.000007
    44  H   -0.003406   0.000011
    45  H    0.022717   0.000010
    46  H    0.021576   0.000001
 Sum of Mulliken charges =  -0.00000   5.00000

 Dipole moment (field-independent basis, Debye):
    X=             11.4387    Y=              8.8387    Z=              5.4828  Tot=             15.4605
 Quadrupole moment (field-independent basis, Debye-Ang):
   XX=           -192.8082   YY=           -157.1372   ZZ=           -175.3684
   XY=            -10.2371   XZ=            -15.5477   YZ=              6.5002

 Normal termination of Gaussian 16 at Sun Jun 20 07:13:59 2021.
