 Gaussian 16, Revision A.03,

 -----------------------------------------------------------
 #p opt=modredundant freq=noraman ub3lyp jul-cc-pvdz pop=cm5
 -----------------------------------------------------------

 -----
 title
 -----
 Symbolic Z-matrix:
 Charge =  0 Multiplicity = 6

 SCF Done:  E(UB3LYP) =  -3531.43211166     A.U. after   25 cycles
 SCF Done:  E(UB3LYP) =  -3531.43093686     A.U. after   17 cycles
 SCF Done:  E(UB3LYP) =  -3531.43033177     A.U. after   17 cycles
 SCF Done:  E(UB3LYP) =  -3531.42987849     A.U. after   18 cycles
 SCF Done:  E(UB3LYP) =  -3531.43227909     A.U. after   12 cycles
 SCF Done:  E(UB3LYP) =  -3531.43215181     A.U. after   17 cycles
 SCF Done:  E(UB3LYP) =  -3531.43249710     A.U. after   16 cycles
 SCF Done:  E(UB3LYP) =  -3531.43273943     A.U. after   15 cycles
 SCF Done:  E(UB3LYP) =  -3531.43280216     A.U. after   14 cycles
 SCF Done:  E(UB3LYP) =  -3531.43281720     A.U. after   14 cycles
 SCF Done:  E(UB3LYP) =  -3531.43285090     A.U. after    9 cycles
 SCF Done:  E(UB3LYP) =  -3531.43285071     A.U. after    9 cycles
 SCF Done:  E(UB3LYP) =  -3531.43285064     A.U. after    9 cycles
 SCF Done:  E(UB3LYP) =  -3531.43285097     A.U. after   11 cycles
 SCF Done:  E(UB3LYP) =  -3531.43285058     A.U. after   11 cycles
 SCF Done:  E(UB3LYP) =  -3531.43285051     A.U. after   10 cycles
 SCF Done:  E(UB3LYP) =  -3531.43285044     A.U. after    9 cycles
 Optimization completed.
    -- Stationary point found.
 Normal termination of Gaussian 16 at Sun Jun 20 15:48:44 2021.

 ----------------------------------------------------------------------
 #P Geom=AllCheck Guess=TCheck SCRF=Check GenChk UB3LYP/Jul-CC-pVDZ Fre
 q
 ----------------------------------------------------------------------

 Structure from the checkpoint file:  "checkpoint.chk"
 -----
 title
 -----
 Charge =  0 Multiplicity = 6

 SCF Done:  E(UB3LYP) =  -3531.43285044     A.U. after    1 cycles

  Exact polarizability: 316.771  14.627 305.816  13.217   8.843 299.328
 Approx polarizability: 488.385  46.231 464.324  10.886   7.808 498.271

 ******    1 imaginary frequencies (negative Signs) ******

                      1                      2                      3
                      A                      A                      A
 Frequencies --    -20.4306                17.1795                23.9787
 Red. masses --      6.3982                 5.2458                 4.7027
 Frc consts  --      0.0016                 0.0009                 0.0016
 IR Inten    --      0.4909                 0.4124                 0.7936

                      4                      5                      6
                      A                      A                      A
 Frequencies --     29.2497                46.3001                50.5186
 Red. masses --      9.0865                 3.8729                 4.3550
 Frc consts  --      0.0046                 0.0049                 0.0065
 IR Inten    --      0.3275                 1.5334                 1.6268

                      7                      8                      9
                      A                      A                      A
 Frequencies --     59.8226                65.0440                80.0820
 Red. masses --      4.8036                 4.1897                 9.3060
 Frc consts  --      0.0101                 0.0104                 0.0352
 IR Inten    --      0.4925                 2.3783                 0.6324

                     10                     11                     12
                      A                      A                      A
 Frequencies --     86.8044                93.9542               100.7364
 Red. masses --      7.8909                 9.1820                 4.1452
 Frc consts  --      0.0350                 0.0478                 0.0248
 IR Inten    --      0.9213                 3.2753                 0.9964

                     13                     14                     15
                      A                      A                      A
 Frequencies --    103.7724               114.5019               118.9321
 Red. masses --      5.7994                 2.5954                 3.3289
 Frc consts  --      0.0368                 0.0200                 0.0277
 IR Inten    --      0.6812                 1.6694                 2.1056

                     16                     17                     18
                      A                      A                      A
 Frequencies --    126.6910               139.9175               146.4514
 Red. masses --      7.9334                 3.0184                 3.9064
 Frc consts  --      0.0750                 0.0348                 0.0494
 IR Inten    --      1.8882                 7.1741                 1.7138

                     19                     20                     21
                      A                      A                      A
 Frequencies --    157.2568               170.8369               180.8116
 Red. masses --      2.0821                 5.2025                 1.1345
 Frc consts  --      0.0303                 0.0895                 0.0219
 IR Inten    --      7.7641                33.2687                 3.5169

                     22                     23                     24
                      A                      A                      A
 Frequencies --    200.4131               206.8543               225.9970
 Red. masses --      3.3294                 2.4481                 3.4507
 Frc consts  --      0.0788                 0.0617                 0.1038
 IR Inten    --      0.9734                 4.0723                 9.7992

                     25                     26                     27
                      A                      A                      A
 Frequencies --    255.3761               259.6956               293.0085
 Red. masses --      3.2572                 1.9897                 3.9925
 Frc consts  --      0.1252                 0.0791                 0.2020
 IR Inten    --     86.8200                20.6224                 2.8121

                     28                     29                     30
                      A                      A                      A
 Frequencies --    315.8728               322.8186               346.1561
 Red. masses --      2.4504                 7.7567                17.1650
 Frc consts  --      0.1440                 0.4763                 1.2118
 IR Inten    --      2.3697                 3.0988                51.4593

                     31                     32                     33
                      A                      A                      A
 Frequencies --    354.4488               376.4656               392.7267
 Red. masses --      5.3072                 4.7030                24.9147
 Frc consts  --      0.3928                 0.3927                 2.2641
 IR Inten    --      2.9752                18.1172                85.4670

                     34                     35                     36
                      A                      A                      A
 Frequencies --    397.5512               400.2797               410.9364
 Red. masses --      6.8964                 3.8661                 2.8699
 Frc consts  --      0.6422                 0.3650                 0.2855
 IR Inten    --     52.1078                28.4719                 0.9482

                     37                     38                     39
                      A                      A                      A
 Frequencies --    426.4850               454.2824               480.6017
 Red. masses --      3.7794                 3.7352                 2.7687
 Frc consts  --      0.4050                 0.4542                 0.3768
 IR Inten    --     45.4283                 1.9106                 9.5434

                     40                     41                     42
                      A                      A                      A
 Frequencies --    505.4481               520.4132               545.3070
 Red. masses --      2.9158                 3.1811                 3.2757
 Frc consts  --      0.4389                 0.5076                 0.5739
 IR Inten    --      8.0427                 4.0146                28.3944

                     43                     44                     45
                      A                      A                      A
 Frequencies --    590.3622               624.8164               643.9079
 Red. masses --      4.5046                 6.1623                 4.0528
 Frc consts  --      0.9250                 1.4174                 0.9901
 IR Inten    --     76.3970                 9.6317               100.1875

                     46                     47                     48
                      A                      A                      A
 Frequencies --    692.6672               701.2266               753.6970
 Red. masses --      1.6348                 6.1783                 4.4551
 Frc consts  --      0.4621                 1.7899                 1.4911
 IR Inten    --     57.9377                15.5789                 6.0207

                     49                     50                     51
                      A                      A                      A
 Frequencies --    766.9210               796.3487               804.0467
 Red. masses --      2.3132                 2.1844                 1.3614
 Frc consts  --      0.8016                 0.8162                 0.5186
 IR Inten    --     16.8958                17.7653                 0.7554

                     52                     53                     54
                      A                      A                      A
 Frequencies --    821.3507               843.0447               861.4986
 Red. masses --      3.0875                 1.2586                 1.8301
 Frc consts  --      1.2272                 0.5270                 0.8003
 IR Inten    --     18.1878                 1.2367                 3.1825

                     55                     56                     57
                      A                      A                      A
 Frequencies --    867.6156               901.6168               923.7634
 Red. masses --      2.0469                 1.8805                 1.9563
 Frc consts  --      0.9078                 0.9007                 0.9836
 IR Inten    --     43.8094                 5.2973                17.8375

                     58                     59                     60
                      A                      A                      A
 Frequencies --    943.4116               958.8836               968.7866
 Red. masses --      1.4159                 1.4110                 3.1578
 Frc consts  --      0.7425                 0.7644                 1.7462
 IR Inten    --      0.2357                 4.6685                25.1610

                     61                     62                     63
                      A                      A                      A
 Frequencies --    986.6263               988.0586               992.0681
 Red. masses --      1.8431                 1.5615                 1.4800
 Frc consts  --      1.0571                 0.8982                 0.8582
 IR Inten    --     13.7122                33.4032                 6.6123

                     64                     65                     66
                      A                      A                      A
 Frequencies --   1002.8266              1008.2641              1014.2315
 Red. masses --      2.6312                 1.7453                 1.9879
 Frc consts  --      1.5591                 1.0453                 1.2048
 IR Inten    --      0.9154                 1.7497                 6.7272

                     67                     68                     69
                      A                      A                      A
 Frequencies --   1037.0375              1047.3326              1071.7566
 Red. masses --      2.6895                 2.3743                 2.2894
 Frc consts  --      1.7041                 1.5345                 1.5494
 IR Inten    --     42.7810                 3.3075                 2.5227

                     70                     71                     72
                      A                      A                      A
 Frequencies --   1086.9153              1096.3034              1111.8831
 Red. masses --      1.8084                 1.8593                 1.5638
 Frc consts  --      1.2587                 1.3166                 1.1391
 IR Inten    --      4.9109                13.8120                 9.1705

                     73                     74                     75
                      A                      A                      A
 Frequencies --   1132.6835              1138.3634              1162.1836
 Red. masses --      2.1399                 2.2786                 1.6834
 Frc consts  --      1.6176                 1.7397                 1.3396
 IR Inten    --     13.8954                 7.3096                64.1978

                     76                     77                     78
                      A                      A                      A
 Frequencies --   1170.6752              1176.7137              1199.3119
 Red. masses --      1.5643                 1.0883                 1.4186
 Frc consts  --      1.2631                 0.8878                 1.2022
 IR Inten    --      3.1479                 1.4536                50.1904

                     79                     80                     81
                      A                      A                      A
 Frequencies --   1205.9291              1225.0137              1251.5162
 Red. masses --      1.3411                 2.2873                 2.3245
 Frc consts  --      1.1491                 2.0223                 2.1452
 IR Inten    --     37.2090               146.5099                69.9687

                     82                     83                     84
                      A                      A                      A
 Frequencies --   1257.8736              1285.5356              1324.0923
 Red. masses --      2.1151                 1.1133                 1.5244
 Frc consts  --      1.9718                 1.0840                 1.5747
 IR Inten    --     62.2028                 0.0853               147.9933

                     85                     86                     87
                      A                      A                      A
 Frequencies --   1325.0276              1330.7247              1335.4043
 Red. masses --      1.4348                 1.5403                 1.6632
 Frc consts  --      1.4842                 1.6071                 1.7475
 IR Inten    --      6.3350                71.8660                23.4054

                     88                     89                     90
                      A                      A                      A
 Frequencies --   1362.3223              1365.0844              1375.3329
 Red. masses --      2.9987                 1.5742                 1.3043
 Frc consts  --      3.2791                 1.7284                 1.4536
 IR Inten    --      3.2370                15.6169                16.0825

                     91                     92                     93
                      A                      A                      A
 Frequencies --   1382.9014              1396.4470              1408.8396
 Red. masses --      1.4005                 1.2810                 1.5136
 Frc consts  --      1.5780                 1.4718                 1.7701
 IR Inten    --     29.6338                18.4281                18.3515

                     94                     95                     96
                      A                      A                      A
 Frequencies --   1415.6147              1448.3079              1456.4963
 Red. masses --      1.4089                 2.1829                 1.2080
 Frc consts  --      1.6634                 2.6978                 1.5098
 IR Inten    --     16.8625               289.3345                48.5280

                     97                     98                     99
                      A                      A                      A
 Frequencies --   1465.7228              1473.2180              1476.9728
 Red. masses --      1.0753                 1.0391                 1.0663
 Frc consts  --      1.3611                 1.3288                 1.3705
 IR Inten    --      1.0937                 6.2970                17.0308

                    100                    101                    102
                      A                      A                      A
 Frequencies --   1478.9946              1485.9586              1488.2290
 Red. masses --      1.1592                 2.1251                 1.0840
 Frc consts  --      1.4940                 2.7646                 1.4145
 IR Inten    --     13.7268               284.9945                15.3564

                    103                    104                    105
                      A                      A                      A
 Frequencies --   1496.0410              1500.0246              1506.2909
 Red. masses --      1.1280                 1.2306                 1.0837
 Frc consts  --      1.4874                 1.6315                 1.4487
 IR Inten    --     10.8262                61.2809                 7.5026

                    106                    107                    108
                      A                      A                      A
 Frequencies --   1517.0958              1618.8183              1639.5339
 Red. masses --      1.9498                 5.5336                 5.6521
 Frc consts  --      2.6440                 8.5439                 8.9516
 IR Inten    --     11.7839                 5.2940                30.3711

                    109                    110                    111
                      A                      A                      A
 Frequencies --   1676.0638              1766.9440              3017.9854
 Red. masses --      5.8129                11.5486                 1.0428
 Frc consts  --      9.6210                21.2435                 5.5959
 IR Inten    --    144.7329               227.5217                 2.7620

                    112                    113                    114
                      A                      A                      A
 Frequencies --   3024.5297              3038.9430              3042.0497
 Red. masses --      1.0433                 1.0667                 1.0360
 Frc consts  --      5.6232                 5.8041                 5.6486
 IR Inten    --      8.7358                25.7889                18.4164

                    115                    116                    117
                      A                      A                      A
 Frequencies --   3060.6709              3068.2839              3075.7442
 Red. masses --      1.0593                 1.0634                 1.0972
 Frc consts  --      5.8468                 5.8987                 6.1154
 IR Inten    --     14.9276                26.3268                 6.2622

                    118                    119                    120
                      A                      A                      A
 Frequencies --   3076.7736              3091.8657              3098.3513
 Red. masses --      1.0857                 1.0891                 1.0965
 Frc consts  --      6.0555                 6.1343                 6.2016
 IR Inten    --      1.3878                 3.6671                 1.9312

                    121                    122                    123
                      A                      A                      A
 Frequencies --   3109.5908              3118.0198              3120.8897
 Red. masses --      1.1056                 1.1022                 1.1001
 Frc consts  --      6.2990                 6.3136                 6.3132
 IR Inten    --      9.3538                16.1130                15.3087

                    124                    125                    126
                      A                      A                      A
 Frequencies --   3134.8961              3140.2290              3156.5227
 Red. masses --      1.1012                 1.1045                 1.0987
 Frc consts  --      6.3762                 6.4169                 6.4499
 IR Inten    --     10.1472                13.5746                 6.9426

                    127                    128                    129
                      A                      A                      A
 Frequencies --   3161.5459              3174.1697              3187.0491
 Red. masses --      1.0880                 1.0861                 1.0912
 Frc consts  --      6.4072                 6.4471                 6.5301
 IR Inten    --     15.6925                 0.4207                 6.8267

                    130                    131                    132
                      A                      A                      A
 Frequencies --   3196.5703              3225.1452              3238.4970
 Red. masses --      1.0969                 1.0926                 1.0915
 Frc consts  --      6.6036                 6.6958                 6.7447
 IR Inten    --     12.9308                 1.8370                 1.2373

 - Thermochemistry -
 -------------------
 Temperature   298.150 Kelvin.  Pressure   1.00000 Atm.
 Atom     1 has atomic number  6 and mass  12.00000

 Molecular mass:   434.99839 amu.
 Principal axes and moments of inertia in atomic units:
                           1         2         3
     Eigenvalues --  9286.84084********************
           X            0.99863  -0.05039   0.01425
           Y            0.05003   0.99844   0.02464
           Z           -0.01547  -0.02390   0.99959
 This molecule is an asymmetric top.
 Rotational symmetry number  1.
 Warning -- assumption of classical behavior for rotation
           may cause significant error
 Rotational temperatures (Kelvin)      0.00933     0.00780     0.00659
 Rotational constants (GHZ):           0.19433     0.16254     0.13727
    1 imaginary frequencies ignored.
 Zero-point vibrational energy     943805.0 (Joules/Mol)
                                  225.57481 (Kcal/Mol)
 Warning -- explicit consideration of  42 degrees of freedom as
           vibrations may cause significant error
 Vibrational temperatures:     24.72    34.50    42.08    66.62    72.69
          (Kelvin)             86.07    93.58   115.22   124.89   135.18
                              144.94   149.31   164.74   171.12   182.28
                              201.31   210.71   226.26   245.80   260.15
                              288.35   297.62   325.16   367.43   373.64
                              421.57   454.47   464.46   498.04   509.97
                              541.65   565.05   571.99   575.91   591.25
                              613.62   653.61   691.48   727.23   748.76
                              784.58   849.40   898.97   926.44   996.59
                             1008.91  1084.40  1103.43  1145.77  1156.84
                             1181.74  1212.95  1239.50  1248.31  1297.23
                             1329.09  1357.36  1379.62  1393.87  1419.54
                             1421.60  1427.36  1442.84  1450.67  1459.25
                             1492.07  1506.88  1542.02  1563.83  1577.34
                             1599.75  1629.68  1637.85  1672.12  1684.34
                             1693.03  1725.54  1735.06  1762.52  1800.65
                             1809.80  1849.60  1905.07  1906.42  1914.62
                             1921.35  1960.08  1964.05  1978.80  1989.69
                             2009.18  2027.01  2036.75  2083.79  2095.57
                             2108.85  2119.63  2125.03  2127.94  2137.96
                             2141.23  2152.47  2158.20  2167.22  2182.76
                             2329.12  2358.92  2411.48  2542.24  4342.21
                             4351.62  4372.36  4376.83  4403.62  4414.58
                             4425.31  4426.79  4448.51  4457.84  4474.01
                             4486.14  4490.26  4510.42  4518.09  4541.53
                             4548.76  4566.92  4585.45  4599.15  4640.26
                             4659.47

 Zero-point correction=                           0.359476 (Hartree/Particle)
 Thermal correction to Energy=                    0.387008
 Thermal correction to Enthalpy=                  0.387952
 Thermal correction to Gibbs Free Energy=         0.296788
 Sum of electronic and zero-point Energies=          -3531.073374
 Sum of electronic and thermal Energies=             -3531.045842
 Sum of electronic and thermal Enthalpies=           -3531.044898
 Sum of electronic and thermal Free Energies=        -3531.136062

                     E (Thermal)             CV                S
                      KCal/Mol        Cal/Mol-Kelvin    Cal/Mol-Kelvin
 Total                  242.851             97.695            191.872
 Electronic               0.000              0.000              3.561
 Translational            0.889              2.981             44.100
 Rotational               0.889              2.981             35.559
 Vibrational            241.074             91.733            108.651
 Vibration     1          0.593              1.986              6.936
 Vibration     2          0.593              1.985              6.274
 Vibration     3          0.593              1.984              5.880
 Vibration     4          0.595              1.979              4.969
 Vibration     5          0.595              1.977              4.797
 Vibration     6          0.597              1.973              4.463
 Vibration     7          0.597              1.971              4.298
 Vibration     8          0.600              1.963              3.889
 Vibration     9          0.601              1.958              3.731
 Vibration    10          0.603              1.954              3.576
 Vibration    11          0.604              1.949              3.440
 Vibration    12          0.605              1.946              3.382
 Vibration    13          0.607              1.937              3.191
 Vibration    14          0.609              1.934              3.118
 Vibration    15          0.611              1.926              2.996
 Vibration    16          0.615              1.913              2.805
 Vibration    17          0.617              1.907              2.718
 Vibration    18          0.621              1.895              2.583
 Vibration    19          0.626              1.878              2.426
 Vibration    20          0.630              1.866              2.320
 Vibration    21          0.638              1.839              2.129
 Vibration    22          0.641              1.830              2.071
 Vibration    23          0.650              1.801              1.911
 Vibration    24          0.666              1.754              1.693
 Vibration    25          0.668              1.746              1.664
 Vibration    26          0.688              1.687              1.457
 Vibration    27          0.703              1.643              1.331
 Vibration    28          0.708              1.630              1.296
 Vibration    29          0.724              1.583              1.184
 Vibration    30          0.730              1.566              1.146
 Vibration    31          0.747              1.520              1.053
 Vibration    32          0.760              1.486              0.990
 Vibration    33          0.764              1.475              0.972
 Vibration    34          0.766              1.470              0.962
 Vibration    35          0.775              1.446              0.923
 Vibration    36          0.788              1.413              0.870
 Vibration    37          0.813              1.351              0.783
 Vibration    38          0.837              1.293              0.708
 Vibration    39          0.861              1.238              0.645
 Vibration    40          0.875              1.205              0.609
 Vibration    41          0.900              1.150              0.554
 Vibration    42          0.948              1.052              0.467

 Optimization completed.
    -- Stationary point found.
 Normal termination of Gaussian 16 at Sun Jun 20 22:29:31 2021.

 ----------------------------------------------------------------------
 #p ub3lyp jul-cc-pvdz pop=cm5 scrf=(pcm,solvent=dichloroethane) guess=
 read geom=allcheck
 ----------------------------------------------------------------------

 Structure from the checkpoint file:  "checkpoint.chk"
 -----
 title
 -----
 Charge =  0 Multiplicity = 6

 SCF Done:  E(UB3LYP) =  -3531.45133668     A.U. after   18 cycles
 Normal termination of Gaussian 16 at Sun Jun 20 22:49:23 2021.
 Gaussian 16:  ES64L-G16RevA.03 25-Dec-2016

 ----------------------------------------------------------------------
 #p ub3lyp jul-cc-pvdz pop=cm5 scrf=(pcm,solvent=water) guess=read geom
 =allcheck
 ----------------------------------------------------------------------

 Structure from the checkpoint file:  "checkpoint.chk"
 -----
 title
 -----
 Charge =  0 Multiplicity = 6

                         Standard orientation:
 ---------------------------------------------------------------------
 Center     Atomic      Atomic             Coordinates (Angstroms)
 Number     Number       Type             X           Y           Z
 ---------------------------------------------------------------------
      1          6           0        3.238885    0.096746    0.456404
      2          6           0        1.916430   -0.317514    0.713890
      3          6           0        1.560657   -0.666700    2.032306
      4          6           0        2.502743   -0.617781    3.058811
      5          6           0        3.815252   -0.219000    2.787897
      6          6           0        4.177498    0.143381    1.484966
      7          6           0        0.855802   -0.346001   -0.334562
      8          6           0        0.927223    0.556663   -1.594287
      9          6           0        1.862877    0.064331   -2.705760
     10          6           0        1.611962   -1.433966   -2.909785
     11          6           0        1.659176   -2.112602   -1.568952
     12          6           0        0.693164   -2.885844   -1.005843
     13          6           0       -0.662573   -3.107584   -1.599310
     14          8           0       -0.302373   -0.722425    0.037478
     15         26           0       -2.150875   -0.192543    0.406016
     16         17           0       -3.001146    0.558018   -1.490177
     17          6           0        0.941982   -3.599586    0.287009
     18         17           0       -2.056002    1.293847    2.032633
     19         17           0       -3.130709   -2.046213    1.110346
     20          1           0        0.532788   -0.947354    2.249696
     21          1           0        2.207148   -0.881480    4.074784
     22          1           0        4.552600   -0.178693    3.591237
     23          1           0        5.195063    0.471487    1.270270
     24          1           0        3.540447    0.402074   -0.541140
     25          1           0       -0.104487    0.557410   -1.968971
     26          6           0        1.249525    2.006671   -1.194970
     27          1           0        1.664230    0.636755   -3.621995
     28          1           0        2.909988    0.255895   -2.444183
     29          1           0        0.645006   -1.589858   -3.403525
     30          1           0        2.381191   -1.858008   -3.573224
     31          1           0        2.639446   -2.120128   -1.089961
     32          1           0        1.968888   -3.475499    0.648697
     33          1           0        0.238586   -3.242326    1.055664
     34          1           0        0.738811   -4.675033    0.163074
     35          1           0       -0.701372   -4.130439   -2.010668
     36          1           0       -1.439765   -3.052779   -0.825499
     37          1           0       -0.916774   -2.411383   -2.403738
     38          8           0        0.176786    2.600875   -0.665462
     39          8           0        2.325798    2.539769   -1.365523
     40          6           0        0.331956    3.992658   -0.250234
     41          6           0       -1.047356    4.544483    0.042230
     42          1           0        0.983569    4.003577    0.634437
     43          1           0        0.841302    4.532910   -1.058195
     44          1           0       -0.952039    5.588951    0.373026
     45          1           0       -1.677803    4.520860   -0.857036
     46          1           0       -1.543408    3.967232    0.832415
 ---------------------------------------------------------------------

 SCF Done:  E(UB3LYP) =  -3531.45487540     A.U. after   17 cycles

 The electronic state is 6-A.
 Alpha  occ. eigenvalues -- -256.21184-101.52530-101.52472-101.52471 -30.20578
 Alpha  occ. eigenvalues --  -26.05978 -26.05772 -26.05678 -19.20839 -19.18443
 Alpha  occ. eigenvalues --  -19.15822 -10.33738 -10.33210 -10.25023 -10.23283
 Alpha  occ. eigenvalues --  -10.22998 -10.22435 -10.21437 -10.21386 -10.21321
 Alpha  occ. eigenvalues --  -10.20888 -10.20825 -10.20350 -10.20122 -10.19841
 Alpha  occ. eigenvalues --  -10.19196 -10.19008 -10.18573  -9.44250  -9.44199
 Alpha  occ. eigenvalues --   -9.44197  -7.20116  -7.20068  -7.20066  -7.19802
 Alpha  occ. eigenvalues --   -7.19791  -7.19750  -7.19744  -7.19738  -7.19736
 Alpha  occ. eigenvalues --   -3.68244  -2.45905  -2.45514  -2.45331  -1.12731
 Alpha  occ. eigenvalues --   -1.08799  -1.04223  -0.88222  -0.85752  -0.82994
 Alpha  occ. eigenvalues --   -0.80538  -0.79788  -0.79751  -0.78746  -0.78576
 Alpha  occ. eigenvalues --   -0.76855  -0.75041  -0.70962  -0.70172  -0.66962
 Alpha  occ. eigenvalues --   -0.64674  -0.62623  -0.61745  -0.59781  -0.57657
 Alpha  occ. eigenvalues --   -0.55967  -0.53986  -0.53287  -0.51780  -0.50501
 Alpha  occ. eigenvalues --   -0.49880  -0.49178  -0.48939  -0.48470  -0.48316
 Alpha  occ. eigenvalues --   -0.48036  -0.47523  -0.47155  -0.46924  -0.45795
 Alpha  occ. eigenvalues --   -0.45614  -0.44983  -0.43897  -0.43125  -0.42756
 Alpha  occ. eigenvalues --   -0.42342  -0.41045  -0.40473  -0.40084  -0.39791
 Alpha  occ. eigenvalues --   -0.38863  -0.38490  -0.37986  -0.37713  -0.37683
 Alpha  occ. eigenvalues --   -0.37355  -0.37037  -0.36381  -0.36088  -0.35400
 Alpha  occ. eigenvalues --   -0.34820  -0.34254  -0.34021  -0.32390  -0.32221
 Alpha  occ. eigenvalues --   -0.31339  -0.31319  -0.30957  -0.30791  -0.30208
 Alpha  occ. eigenvalues --   -0.29892  -0.29549  -0.28443  -0.27553  -0.25555
 Alpha virt. eigenvalues --   -0.10869  -0.03276  -0.02493  -0.01697  -0.01151
 Alpha virt. eigenvalues --   -0.00167   0.00009   0.00060   0.01294   0.01509
 Alpha virt. eigenvalues --    0.01703   0.01988   0.02517   0.02768   0.03220

  Beta  occ. eigenvalues -- -256.20999-101.52343-101.52286-101.52282 -30.11629
  Beta  occ. eigenvalues --  -25.98401 -25.98354 -25.98297 -19.20839 -19.18013
  Beta  occ. eigenvalues --  -19.15821 -10.33738 -10.33196 -10.25023 -10.23253
  Beta  occ. eigenvalues --  -10.22986 -10.22415 -10.21438 -10.21387 -10.21323
  Beta  occ. eigenvalues --  -10.20885 -10.20825 -10.20347 -10.20091 -10.19842
  Beta  occ. eigenvalues --  -10.19197 -10.19009 -10.18572  -9.44066  -9.44016
  Beta  occ. eigenvalues --   -9.44012  -7.19811  -7.19759  -7.19759  -7.19549
  Beta  occ. eigenvalues --   -7.19538  -7.19497  -7.19493  -7.19489  -7.19479
  Beta  occ. eigenvalues --   -3.47376  -2.23645  -2.23595  -2.23533  -1.12727
  Beta  occ. eigenvalues --   -1.07973  -1.04220  -0.88183  -0.85684  -0.82936
  Beta  occ. eigenvalues --   -0.79332  -0.78750  -0.78547  -0.78476  -0.78406
  Beta  occ. eigenvalues --   -0.76850  -0.75011  -0.70942  -0.70073  -0.66820
  Beta  occ. eigenvalues --   -0.64612  -0.62594  -0.61660  -0.59346  -0.57413
  Beta  occ. eigenvalues --   -0.55458  -0.53894  -0.52595  -0.51706  -0.50313
  Beta  occ. eigenvalues --   -0.49490  -0.48925  -0.47840  -0.47530  -0.46941
  Beta  occ. eigenvalues --   -0.45742  -0.45070  -0.43903  -0.43136  -0.42756
  Beta  occ. eigenvalues --   -0.42304  -0.41077  -0.40439  -0.40087  -0.39798
  Beta  occ. eigenvalues --   -0.38768  -0.38500  -0.38211  -0.37957  -0.37660
  Beta  occ. eigenvalues --   -0.37293  -0.37059  -0.36421  -0.36208  -0.36150
  Beta  occ. eigenvalues --   -0.36022  -0.35394  -0.34200  -0.33506  -0.33275
  Beta  occ. eigenvalues --   -0.32746  -0.32586  -0.32165  -0.31396  -0.30482
  Beta  occ. eigenvalues --   -0.29768  -0.29533  -0.28564  -0.27554  -0.25428
  Beta virt. eigenvalues --   -0.15209  -0.14700  -0.13800  -0.13492  -0.13303
  Beta virt. eigenvalues --   -0.10060  -0.03259  -0.02442  -0.01615  -0.01074
  Beta virt. eigenvalues --   -0.00126   0.00039   0.00094   0.01384   0.01538

 Mulliken charges and spin densities:
               1          2
     1  C    0.226320  -0.000420
     2  C    2.995831   0.003421
     3  C   -0.579813  -0.006968
     4  C    0.043206   0.003105
     5  C    0.289853   0.000300
     6  C   -0.080794   0.002211
     7  C   -2.441769  -0.004317
     8  C    0.437312   0.008601
     9  C    0.517451   0.002733
    10  C    0.675020  -0.001311
    11  C    0.314839   0.017041
    12  C   -0.087892   0.019320
    13  C    0.162000  -0.000967
    14  O   -0.280424   0.124412
    15  Fe   0.655771   4.067843
    16  Cl  -0.505304   0.247320
    17  C    0.282579  -0.000397
    18  Cl  -0.466475   0.256911
    19  Cl  -0.483115   0.253015
    20  H   -0.250092   0.000138
    21  H   -0.157903   0.000011
    22  H   -0.151782   0.000004
    23  H   -0.154255   0.000148
    24  H   -0.237474  -0.000112
    25  H   -0.183237  -0.000286
    26  C    0.743577   0.000360
    27  H   -0.136954   0.000258
    28  H   -0.007789  -0.000025
    29  H   -0.088522   0.000041
    30  H   -0.113458   0.001073
    31  H   -0.267487  -0.000890
    32  H   -0.008065   0.000009
    33  H    0.075613   0.000652
    34  H   -0.020364   0.001137
    35  H   -0.002571   0.001317
    36  H    0.064895   0.001961
    37  H    0.034375  -0.000086
    38  O   -0.660490   0.002254
    39  O   -0.597348   0.000919
    40  C    0.425711   0.000821
    41  C    0.039105  -0.001361
    42  H   -0.034203   0.000044
    43  H   -0.035515   0.000019
    44  H   -0.006489   0.000042
    45  H    0.026811   0.000070
    46  H    0.029316  -0.000370
 Sum of Mulliken charges =  -0.00000   5.00000

 Dipole moment (field-independent basis, Debye):
    X=             10.5207    Y=             -2.8790    Z=             -2.3173  Tot=             11.1510
 Quadrupole moment (field-independent basis, Debye-Ang):
   XX=           -191.4517   YY=           -163.4703   ZZ=           -168.8165
   XY=            -10.6204   XZ=             10.0317   YZ=              5.6497

 Normal termination of Gaussian 16 at Sun Jun 20 23:08:12 2021.
