 Gaussian 16, Revision A.03,

 -----------------------------------------------------------
 #p opt=modredundant freq=noraman ub3lyp jul-cc-pvdz pop=cm5
 -----------------------------------------------------------

 -----
 title
 -----
 Symbolic Z-matrix:
 Charge =  0 Multiplicity = 6

 SCF Done:  E(UB3LYP) =  -3531.39690216     A.U. after   26 cycles
 SCF Done:  E(UB3LYP) =  -3531.39606288     A.U. after   19 cycles
 SCF Done:  E(UB3LYP) =  -3531.39108804     A.U. after   22 cycles
 SCF Done:  E(UB3LYP) =  -3531.39063083     A.U. after   21 cycles
 SCF Done:  E(UB3LYP) =  -3531.39701519     A.U. after   15 cycles
 SCF Done:  E(UB3LYP) =  -3531.39700876     A.U. after   19 cycles
 SCF Done:  E(UB3LYP) =  -3531.39727364     A.U. after   18 cycles
 SCF Done:  E(UB3LYP) =  -3531.39735159     A.U. after   18 cycles
 SCF Done:  E(UB3LYP) =  -3531.39741904     A.U. after   17 cycles
 SCF Done:  E(UB3LYP) =  -3531.39750419     A.U. after   14 cycles
 SCF Done:  E(UB3LYP) =  -3531.39752075     A.U. after   13 cycles
 SCF Done:  E(UB3LYP) =  -3531.39752074     A.U. after   10 cycles
 SCF Done:  E(UB3LYP) =  -3531.39752195     A.U. after   13 cycles
 SCF Done:  E(UB3LYP) =  -3531.39752068     A.U. after   13 cycles
 SCF Done:  E(UB3LYP) =  -3531.39752066     A.U. after    9 cycles
 SCF Done:  E(UB3LYP) =  -3531.39752182     A.U. after   13 cycles
 SCF Done:  E(UB3LYP) =  -3531.39752059     A.U. after   12 cycles
 Optimization completed.
    -- Stationary point found.
 Normal termination of Gaussian 16 at Sun Jun 20 08:43:15 2021.

 ----------------------------------------------------------------------
 #P Geom=AllCheck Guess=TCheck SCRF=Check GenChk UB3LYP/Jul-CC-pVDZ Fre
 q
 ----------------------------------------------------------------------

 Structure from the checkpoint file:  "checkpoint.chk"
 -----
 title
 -----
 Charge =  0 Multiplicity = 6

 SCF Done:  E(UB3LYP) =  -3531.39752059     A.U. after    1 cycles

  Exact polarizability: 323.056  11.417 298.203  12.978  13.689 306.537
 Approx polarizability: 503.452  39.304 460.197  15.390  23.945 514.024

 ******    2 imaginary frequencies (negative Signs) ******

                      1                      2                      3
                      A                      A                      A
 Frequencies --   -323.4694               -34.9260                24.6574
 Red. masses --      7.3242                 5.2719                 8.4295
 Frc consts  --      0.4515                 0.0038                 0.0030
 IR Inten    --    235.3608                 0.9697                 1.2383

                      4                      5                      6
                      A                      A                      A
 Frequencies --     28.8133                41.7613                48.8637
 Red. masses --      6.0391                 5.7691                 4.2231
 Frc consts  --      0.0030                 0.0059                 0.0059
 IR Inten    --      0.2489                 0.7912                 1.7565

                      7                      8                      9
                      A                      A                      A
 Frequencies --     56.8075                57.8270                67.2515
 Red. masses --      3.6033                 6.8281                 3.5574
 Frc consts  --      0.0069                 0.0135                 0.0095
 IR Inten    --      0.9909                 0.7519                 0.6626

                     10                     11                     12
                      A                      A                      A
 Frequencies --     82.5040                91.6122                96.3145
 Red. masses --      8.6497                 6.3377                 6.3686
 Frc consts  --      0.0347                 0.0313                 0.0348
 IR Inten    --      0.6016                 0.6144                 3.9017

                     13                     14                     15
                      A                      A                      A
 Frequencies --    105.7084               108.6637               119.4550
 Red. masses --      8.7598                 4.3744                20.4101
 Frc consts  --      0.0577                 0.0304                 0.1716
 IR Inten    --      2.9675                 3.1047                 0.7242

                     16                     17                     18
                      A                      A                      A
 Frequencies --    126.0411               147.1745               167.6684
 Red. masses --      8.7943                 4.4464                 3.4544
 Frc consts  --      0.0823                 0.0567                 0.0572
 IR Inten    --      2.3227                 2.9667                 3.5377

                     19                     20                     21
                      A                      A                      A
 Frequencies --    191.5429               193.7610               196.9465
 Red. masses --      1.9314                 1.8157                 3.0239
 Frc consts  --      0.0417                 0.0402                 0.0691
 IR Inten    --      0.5779                 2.6485                 4.8545

                     22                     23                     24
                      A                      A                      A
 Frequencies --    212.4260               228.3304               231.3244
 Red. masses --      2.1014                 2.0295                 1.7418
 Frc consts  --      0.0559                 0.0623                 0.0549
 IR Inten    --      1.9629                 3.9299                 4.7752

                     25                     26                     27
                      A                      A                      A
 Frequencies --    245.9459               260.5181               292.5260
 Red. masses --      2.5403                 2.0126                 3.9364
 Frc consts  --      0.0905                 0.0805                 0.1985
 IR Inten    --      6.1054                 3.2399                 5.5046

                     28                     29                     30
                      A                      A                      A
 Frequencies --    318.7364               331.9024               343.4365
 Red. masses --      2.1694                 6.5892                 8.0474
 Frc consts  --      0.1299                 0.4277                 0.5592
 IR Inten    --      0.7313                 7.1949                44.7818

                     31                     32                     33
                      A                      A                      A
 Frequencies --    352.8687               385.6254               386.9314
 Red. masses --      7.7681                 6.1921                 9.5579
 Frc consts  --      0.5699                 0.5425                 0.8431
 IR Inten    --      7.4580                34.8708                51.7069

                     34                     35                     36
                      A                      A                      A
 Frequencies --    393.2264               401.6087               411.3997
 Red. masses --     27.2182                 2.7542                 2.8639
 Frc consts  --      2.4797                 0.2617                 0.2856
 IR Inten    --     72.8225                14.7146                 1.6992

                     37                     38                     39
                      A                      A                      A
 Frequencies --    429.0318               452.9961               477.5890
 Red. masses --      3.4207                 4.0923                 3.3359
 Frc consts  --      0.3710                 0.4948                 0.4483
 IR Inten    --     13.8535                20.3866                10.5240

                     40                     41                     42
                      A                      A                      A
 Frequencies --    502.2992               518.3599               563.6311
 Red. masses --      3.8752                 2.6099                 3.6808
 Frc consts  --      0.5761                 0.4132                 0.6889
 IR Inten    --     27.3607                 2.8798                51.5299

                     43                     44                     45
                      A                      A                      A
 Frequencies --    598.7827               625.0419               637.6204
 Red. masses --      3.2669                 6.1103                 4.4109
 Frc consts  --      0.6901                 1.4065                 1.0566
 IR Inten    --     23.6620                17.1263               115.6490

                     46                     47                     48
                      A                      A                      A
 Frequencies --    691.0599               701.1727               756.0200
 Red. masses --      1.6158                 6.0009                 4.6910
 Frc consts  --      0.4546                 1.7383                 1.5797
 IR Inten    --     52.8600                24.1929                 7.8852

                     49                     50                     51
                      A                      A                      A
 Frequencies --    766.4463               788.2376               800.8961
 Red. masses --      2.3418                 2.4368                 1.4963
 Frc consts  --      0.8105                 0.8920                 0.5655
 IR Inten    --     11.4354                 9.3643                10.5320

                     52                     53                     54
                      A                      A                      A
 Frequencies --    817.1184               839.7928               852.2176
 Red. masses --      2.4181                 1.2574                 1.3920
 Frc consts  --      0.9513                 0.5225                 0.5956
 IR Inten    --     23.5881                 1.8050                22.2781

                     55                     56                     57
                      A                      A                      A
 Frequencies --    862.6021               883.9973               915.6143
 Red. masses --      2.5999                 1.9241                 1.8065
 Frc consts  --      1.1398                 0.8859                 0.8923
 IR Inten    --     31.6336                 4.9355                 7.1387

                     58                     59                     60
                      A                      A                      A
 Frequencies --    926.2554               942.4098               960.5119
 Red. masses --      1.4175                 1.4150                 3.3677
 Frc consts  --      0.7165                 0.7404                 1.8306
 IR Inten    --     18.6199                 0.8513                25.3737

                     61                     62                     63
                      A                      A                      A
 Frequencies --    985.8531               988.6009               997.0042
 Red. masses --      1.8527                 1.8790                 1.9780
 Frc consts  --      1.0609                 1.0820                 1.1584
 IR Inten    --     14.0834                18.1147                 3.0971

                     64                     65                     66
                      A                      A                      A
 Frequencies --   1002.5888              1007.9558              1011.0009
 Red. masses --      2.8536                 1.6563                 1.4036
 Frc consts  --      1.6900                 0.9915                 0.8453
 IR Inten    --      2.7954                 1.5219                 4.2912

                     67                     68                     69
                      A                      A                      A
 Frequencies --   1036.1875              1045.8492              1064.6466
 Red. masses --      2.6979                 2.5714                 1.9672
 Frc consts  --      1.7067                 1.6572                 1.3138
 IR Inten    --     43.3357                 4.8516                50.7231

                     70                     71                     72
                      A                      A                      A
 Frequencies --   1069.1116              1091.1653              1112.2048
 Red. masses --      1.9606                 1.9567                 1.5787
 Frc consts  --      1.3203                 1.3727                 1.1506
 IR Inten    --     20.8690                 8.9691                12.4967

                     73                     74                     75
                      A                      A                      A
 Frequencies --   1132.8592              1136.5293              1161.9332
 Red. masses --      2.1204                 2.2065                 1.7145
 Frc consts  --      1.6033                 1.6793                 1.3638
 IR Inten    --     10.8233                11.5718                61.8706

                     76                     77                     78
                      A                      A                      A
 Frequencies --   1170.1739              1177.0659              1195.6104
 Red. masses --      1.5730                 1.0866                 1.6848
 Frc consts  --      1.2690                 0.8870                 1.4190
 IR Inten    --      5.3062                 1.1507                40.7760

                     79                     80                     81
                      A                      A                      A
 Frequencies --   1205.2481              1217.7646              1243.6846
 Red. masses --      1.3113                 1.9382                 3.1927
 Frc consts  --      1.1223                 1.6935                 2.9096
 IR Inten    --     31.1522                32.6284               197.0250

                     82                     83                     84
                      A                      A                      A
 Frequencies --   1254.2175              1277.0970              1287.6599
 Red. masses --      1.9284                 2.0647                 1.2106
 Frc consts  --      1.7872                 1.9840                 1.1826
 IR Inten    --     43.5820               301.2227                51.9478

                     85                     86                     87
                      A                      A                      A
 Frequencies --   1319.2646              1327.7554              1336.0504
 Red. masses --      1.3876                 1.4941                 1.6699
 Frc consts  --      1.4230                 1.5519                 1.7562
 IR Inten    --     28.0562                47.6916                45.0793

                     88                     89                     90
                      A                      A                      A
 Frequencies --   1354.9202              1357.9235              1364.1090
 Red. masses --      1.5987                 1.4138                 3.3040
 Frc consts  --      1.7292                 1.5360                 3.6224
 IR Inten    --     37.4242                30.3222                11.8181

                     91                     92                     93
                      A                      A                      A
 Frequencies --   1382.7245              1384.8014              1397.0995
 Red. masses --      1.4253                 1.4584                 1.3647
 Frc consts  --      1.6056                 1.6478                 1.5694
 IR Inten    --     49.6614                95.0019                54.5019

                     94                     95                     96
                      A                      A                      A
 Frequencies --   1406.7386              1416.0323              1459.0540
 Red. masses --      1.3244                 1.4173                 1.0963
 Frc consts  --      1.5442                 1.6745                 1.3751
 IR Inten    --     26.9317                 3.5999                 7.8274

                     97                     98                     99
                      A                      A                      A
 Frequencies --   1462.7893              1471.7247              1473.2496
 Red. masses --      1.0854                 2.2539                 1.0409
 Frc consts  --      1.3683                 2.8763                 1.3311
 IR Inten    --     11.0878                30.2468                 4.4391

                    100                    101                    102
                      A                      A                      A
 Frequencies --   1475.1963              1486.6114              1487.4094
 Red. masses --      1.0998                 1.0968                 1.0542
 Frc consts  --      1.4102                 1.4281                 1.3742
 IR Inten    --      4.0368                20.3290                 1.9855

                    103                    104                    105
                      A                      A                      A
 Frequencies --   1497.0222              1505.5505              1506.2869
 Red. masses --      1.1479                 1.0837                 1.0954
 Frc consts  --      1.5156                 1.4473                 1.4643
 IR Inten    --      5.2874                 5.0608                21.8892

                    106                    107                    108
                      A                      A                      A
 Frequencies --   1516.5728              1594.1658              1616.5582
 Red. masses --      1.9158                 4.4724                 5.3988
 Frc consts  --      2.5961                 6.6967                 8.3125
 IR Inten    --      1.2389               167.4249                 6.0994

                    109                    110                    111
                      A                      A                      A
 Frequencies --   1638.6496              1766.0079              3015.4177
 Red. masses --      5.6178                11.4519                 1.0507
 Frc consts  --      8.8876                21.0433                 5.6291
 IR Inten    --     33.5194               234.3461                 0.8322

                    112                    113                    114
                      A                      A                      A
 Frequencies --   3022.9258              3042.0648              3049.8859
 Red. masses --      1.0483                 1.0360                 1.0628
 Frc consts  --      5.6442                 5.6489                 5.8248
 IR Inten    --      5.2177                19.2447                26.4751

                    115                    116                    117
                      A                      A                      A
 Frequencies --   3062.0176              3068.5976              3082.0546
 Red. masses --      1.0588                 1.0652                 1.0855
 Frc consts  --      5.8492                 5.9097                 6.0754
 IR Inten    --     13.8209                32.7730                 0.2715

                    118                    119                    120
                      A                      A                      A
 Frequencies --   3095.8349              3100.1437              3110.2658
 Red. masses --      1.1007                 1.0852                 1.1058
 Frc consts  --      6.2157                 6.1453                 6.3024
 IR Inten    --      4.0895                 5.3897                 9.9840

                    121                    122                    123
                      A                      A                      A
 Frequencies --   3118.3054              3120.6538              3125.6870
 Red. masses --      1.1024                 1.0829                 1.0973
 Frc consts  --      6.3160                 6.2133                 6.3166
 IR Inten    --     15.8231                 0.2092                17.1918

                    124                    125                    126
                      A                      A                      A
 Frequencies --   3141.0440              3151.8941              3170.6866
 Red. masses --      1.1046                 1.1054                 1.1037
 Frc consts  --      6.4209                 6.4703                 6.5377
 IR Inten    --     13.5884                 1.4982                 2.8500

                    127                    128                    129
                      A                      A                      A
 Frequencies --   3173.5349              3174.4159              3187.8046
 Red. masses --      1.0886                 1.0862                 1.0913
 Frc consts  --      6.4596                 6.4490                 6.5343
 IR Inten    --      7.4705                 0.7931                 6.8679

                    130                    131                    132
                      A                      A                      A
 Frequencies --   3197.0072              3233.7941              3242.6140
 Red. masses --      1.0970                 1.0921                 1.0913
 Frc consts  --      6.6063                 6.7291                 6.7608
 IR Inten    --     13.0207                 1.4654                 1.3707

 - Thermochemistry -
 -------------------
 Temperature   298.150 Kelvin.  Pressure   1.00000 Atm.
 Atom     1 has atomic number  6 and mass  12.00000

 Molecular mass:   434.99839 amu.
 Principal axes and moments of inertia in atomic units:
                           1         2         3
     Eigenvalues --  9067.95899********************
           X            0.99909  -0.03968   0.01568
           Y            0.03913   0.99866   0.03388
           Z           -0.01701  -0.03324   0.99930
 This molecule is an asymmetric top.
 Rotational symmetry number  1.
 Warning -- assumption of classical behavior for rotation
           may cause significant error
 Rotational temperatures (Kelvin)      0.00955     0.00801     0.00699
 Rotational constants (GHZ):           0.19902     0.16700     0.14566
    2 imaginary frequencies ignored.
 Zero-point vibrational energy     942793.8 (Joules/Mol)
                                  225.33313 (Kcal/Mol)
 Warning -- explicit consideration of  41 degrees of freedom as
           vibrations may cause significant error
 Vibrational temperatures:     35.48    41.46    60.09    70.30    81.73
          (Kelvin)             83.20    96.76   118.70   131.81   138.58
                              152.09   156.34   171.87   181.34   211.75
                              241.24   275.59   278.78   283.36   305.63
                              328.52   332.82   353.86   374.83   420.88
                              458.59   477.53   494.13   507.70   554.83
                              556.71   565.77   577.83   591.91   617.28
                              651.76   687.14   722.70   745.80   810.94
                              861.51   899.30   917.39   994.28  1008.83
                             1087.74  1102.75  1134.10  1152.31  1175.65
                             1208.27  1226.15  1241.09  1271.87  1317.36
                             1332.67  1355.92  1381.96  1418.42  1422.38
                             1434.47  1442.50  1450.22  1454.60  1490.84
                             1504.74  1531.79  1538.21  1569.94  1600.21
                             1629.93  1635.21  1671.76  1683.62  1693.54
                             1720.22  1734.08  1752.09  1789.38  1804.54
                             1837.46  1852.66  1898.13  1910.34  1922.28
                             1949.43  1953.75  1962.65  1989.43  1992.42
                             2010.11  2023.98  2037.35  2099.25  2104.63
                             2117.48  2119.68  2122.48  2138.90  2140.05
                             2153.88  2166.15  2167.21  2182.01  2293.65
                             2325.87  2357.65  2540.89  4338.51  4349.32
                             4376.85  4388.11  4405.56  4415.03  4434.39
                             4454.22  4460.42  4474.98  4486.55  4489.92
                             4497.17  4519.26  4534.87  4561.91  4566.01
                             4567.28  4586.54  4599.78  4652.71  4665.40

 Zero-point correction=                           0.359091 (Hartree/Particle)
 Thermal correction to Energy=                    0.385604
 Thermal correction to Enthalpy=                  0.386548
 Thermal correction to Gibbs Free Energy=         0.298798
 Sum of electronic and zero-point Energies=          -3531.038429
 Sum of electronic and thermal Energies=             -3531.011916
 Sum of electronic and thermal Enthalpies=           -3531.010972
 Sum of electronic and thermal Free Energies=        -3531.098722

                     E (Thermal)             CV                S
                      KCal/Mol        Cal/Mol-Kelvin    Cal/Mol-Kelvin
 Total                  241.970             95.774            184.686
 Electronic               0.000              0.000              3.561
 Translational            0.889              2.981             44.100
 Rotational               0.889              2.981             35.450
 Vibrational            240.193             89.812            101.575
 Vibration     1          0.593              1.985              6.219
 Vibration     2          0.593              1.984              5.909
 Vibration     3          0.594              1.980              5.174
 Vibration     4          0.595              1.978              4.863
 Vibration     5          0.596              1.975              4.565
 Vibration     6          0.596              1.974              4.530
 Vibration     7          0.598              1.970              4.232
 Vibration     8          0.600              1.961              3.830
 Vibration     9          0.602              1.955              3.625
 Vibration    10          0.603              1.952              3.528
 Vibration    11          0.605              1.945              3.346
 Vibration    12          0.606              1.942              3.293
 Vibration    13          0.609              1.933              3.109
 Vibration    14          0.611              1.927              3.006
 Vibration    15          0.617              1.906              2.708
 Vibration    16          0.624              1.882              2.461
 Vibration    17          0.634              1.852              2.213
 Vibration    18          0.635              1.849              2.192
 Vibration    19          0.636              1.844              2.161
 Vibration    20          0.643              1.822              2.023
 Vibration    21          0.651              1.798              1.892
 Vibration    22          0.653              1.793              1.869
 Vibration    23          0.660              1.769              1.759
 Vibration    24          0.669              1.745              1.658
 Vibration    25          0.688              1.688              1.459
 Vibration    26          0.705              1.638              1.317
 Vibration    27          0.714              1.612              1.251
 Vibration    28          0.722              1.589              1.196
 Vibration    29          0.729              1.569              1.153
 Vibration    30          0.754              1.501              1.017
 Vibration    31          0.755              1.498              1.012
 Vibration    32          0.760              1.485              0.988
 Vibration    33          0.767              1.467              0.957
 Vibration    34          0.775              1.445              0.922
 Vibration    35          0.790              1.407              0.862
 Vibration    36          0.812              1.354              0.787
 Vibration    37          0.834              1.300              0.717
 Vibration    38          0.858              1.245              0.652
 Vibration    39          0.873              1.209              0.614
 Vibration    40          0.919              1.110              0.517
 Vibration    41          0.957              1.034              0.452

 Optimization completed.
    -- Stationary point found.
 Normal termination of Gaussian 16 at Sun Jun 20 13:04:38 2021.

 ----------------------------------------------------------------------
 #p ub3lyp jul-cc-pvdz pop=cm5 scrf=(pcm,solvent=dichloroethane) guess=
 read geom=allcheck
 ----------------------------------------------------------------------

 Structure from the checkpoint file:  "checkpoint.chk"
 -----
 title
 -----
 Charge =  0 Multiplicity = 6

 SCF Done:  E(UB3LYP) =  -3531.41679906     A.U. after   20 cycles
 Normal termination of Gaussian 16 at Sun Jun 20 13:30:38 2021.
 Gaussian 16:  ES64L-G16RevA.03 25-Dec-2016

 ----------------------------------------------------------------------
 #p ub3lyp jul-cc-pvdz pop=cm5 scrf=(pcm,solvent=water) guess=read geom
 =allcheck
 ----------------------------------------------------------------------

 Structure from the checkpoint file:  "checkpoint.chk"
 -----
 title
 -----
 Charge =  0 Multiplicity = 6

                         Standard orientation:
 ---------------------------------------------------------------------
 Center     Atomic      Atomic             Coordinates (Angstroms)
 Number     Number       Type             X           Y           Z
 ---------------------------------------------------------------------
      1          6           0        3.200122   -0.067869    0.558446
      2          6           0        1.857692   -0.474400    0.717677
      3          6           0        1.420730   -0.874592    1.997835
      4          6           0        2.298212   -0.871934    3.081600
      5          6           0        3.627186   -0.476193    2.907342
      6          6           0        4.073127   -0.071323    1.642599
      7          6           0        0.879685   -0.469855   -0.399605
      8          6           0        1.027100    0.496901   -1.603378
      9          6           0        2.023870    0.015205   -2.669396
     10          6           0        1.761901   -1.479548   -2.937036
     11          6           0        1.544207   -2.174713   -1.621024
     12          6           0        0.324854   -2.601336   -1.129978
     13          6           0       -0.925807   -2.594488   -1.958673
     14          8           0       -0.332664   -0.882137   -0.119023
     15         26           0       -2.036489   -0.120538    0.435968
     16         17           0       -2.942417    0.792933   -1.367323
     17          6           0        0.289614   -3.469901    0.089297
     18         17           0       -1.701424    1.286173    2.107947
     19         17           0       -3.154006   -1.912674    1.126643
     20          1           0        0.382336   -1.159361    2.143793
     21          1           0        1.937839   -1.170652    4.066407
     22          1           0        4.313809   -0.473137    3.755426
     23          1           0        5.105447    0.251155    1.503032
     24          1           0        3.566366    0.268351   -0.406545
     25          1           0        0.019641    0.536005   -2.035963
     26          6           0        1.354976    1.925109   -1.137490
     27          1           0        1.902308    0.617656   -3.580027
     28          1           0        3.052669    0.177327   -2.328992
     29          1           0        0.891509   -1.594606   -3.595191
     30          1           0        2.619027   -1.921331   -3.465233
     31          1           0        2.434158   -2.451454   -1.056019
     32          1           0        0.249570   -4.513879   -0.266044
     33          1           0        1.189432   -3.365611    0.705737
     34          1           0       -0.609644   -3.295495    0.690268
     35          1           0       -0.874122   -3.481642   -2.613897
     36          1           0       -1.821283   -2.686713   -1.336544
     37          1           0       -1.028554   -1.715126   -2.599830
     38          8           0        0.254106    2.539974   -0.699523
     39          8           0        2.459071    2.425955   -1.187097
     40          6           0        0.407656    3.910326   -0.217800
     41          6           0       -0.977449    4.498582   -0.050139
     42          1           0        0.960719    3.866729    0.730411
     43          1           0        1.016054    4.460107   -0.947054
     44          1           0       -0.885340    5.528877    0.323373
     45          1           0       -1.512373    4.522604   -1.009260
     46          1           0       -1.567605    3.914673    0.666938
 ---------------------------------------------------------------------

 SCF Done:  E(UB3LYP) =  -3531.42048838     A.U. after   18 cycles

 The electronic state is 6-A.
 Alpha  occ. eigenvalues -- -256.20290-101.52106-101.52071-101.52065 -30.19631
 Alpha  occ. eigenvalues --  -26.04945 -26.04881 -26.04785 -19.20757 -19.17320
 Alpha  occ. eigenvalues --  -19.15741 -10.33674 -10.33283 -10.26259 -10.24972
 Alpha  occ. eigenvalues --  -10.23023 -10.22457 -10.21426 -10.21416 -10.21356
 Alpha  occ. eigenvalues --  -10.20881 -10.20816 -10.20731 -10.20503 -10.20039
 Alpha  occ. eigenvalues --  -10.19654 -10.19570 -10.18535  -9.43825  -9.43791
 Alpha  occ. eigenvalues --   -9.43780  -7.19691  -7.19656  -7.19644  -7.19373
 Alpha  occ. eigenvalues --   -7.19365  -7.19335  -7.19331  -7.19326  -7.19323
 Alpha  occ. eigenvalues --   -3.67333  -2.44856  -2.44685  -2.44517  -1.12664
 Alpha  occ. eigenvalues --   -1.07766  -1.04155  -0.88238  -0.86305  -0.83587
 Alpha  occ. eigenvalues --   -0.80107  -0.79378  -0.79329  -0.78730  -0.78633
 Alpha  occ. eigenvalues --   -0.76874  -0.75070  -0.71846  -0.70811  -0.66871
 Alpha  occ. eigenvalues --   -0.64764  -0.62629  -0.61819  -0.59670  -0.57494
 Alpha  occ. eigenvalues --   -0.56079  -0.54001  -0.53182  -0.51745  -0.50952
 Alpha  occ. eigenvalues --   -0.50172  -0.49532  -0.49041  -0.47952  -0.47747
 Alpha  occ. eigenvalues --   -0.47654  -0.47450  -0.46903  -0.46580  -0.46080
 Alpha  occ. eigenvalues --   -0.45048  -0.44939  -0.43867  -0.43109  -0.42870
 Alpha  occ. eigenvalues --   -0.42485  -0.41023  -0.40554  -0.40260  -0.39995
 Alpha  occ. eigenvalues --   -0.39018  -0.38646  -0.38268  -0.37875  -0.37597
 Alpha  occ. eigenvalues --   -0.37118  -0.37044  -0.36351  -0.36009  -0.35683
 Alpha  occ. eigenvalues --   -0.34496  -0.34183  -0.33781  -0.32251  -0.31911
 Alpha  occ. eigenvalues --   -0.31022  -0.30939  -0.30661  -0.30610  -0.30019
 Alpha  occ. eigenvalues --   -0.29562  -0.29288  -0.28486  -0.27521  -0.24569
 Alpha virt. eigenvalues --   -0.11179  -0.03194  -0.02546  -0.01711  -0.01322
 Alpha virt. eigenvalues --   -0.00125   0.00010   0.00066   0.01097   0.01570
 Alpha virt. eigenvalues --    0.01712   0.01962   0.02456   0.02784   0.03198

  Beta  occ. eigenvalues -- -256.20105-101.51924-101.51899-101.51889 -30.10735
  Beta  occ. eigenvalues --  -25.97486 -25.97453 -25.97425 -19.20756 -19.16785
  Beta  occ. eigenvalues --  -19.15740 -10.33676 -10.33303 -10.26242 -10.24972
  Beta  occ. eigenvalues --  -10.23011 -10.22438 -10.21431 -10.21423 -10.21365
  Beta  occ. eigenvalues --  -10.20877 -10.20813 -10.20615 -10.20494 -10.20044
  Beta  occ. eigenvalues --  -10.19653 -10.19568 -10.18535  -9.43647  -9.43622
  Beta  occ. eigenvalues --   -9.43607  -7.19394  -7.19366  -7.19355  -7.19130
  Beta  occ. eigenvalues --   -7.19119  -7.19108  -7.19104  -7.19094  -7.19084
  Beta  occ. eigenvalues --   -3.46574  -2.22873  -2.22790  -2.22754  -1.12661
  Beta  occ. eigenvalues --   -1.06756  -1.04154  -0.88195  -0.86145  -0.83538
  Beta  occ. eigenvalues --   -0.78974  -0.78746  -0.78573  -0.78115  -0.78103
  Beta  occ. eigenvalues --   -0.76874  -0.75013  -0.71814  -0.70662  -0.66772
  Beta  occ. eigenvalues --   -0.64714  -0.62600  -0.61767  -0.59303  -0.57296
  Beta  occ. eigenvalues --   -0.55619  -0.53927  -0.52430  -0.51712  -0.50493
  Beta  occ. eigenvalues --   -0.49604  -0.49121  -0.48716  -0.47723  -0.47196
  Beta  occ. eigenvalues --   -0.45956  -0.45174  -0.43887  -0.43115  -0.42922
  Beta  occ. eigenvalues --   -0.42426  -0.41000  -0.40563  -0.40250  -0.40002
  Beta  occ. eigenvalues --   -0.38971  -0.38534  -0.38174  -0.37872  -0.37778
  Beta  occ. eigenvalues --   -0.37462  -0.37034  -0.36370  -0.36013  -0.35735
  Beta  occ. eigenvalues --   -0.35689  -0.35616  -0.34295  -0.33230  -0.32871
  Beta  occ. eigenvalues --   -0.32392  -0.32307  -0.32048  -0.31031  -0.30411
  Beta  occ. eigenvalues --   -0.29528  -0.29356  -0.28720  -0.27530  -0.24544
  Beta virt. eigenvalues --   -0.14313  -0.13924  -0.13172  -0.12894  -0.12735
  Beta virt. eigenvalues --   -0.10634  -0.03184  -0.02459  -0.01653  -0.01198
  Beta virt. eigenvalues --   -0.00086   0.00057   0.00094   0.01267   0.01590

 Mulliken charges and spin densities:
               1          2
     1  C    0.231676  -0.003177
     2  C    2.940364  -0.005806
     3  C   -0.545754  -0.015563
     4  C    0.078809   0.007732
     5  C    0.277280  -0.005178
     6  C   -0.101177   0.004012
     7  C   -2.302992  -0.012436
     8  C    0.445587   0.014812
     9  C    0.483453   0.006879
    10  C    0.648963  -0.008258
    11  C    0.514428   0.086481
    12  C   -0.465291   0.000400
    13  C    0.317340   0.001745
    14  O   -0.494944   0.163577
    15  Fe   0.706493   4.046679
    16  Cl  -0.547569   0.232853
    17  C    0.385149   0.000070
    18  Cl  -0.511665   0.242433
    19  Cl  -0.521058   0.235483
    20  H   -0.265779   0.001238
    21  H   -0.158477  -0.000030
    22  H   -0.151484   0.000101
    23  H   -0.154093   0.000127
    24  H   -0.249662  -0.000109
    25  H   -0.182650  -0.000873
    26  C    0.835058   0.002509
    27  H   -0.129168   0.000365
    28  H   -0.011146  -0.000063
    29  H   -0.076104   0.000415
    30  H   -0.112270   0.002326
    31  H   -0.274678  -0.002878
    32  H    0.008059   0.000934
    33  H    0.022579   0.000128
    34  H    0.056045   0.000339
    35  H    0.011675   0.000461
    36  H    0.037893   0.000988
    37  H    0.068641  -0.000379
    38  O   -0.658571   0.002473
    39  O   -0.600327   0.000609
    40  C    0.428427   0.000601
    41  C    0.043324  -0.001616
    42  H   -0.033566  -0.000039
    43  H   -0.037687   0.000034
    44  H   -0.008905   0.000055
    45  H    0.025497   0.000061
    46  H    0.028277  -0.000513
 Sum of Mulliken charges =  -0.00000   5.00000

 Dipole moment (field-independent basis, Debye):
    X=             10.7395    Y=             -4.2247    Z=             -3.4799  Tot=             12.0538
 Quadrupole moment (field-independent basis, Debye-Ang):
   XX=           -193.5812   YY=           -161.8420   ZZ=           -166.9162
   XY=            -10.1160   XZ=              9.4126   YZ=              6.5454

 Normal termination of Gaussian 16 at Sun Jun 20 13:54:12 2021.
