 Gaussian 16, Revision A.03,

 -----------------------------------------------------------
 #p opt=modredundant freq=noraman ub3lyp jul-cc-pvdz pop=cm5
 -----------------------------------------------------------

 -----
 title
 -----
 Symbolic Z-matrix:
 Charge =  0 Multiplicity = 6

 SCF Done:  E(UB3LYP) =  -3531.39952787     A.U. after   25 cycles
 SCF Done:  E(UB3LYP) =  -3531.39955203     A.U. after   15 cycles
 SCF Done:  E(UB3LYP) =  -3531.39938414     A.U. after   15 cycles
 SCF Done:  E(UB3LYP) =  -3531.40008522     A.U. after   15 cycles
 SCF Done:  E(UB3LYP) =  -3531.40012487     A.U. after   16 cycles
 SCF Done:  E(UB3LYP) =  -3531.40024313     A.U. after   15 cycles
 SCF Done:  E(UB3LYP) =  -3531.40023008     A.U. after   15 cycles
 SCF Done:  E(UB3LYP) =  -3531.40025485     A.U. after   14 cycles
 SCF Done:  E(UB3LYP) =  -3531.40030832     A.U. after   13 cycles
 SCF Done:  E(UB3LYP) =  -3531.40034440     A.U. after   14 cycles
 SCF Done:  E(UB3LYP) =  -3531.40042652     A.U. after   14 cycles
 SCF Done:  E(UB3LYP) =  -3531.40043313     A.U. after   12 cycles
 SCF Done:  E(UB3LYP) =  -3531.40043637     A.U. after   14 cycles
 SCF Done:  E(UB3LYP) =  -3531.40043754     A.U. after   12 cycles
 SCF Done:  E(UB3LYP) =  -3531.40043867     A.U. after   13 cycles
 SCF Done:  E(UB3LYP) =  -3531.40043866     A.U. after   12 cycles
 SCF Done:  E(UB3LYP) =  -3531.40043870     A.U. after   11 cycles
 Optimization completed.
    -- Stationary point found.
 Normal termination of Gaussian 16 at Sun Jun 20 04:28:40 2021.

 ----------------------------------------------------------------------
 #P Geom=AllCheck Guess=TCheck SCRF=Check GenChk UB3LYP/Jul-CC-pVDZ Fre
 q
 ----------------------------------------------------------------------

 Structure from the checkpoint file:  "checkpoint.chk"
 -----
 title
 -----
 Charge =  0 Multiplicity = 6

 SCF Done:  E(UB3LYP) =  -3531.40043870     A.U. after    2 cycles

  Exact polarizability: 304.573  -7.770 312.295  23.924  10.492 278.031
 Approx polarizability: 448.618 -21.940 494.060  39.009  17.856 447.900

 ******    1 imaginary frequencies (negative Signs) ******

                      1                      2                      3
                      A                      A                      A
 Frequencies --    -39.6974                22.2934                27.1433
 Red. masses --      5.2291                10.0669                 4.6126
 Frc consts  --      0.0049                 0.0029                 0.0020
 IR Inten    --      1.0419                 1.1202                 1.1526

                      4                      5                      6
                      A                      A                      A
 Frequencies --     42.9438                46.8523                57.0190
 Red. masses --      4.3283                 6.5114                 4.4083
 Frc consts  --      0.0047                 0.0084                 0.0084
 IR Inten    --      2.1965                 1.1596                 1.3853

                      7                      8                      9
                      A                      A                      A
 Frequencies --     66.8889                72.0623                77.4106
 Red. masses --      4.7022                 3.8638                 3.8430
 Frc consts  --      0.0124                 0.0118                 0.0136
 IR Inten    --      0.8574                 0.4036                 0.8007

                     10                     11                     12
                      A                      A                      A
 Frequencies --     84.9341                94.0514               104.3431
 Red. masses --      8.9932                 6.9957                12.7195
 Frc consts  --      0.0382                 0.0365                 0.0816
 IR Inten    --      0.7375                 1.4318                 0.1199

                     13                     14                     15
                      A                      A                      A
 Frequencies --    109.3581               114.9556               129.7073
 Red. masses --      6.5154                 3.4582                 7.7759
 Frc consts  --      0.0459                 0.0269                 0.0771
 IR Inten    --      0.8226                 2.8227                 4.6048

                     16                     17                     18
                      A                      A                      A
 Frequencies --    134.3545               149.7279               166.3026
 Red. masses --      5.2823                 3.7138                 3.0181
 Frc consts  --      0.0562                 0.0491                 0.0492
 IR Inten    --     23.5399                 4.1788                 0.9507

                     19                     20                     21
                      A                      A                      A
 Frequencies --    186.6797               209.8378               225.5658
 Red. masses --      4.5635                 4.5726                 3.5240
 Frc consts  --      0.0937                 0.1186                 0.1056
 IR Inten    --      1.7391                10.2773                 9.2361

                     22                     23                     24
                      A                      A                      A
 Frequencies --    236.8527               253.0403               264.5492
 Red. masses --      1.7981                 1.7449                 1.9964
 Frc consts  --      0.0594                 0.0658                 0.0823
 IR Inten    --      7.1915                 0.6220                 1.1150

                     25                     26                     27
                      A                      A                      A
 Frequencies --    267.4504               285.4965               291.0204
 Red. masses --      1.4041                 2.3600                 2.7925
 Frc consts  --      0.0592                 0.1133                 0.1393
 IR Inten    --      2.4943                11.2026                 1.7891

                     28                     29                     30
                      A                      A                      A
 Frequencies --    306.2412               324.0458               340.1138
 Red. masses --      3.1526                13.0672                 5.3465
 Frc consts  --      0.1742                 0.8084                 0.3644
 IR Inten    --      1.0918                36.0685                39.8262

                     31                     32                     33
                      A                      A                      A
 Frequencies --    346.6774               362.6616               383.4124
 Red. masses --      6.0324                 5.9770                 4.8545
 Frc consts  --      0.4272                 0.4632                 0.4205
 IR Inten    --     31.5566                20.3138                14.1456

                     34                     35                     36
                      A                      A                      A
 Frequencies --    390.7928               413.3339               415.0443
 Red. masses --     21.6248                 3.2105                 3.4713
 Frc consts  --      1.9458                 0.3232                 0.3523
 IR Inten    --     81.1095                 1.1929                 3.9362

                     37                     38                     39
                      A                      A                      A
 Frequencies --    434.1202               474.7305               506.1810
 Red. masses --      3.1563                 3.0144                 2.4483
 Frc consts  --      0.3505                 0.4003                 0.3696
 IR Inten    --      4.1127                 0.8101                 3.2727

                     40                     41                     42
                      A                      A                      A
 Frequencies --    551.6488               590.9981               627.6289
 Red. masses --      3.6798                 2.5565                 6.2805
 Frc consts  --      0.6598                 0.5261                 1.4576
 IR Inten    --     24.9620                 1.6589                 0.3885

                     43                     44                     45
                      A                      A                      A
 Frequencies --    648.5940               679.3876               705.9474
 Red. masses --      5.1550                 3.1618                 1.8681
 Frc consts  --      1.2777                 0.8598                 0.5485
 IR Inten    --     14.3980                 9.9111                42.0646

                     46                     47                     48
                      A                      A                      A
 Frequencies --    716.3796               753.1465               758.3854
 Red. masses --      3.0055                 2.5773                 1.5351
 Frc consts  --      0.9088                 0.8613                 0.5202
 IR Inten    --     13.1509                28.8943                25.1802

                     49                     50                     51
                      A                      A                      A
 Frequencies --    777.8435               795.6567               807.4706
 Red. masses --      3.1680                 3.1955                 1.1370
 Frc consts  --      1.1293                 1.1919                 0.4368
 IR Inten    --     15.5785                12.4086                 0.2289

                     52                     53                     54
                      A                      A                      A
 Frequencies --    826.1548               837.3844               844.1103
 Red. masses --      3.3891                 2.2394                 1.2632
 Frc consts  --      1.3629                 0.9252                 0.5303
 IR Inten    --      7.1194                15.5726                 0.3674

                     55                     56                     57
                      A                      A                      A
 Frequencies --    872.5810               892.2176               917.7052
 Red. masses --      2.6935                 2.8962                 1.8013
 Frc consts  --      1.2083                 1.3584                 0.8938
 IR Inten    --      7.6399                 8.5562                18.2042

                     58                     59                     60
                      A                      A                      A
 Frequencies --    934.3586               975.8840               980.8891
 Red. masses --      1.7999                 2.0522                 1.3656
 Frc consts  --      0.9258                 1.1515                 0.7742
 IR Inten    --      2.8868                16.0915                 1.5803

                     61                     62                     63
                      A                      A                      A
 Frequencies --    994.5002               998.1375              1003.4621
 Red. masses --      3.5542                 3.3251                 1.4721
 Frc consts  --      2.0711                 1.9518                 0.8733
 IR Inten    --      3.4818                 2.2864                 2.3572

                     64                     65                     66
                      A                      A                      A
 Frequencies --   1004.5452              1009.1635              1024.8268
 Red. masses --      3.4541                 1.4160                 2.0056
 Frc consts  --      2.0537                 0.8496                 1.2411
 IR Inten    --      0.8775                 4.5622                 2.7755

                     67                     68                     69
                      A                      A                      A
 Frequencies --   1038.8636              1048.7699              1059.9685
 Red. masses --      2.8261                 2.5129                 2.0908
 Frc consts  --      1.7970                 1.6285                 1.3841
 IR Inten    --     36.7727                16.2747                12.4260

                     70                     71                     72
                      A                      A                      A
 Frequencies --   1079.8130              1097.0849              1107.6288
 Red. masses --      4.7600                 2.1822                 1.6425
 Frc consts  --      3.2700                 1.5475                 1.1873
 IR Inten    --    233.7018                14.3255                 9.4974

                     73                     74                     75
                      A                      A                      A
 Frequencies --   1133.0932              1154.6800              1168.9636
 Red. masses --      2.1765                 2.2216                 1.5511
 Frc consts  --      1.6464                 1.7451                 1.2488
 IR Inten    --      7.4630                28.9299                 3.0696

                     76                     77                     78
                      A                      A                      A
 Frequencies --   1174.1276              1177.7903              1204.4425
 Red. masses --      1.1296                 2.0568                 1.8890
 Frc consts  --      0.9175                 1.6810                 1.6146
 IR Inten    --      1.9399                31.8956                32.3459

                     79                     80                     81
                      A                      A                      A
 Frequencies --   1207.8497              1215.2765              1221.6761
 Red. masses --      1.2433                 1.5794                 2.5772
 Frc consts  --      1.0687                 1.3743                 2.2663
 IR Inten    --      5.6106                11.7033               214.5269

                     82                     83                     84
                      A                      A                      A
 Frequencies --   1259.6546              1275.3039              1281.6503
 Red. masses --      1.5781                 1.4165                 1.1075
 Frc consts  --      1.4753                 1.3574                 1.0718
 IR Inten    --     40.2077                 6.6748                 0.2437

                     85                     86                     87
                      A                      A                      A
 Frequencies --   1286.4162              1295.8382              1313.1284
 Red. masses --      1.6404                 1.2357                 1.3672
 Frc consts  --      1.5994                 1.2225                 1.3890
 IR Inten    --    136.7329                16.8347                13.2659

                     88                     89                     90
                      A                      A                      A
 Frequencies --   1316.4392              1329.7783              1331.7183
 Red. masses --      1.3965                 1.4497                 1.5423
 Frc consts  --      1.4259                 1.5104                 1.6115
 IR Inten    --     20.3849                32.9706                48.5210

                     91                     92                     93
                      A                      A                      A
 Frequencies --   1342.1637              1357.7813              1369.5743
 Red. masses --      1.7373                 2.4851                 1.3484
 Frc consts  --      1.8439                 2.6993                 1.4902
 IR Inten    --     55.1454                 0.2898                 8.5064

                     94                     95                     96
                      A                      A                      A
 Frequencies --   1387.8784              1395.5750              1414.9977
 Red. masses --      1.0890                 1.6199                 1.1706
 Frc consts  --      1.2359                 1.8588                 1.3810
 IR Inten    --      4.7460                58.9321                 9.1246

                     97                     98                     99
                      A                      A                      A
 Frequencies --   1418.7328              1438.5661              1468.1623
 Red. masses --      1.4961                 1.3293                 2.2791
 Frc consts  --      1.7742                 1.6209                 2.8944
 IR Inten    --      6.4942                30.1752                 9.1486

                    100                    101                    102
                      A                      A                      A
 Frequencies --   1474.9246              1487.6279              1488.1976
 Red. masses --      1.0390                 1.0922                 1.0530
 Frc consts  --      1.3317                 1.4242                 1.3740
 IR Inten    --      4.3687                 2.3130                 1.3460

                    103                    104                    105
                      A                      A                      A
 Frequencies --   1497.0277              1499.4188              1507.4710
 Red. masses --      1.2559                 1.2314                 1.2256
 Frc consts  --      1.6583                 1.6311                 1.6410
 IR Inten    --     21.8154                13.3590                16.8354

                    106                    107                    108
                      A                      A                      A
 Frequencies --   1508.2414              1519.9870              1624.3842
 Red. masses --      1.1301                 2.0999                 5.6812
 Frc consts  --      1.5146                 2.8585                 8.8322
 IR Inten    --      7.5095                 8.1520                 0.3501

                    109                    110                    111
                      A                      A                      A
 Frequencies --   1643.4979              1768.9167              2696.6634
 Red. masses --      5.7943                11.7847                 1.0672
 Frc consts  --      9.2213                21.7261                 4.5726
 IR Inten    --      0.0875               219.8816               180.6175

                    112                    113                    114
                      A                      A                      A
 Frequencies --   2757.8026              3038.2514              3056.5801
 Red. masses --      1.0700                 1.0352                 1.0582
 Frc consts  --      4.7946                 5.6304                 5.8250
 IR Inten    --    659.6858                17.1145                18.0379

                    115                    116                    117
                      A                      A                      A
 Frequencies --   3057.6734              3068.2079              3072.5620
 Red. masses --      1.0633                 1.0652                 1.0631
 Frc consts  --      5.8574                 5.9084                 5.9132
 IR Inten    --     20.0967                 0.6025                 2.8473

                    118                    119                    120
                      A                      A                      A
 Frequencies --   3074.7074              3077.0103              3094.9276
 Red. masses --      1.0631                 1.0827                 1.0916
 Frc consts  --      5.9215                 6.0396                 6.1604
 IR Inten    --     19.9003                 9.8586                 2.9099

                    121                    122                    123
                      A                      A                      A
 Frequencies --   3099.9979              3107.2691              3115.1735
 Red. masses --      1.1073                 1.0963                 1.1016
 Frc consts  --      6.2696                 6.2366                 6.2983
 IR Inten    --      5.9664                 8.4138                19.8037

                    124                    125                    126
                      A                      A                      A
 Frequencies --   3126.8403              3128.8547              3165.3157
 Red. masses --      1.1042                 1.1053                 1.0846
 Frc consts  --      6.3606                 6.3755                 6.4025
 IR Inten    --     16.3809                25.6071                 3.0724

                    127                    128                    129
                      A                      A                      A
 Frequencies --   3166.9959              3175.4351              3184.1536
 Red. masses --      1.1052                 1.0880                 1.0930
 Frc consts  --      6.5311                 6.4637                 6.5295
 IR Inten    --      5.6641                 4.7534                20.8548

                    130                    131                    132
                      A                      A                      A
 Frequencies --   3190.0467              3195.0555              3216.1317
 Red. masses --      1.0989                 1.0980                 1.0927
 Frc consts  --      6.5888                 6.6038                 6.6591
 IR Inten    --      3.3207                14.4126                 4.6744

 - Thermochemistry -
 -------------------
 Temperature   298.150 Kelvin.  Pressure   1.00000 Atm.
 Atom     1 has atomic number  6 and mass  12.00000

 Molecular mass:   434.99839 amu.
 Principal axes and moments of inertia in atomic units:
                           1         2         3
     Eigenvalues --  8882.66969********************
           X            0.99682   0.07789   0.01695
           Y           -0.07776   0.99694  -0.00821
           Z           -0.01754   0.00687   0.99982
 This molecule is an asymmetric top.
 Rotational symmetry number  1.
 Warning -- assumption of classical behavior for rotation
           may cause significant error
 Rotational temperatures (Kelvin)      0.00975     0.00754     0.00677
 Rotational constants (GHZ):           0.20318     0.15710     0.14102
    1 imaginary frequencies ignored.
 Zero-point vibrational energy     940300.3 (Joules/Mol)
                                  224.73718 (Kcal/Mol)
 Warning -- explicit consideration of  40 degrees of freedom as
           vibrations may cause significant error
 Vibrational temperatures:     32.08    39.05    61.79    67.41    82.04
          (Kelvin)             96.24   103.68   111.38   122.20   135.32
                              150.13   157.34   165.40   186.62   193.31
                              215.43   239.27   268.59   301.91   324.54
                              340.78   364.07   380.63   384.80   410.77
                              418.71   440.61   466.23   489.35   498.79
                              521.79   551.64   562.26   594.70   597.16
                              624.60   683.03   728.28   793.70   850.31
                              903.02   933.18   977.49  1015.70  1030.71
                             1083.61  1091.15  1119.14  1144.77  1161.77
                             1188.65  1204.81  1214.49  1255.45  1283.70
                             1320.37  1344.33  1404.08  1411.28  1430.86
                             1436.10  1443.76  1445.32  1451.96  1474.50
                             1494.69  1508.95  1525.06  1553.61  1578.46
                             1593.63  1630.27  1661.33  1681.88  1689.31
                             1694.58  1732.92  1737.83  1748.51  1757.72
                             1812.36  1834.88  1844.01  1850.87  1864.42
                             1889.30  1894.06  1913.25  1916.05  1931.07
                             1953.54  1970.51  1996.85  2007.92  2035.87
                             2041.24  2069.78  2112.36  2122.09  2140.36
                             2141.18  2153.89  2157.33  2168.91  2170.02
                             2186.92  2337.13  2364.63  2545.08  3879.90
                             3967.86  4371.37  4397.74  4399.31  4414.47
                             4420.73  4423.82  4427.13  4452.91  4460.21
                             4470.67  4482.04  4498.83  4501.72  4554.18
                             4556.60  4568.74  4581.29  4589.77  4596.97
                             4627.30

 Zero-point correction=                           0.358141 (Hartree/Particle)
 Thermal correction to Energy=                    0.384860
 Thermal correction to Enthalpy=                  0.385804
 Thermal correction to Gibbs Free Energy=         0.297457
 Sum of electronic and zero-point Energies=          -3531.042297
 Sum of electronic and thermal Energies=             -3531.015579
 Sum of electronic and thermal Enthalpies=           -3531.014635
 Sum of electronic and thermal Free Energies=        -3531.102981

                     E (Thermal)             CV                S
                      KCal/Mol        Cal/Mol-Kelvin    Cal/Mol-Kelvin
 Total                  241.503             96.467            185.942
 Electronic               0.000              0.000              3.561
 Translational            0.889              2.981             44.100
 Rotational               0.889              2.981             35.522
 Vibrational            239.726             90.506            102.758
 Vibration     1          0.593              1.985              6.419
 Vibration     2          0.593              1.984              6.028
 Vibration     3          0.595              1.980              5.118
 Vibration     4          0.595              1.979              4.946
 Vibration     5          0.596              1.975              4.558
 Vibration     6          0.598              1.970              4.243
 Vibration     7          0.598              1.967              4.096
 Vibration     8          0.599              1.964              3.955
 Vibration     9          0.601              1.960              3.773
 Vibration    10          0.603              1.953              3.574
 Vibration    11          0.605              1.946              3.372
 Vibration    12          0.606              1.942              3.280
 Vibration    13          0.608              1.937              3.183
 Vibration    14          0.612              1.924              2.950
 Vibration    15          0.613              1.919              2.883
 Vibration    16          0.618              1.903              2.676
 Vibration    17          0.624              1.884              2.477
 Vibration    18          0.632              1.858              2.261
 Vibration    19          0.642              1.826              2.045
 Vibration    20          0.650              1.802              1.914
 Vibration    21          0.656              1.784              1.826
 Vibration    22          0.664              1.758              1.709
 Vibration    23          0.671              1.738              1.632
 Vibration    24          0.673              1.733              1.613
 Vibration    25          0.683              1.701              1.501
 Vibration    26          0.687              1.690              1.468
 Vibration    27          0.697              1.662              1.383
 Vibration    28          0.709              1.627              1.290
 Vibration    29          0.720              1.595              1.212
 Vibration    30          0.725              1.582              1.181
 Vibration    31          0.737              1.549              1.111
 Vibration    32          0.753              1.506              1.026
 Vibration    33          0.758              1.490              0.997
 Vibration    34          0.777              1.441              0.915
 Vibration    35          0.778              1.438              0.909
 Vibration    36          0.795              1.396              0.845
 Vibration    37          0.831              1.306              0.724
 Vibration    38          0.861              1.236              0.643
 Vibration    39          0.907              1.136              0.541
 Vibration    40          0.948              1.051              0.465

 Optimization completed.
    -- Stationary point found.
 Normal termination of Gaussian 16 at Sun Jun 20 08:09:20 2021.

 ----------------------------------------------------------------------
 #p ub3lyp jul-cc-pvdz pop=cm5 scrf=(pcm,solvent=dichloroethane) guess=
 read geom=allcheck
 ----------------------------------------------------------------------

 Structure from the checkpoint file:  "checkpoint.chk"
 -----
 title
 -----
 Charge =  0 Multiplicity = 6

 SCF Done:  E(UB3LYP) =  -3531.42969595     A.U. after   17 cycles
 Normal termination of Gaussian 16 at Sun Jun 20 08:30:13 2021.
 Gaussian 16:  ES64L-G16RevA.03 25-Dec-2016

 ----------------------------------------------------------------------
 #p ub3lyp jul-cc-pvdz pop=cm5 scrf=(pcm,solvent=water) guess=read geom
 =allcheck
 ----------------------------------------------------------------------

 Structure from the checkpoint file:  "checkpoint.chk"
 -----
 title
 -----
 Charge =  0 Multiplicity = 6

                         Standard orientation:
 ---------------------------------------------------------------------
 Center     Atomic      Atomic             Coordinates (Angstroms)
 Number     Number       Type             X           Y           Z
 ---------------------------------------------------------------------
      1          6           0        2.052095   -1.778762    1.664612
      2          6           0        1.344427   -0.745306    1.030909
      3          6           0        1.417523    0.543134    1.580522
      4          6           0        2.165826    0.786925    2.734164
      5          6           0        2.862400   -0.250255    3.359772
      6          6           0        2.804016   -1.535751    2.817865
      7          6           0        0.544900   -0.964115   -0.270890
      8          6           0        1.510277   -0.838917   -1.529287
      9          6           0        2.127598   -2.229185   -1.673993
     10          6           0        1.013254   -3.213899   -1.250717
     11          6           0        0.020357   -2.366675   -0.358560
     12          6           0       -1.348688   -2.440634   -0.948565
     13          6           0       -1.683664   -1.967601   -2.285924
     14          8           0       -0.506700   -0.045450   -0.388079
     15         26           0       -1.920709    0.893646    0.337539
     16         17           0       -3.509133    0.755563   -1.278142
     17          6           0       -2.418039   -2.970575   -0.115306
     18         17           0       -1.426830    2.988013    0.849466
     19         17           0       -2.658604   -0.307765    2.105186
     20          1           0        0.878745    1.363777    1.112098
     21          1           0        2.193922    1.795591    3.148674
     22          1           0        3.442536   -0.059617    4.263755
     23          1           0        3.341645   -2.357573    3.293123
     24          1           0        2.034070   -2.796670    1.274599
     25          1           0        0.856009   -0.596885   -2.376699
     26          6           0        2.539760    0.275576   -1.437011
     27          1           0        2.481605   -2.422645   -2.694239
     28          1           0        2.996824   -2.310455   -1.010889
     29          1           0        0.501921   -3.631499   -2.128443
     30          1           0        1.394143   -4.068622   -0.678916
     31          1           0       -0.043789   -2.796053    0.645933
     32          1           0       -2.081466   -3.793972    0.529679
     33          1           0       -2.617128   -2.130854    0.612468
     34          1           0       -3.346493   -3.199394   -0.646907
     35          1           0       -2.365592   -2.664525   -2.794285
     36          1           0       -2.304207   -1.046840   -2.108174
     37          1           0       -0.833904   -1.696546   -2.914022
     38          8           0        1.974653    1.471956   -1.665628
     39          8           0        3.719004    0.107444   -1.204602
     40          6           0        2.841937    2.634461   -1.550806
     41          6           0        1.993536    3.862112   -1.813457
     42          1           0        3.279040    2.635960   -0.543195
     43          1           0        3.661086    2.525829   -2.274971
     44          1           0        2.617659    4.762419   -1.717810
     45          1           0        1.572093    3.839858   -2.828047
     46          1           0        1.166607    3.930346   -1.093912
 ---------------------------------------------------------------------

 SCF Done:  E(UB3LYP) =  -3531.43531550     A.U. after   14 cycles

 The electronic state is 6-A.
 Alpha  occ. eigenvalues -- -256.19610-101.51945-101.51832-101.51801 -30.19009
 Alpha  occ. eigenvalues --  -26.04360 -26.04258 -26.04102 -19.20145 -19.15769
 Alpha  occ. eigenvalues --  -19.15116 -10.32788 -10.32703 -10.28348 -10.24732
 Alpha  occ. eigenvalues --  -10.23042 -10.22405 -10.22172 -10.21763 -10.21664
 Alpha  occ. eigenvalues --  -10.21164 -10.20307 -10.20096 -10.20011 -10.19996
 Alpha  occ. eigenvalues --  -10.19946 -10.19750 -10.18594  -9.43643  -9.43567
 Alpha  occ. eigenvalues --   -9.43502  -7.19505  -7.19418  -7.19362  -7.19208
 Alpha  occ. eigenvalues --   -7.19160  -7.19126  -7.19095  -7.19053  -7.19029
 Alpha  occ. eigenvalues --   -3.66752  -2.44324  -2.44133  -2.43866  -1.11948
 Alpha  occ. eigenvalues --   -1.03482  -1.02945  -0.89859  -0.87147  -0.84773
 Alpha  occ. eigenvalues --   -0.79804  -0.79166  -0.79112  -0.78938  -0.77325
 Alpha  occ. eigenvalues --   -0.76096  -0.75594  -0.74921  -0.72334  -0.66673
 Alpha  occ. eigenvalues --   -0.64013  -0.62004  -0.61041  -0.59910  -0.57364
 Alpha  occ. eigenvalues --   -0.56706  -0.55031  -0.53547  -0.51436  -0.50718
 Alpha  occ. eigenvalues --   -0.49929  -0.49486  -0.48520  -0.48145  -0.47964
 Alpha  occ. eigenvalues --   -0.47219  -0.47061  -0.46829  -0.46561  -0.46029
 Alpha  occ. eigenvalues --   -0.44942  -0.44605  -0.43929  -0.43297  -0.42864
 Alpha  occ. eigenvalues --   -0.42595  -0.42186  -0.41580  -0.41055  -0.40576
 Alpha  occ. eigenvalues --   -0.39911  -0.38886  -0.37701  -0.37576  -0.37100
 Alpha  occ. eigenvalues --   -0.37048  -0.36233  -0.35849  -0.35750  -0.35387
 Alpha  occ. eigenvalues --   -0.35011  -0.34216  -0.33769  -0.31741  -0.31282
 Alpha  occ. eigenvalues --   -0.30852  -0.30612  -0.30520  -0.30443  -0.29754
 Alpha  occ. eigenvalues --   -0.29441  -0.28912  -0.28102  -0.26613  -0.26189
 Alpha virt. eigenvalues --   -0.14028  -0.02919  -0.02707  -0.01528  -0.01311
 Alpha virt. eigenvalues --   -0.00227  -0.00070   0.00085   0.01421   0.01678
 Alpha virt. eigenvalues --    0.01722   0.01823   0.02410   0.03247   0.03807

  Beta  occ. eigenvalues -- -256.19426-101.51790-101.51672-101.51653 -30.10086
  Beta  occ. eigenvalues --  -25.96881 -25.96829 -25.96698 -19.20145 -19.15112
  Beta  occ. eigenvalues --  -19.14863 -10.32786 -10.32704 -10.28323 -10.24732
  Beta  occ. eigenvalues --  -10.23021 -10.22406 -10.22169 -10.21763 -10.21635
  Beta  occ. eigenvalues --  -10.21144 -10.20304 -10.20094 -10.20007 -10.19995
  Beta  occ. eigenvalues --  -10.19946 -10.19753 -10.18594  -9.43490  -9.43410
  Beta  occ. eigenvalues --   -9.43357  -7.19221  -7.19158  -7.19090  -7.19013
  Beta  occ. eigenvalues --   -7.18966  -7.18896  -7.18891  -7.18878  -7.18840
  Beta  occ. eigenvalues --   -3.45953  -2.22289  -2.22243  -2.22043  -1.11944
  Beta  occ. eigenvalues --   -1.03476  -1.01223  -0.89615  -0.87087  -0.84684
  Beta  occ. eigenvalues --   -0.79036  -0.78766  -0.78089  -0.78013  -0.77206
  Beta  occ. eigenvalues --   -0.76069  -0.75575  -0.74896  -0.72143  -0.66574
  Beta  occ. eigenvalues --   -0.63950  -0.61949  -0.60991  -0.59754  -0.57274
  Beta  occ. eigenvalues --   -0.56194  -0.54928  -0.52281  -0.51307  -0.50684
  Beta  occ. eigenvalues --   -0.49802  -0.49145  -0.48176  -0.47809  -0.47495
  Beta  occ. eigenvalues --   -0.46055  -0.44637  -0.44337  -0.43352  -0.42945
  Beta  occ. eigenvalues --   -0.42822  -0.42187  -0.41600  -0.41130  -0.40565
  Beta  occ. eigenvalues --   -0.39900  -0.38754  -0.37680  -0.37530  -0.37448
  Beta  occ. eigenvalues --   -0.37062  -0.36296  -0.36082  -0.35826  -0.35464
  Beta  occ. eigenvalues --   -0.35352  -0.35200  -0.34953  -0.32791  -0.32639
  Beta  occ. eigenvalues --   -0.32349  -0.31944  -0.31570  -0.31444  -0.29536
  Beta  occ. eigenvalues --   -0.29531  -0.29037  -0.28391  -0.26616  -0.26162
  Beta virt. eigenvalues --   -0.14235  -0.13391  -0.13283  -0.12424  -0.12018
  Beta virt. eigenvalues --   -0.11078  -0.02861  -0.02680  -0.01427  -0.01263
  Beta virt. eigenvalues --   -0.00178  -0.00039   0.00114   0.01447   0.01691

 Mulliken charges and spin densities:
               1          2
     1  C   -0.310757   0.001710
     2  C    3.037192   0.008427
     3  C   -0.638995  -0.004656
     4  C    0.075877   0.005756
     5  C    0.175764   0.000907
     6  C   -0.141484   0.001425
     7  C   -2.271885  -0.020145
     8  C    0.569519   0.013553
     9  C    0.634254   0.002765
    10  C    0.519543  -0.000211
    11  C    1.247917   0.019488
    12  C   -0.629240   0.006036
    13  C    0.102209  -0.004695
    14  O   -0.415435   0.317471
    15  Fe   0.651290   4.037805
    16  Cl  -0.575200   0.195610
    17  C    0.287308  -0.004489
    18  Cl  -0.503719   0.223381
    19  Cl  -0.561070   0.197593
    20  H   -0.265958  -0.000240
    21  H   -0.167882  -0.000064
    22  H   -0.163240   0.000004
    23  H   -0.160893   0.000166
    24  H   -0.225351  -0.000006
    25  H   -0.194554  -0.000342
    26  C    0.893653   0.000566
    27  H   -0.148651   0.000766
    28  H   -0.063330   0.000062
    29  H   -0.096732   0.000118
    30  H   -0.091423   0.000108
    31  H   -0.197147   0.000131
    32  H    0.052322   0.000030
    33  H    0.201826   0.001735
    34  H    0.004927   0.000042
    35  H    0.043067   0.000038
    36  H    0.190001  -0.000015
    37  H    0.070143   0.000091
    38  O   -0.721634  -0.001773
    39  O   -0.652894   0.001418
    40  C    0.433530  -0.000787
    41  C    0.051864   0.000490
    42  H   -0.035018   0.000008
    43  H   -0.050134   0.000010
    44  H   -0.004882   0.000016
    45  H    0.020058  -0.000013
    46  H    0.025242  -0.000288
 Sum of Mulliken charges =  -0.00000   5.00000

 Dipole moment (field-independent basis, Debye):
    X=              3.7444    Y=            -13.0295    Z=             -5.5418  Tot=             14.6458
 Quadrupole moment (field-independent basis, Debye-Ang):
   XX=           -202.8143   YY=           -146.4777   ZZ=           -170.0992
   XY=             24.6480   XZ=             12.0530   YZ=              6.7808

 Normal termination of Gaussian 16 at Sun Jun 20 08:47:32 2021.
