 Gaussian 16, Revision A.03,

 -----------------------------------------------------------
 #p opt=modredundant freq=noraman ub3lyp jul-cc-pvdz pop=cm5
 -----------------------------------------------------------

 -----
 title
 -----
 Symbolic Z-matrix:
 Charge =  0 Multiplicity = 6

 SCF Done:  E(UB3LYP) =  -3531.42604307     A.U. after   24 cycles
 SCF Done:  E(UB3LYP) =  -3531.42477727     A.U. after   17 cycles
 SCF Done:  E(UB3LYP) =  -3531.42338607     A.U. after   19 cycles
 SCF Done:  E(UB3LYP) =  -3531.42298157     A.U. after   18 cycles
 SCF Done:  E(UB3LYP) =  -3531.42616895     A.U. after   12 cycles
 SCF Done:  E(UB3LYP) =  -3531.42619959     A.U. after   17 cycles
 SCF Done:  E(UB3LYP) =  -3531.42652547     A.U. after   15 cycles
 SCF Done:  E(UB3LYP) =  -3531.42664773     A.U. after   17 cycles
 SCF Done:  E(UB3LYP) =  -3531.42670784     A.U. after   14 cycles
 SCF Done:  E(UB3LYP) =  -3531.42672757     A.U. after   14 cycles
 SCF Done:  E(UB3LYP) =  -3531.42674191     A.U. after   11 cycles
 SCF Done:  E(UB3LYP) =  -3531.42674486     A.U. after   12 cycles
 SCF Done:  E(UB3LYP) =  -3531.42674562     A.U. after   11 cycles
 SCF Done:  E(UB3LYP) =  -3531.42674596     A.U. after   11 cycles
 SCF Done:  E(UB3LYP) =  -3531.42674612     A.U. after   10 cycles
 SCF Done:  E(UB3LYP) =  -3531.42674616     A.U. after    8 cycles
 SCF Done:  E(UB3LYP) =  -3531.42674616     A.U. after    8 cycles
 Optimization completed.
    -- Stationary point found.
 Normal termination of Gaussian 16 at Sun Jun 20 13:25:03 2021.

 ----------------------------------------------------------------------
 #P Geom=AllCheck Guess=TCheck SCRF=Check GenChk UB3LYP/Jul-CC-pVDZ Fre
 q
 ----------------------------------------------------------------------

 Structure from the checkpoint file:  "checkpoint.chk"
 -----
 title
 -----
 Charge =  0 Multiplicity = 6

 SCF Done:  E(UB3LYP) =  -3531.42674616     A.U. after    2 cycles

  Exact polarizability: 318.818  12.886 302.047  15.907   7.370 303.533
 Approx polarizability: 494.425  46.980 461.795  21.836   2.922 501.785

 ******    1 imaginary frequencies (negative Signs) ******

                      1                      2                      3
                      A                      A                      A
 Frequencies --    -26.4666                17.7967                22.0451
 Red. masses --      6.0809                 5.3634                 6.4638
 Frc consts  --      0.0025                 0.0010                 0.0019
 IR Inten    --      0.4831                 0.1960                 1.3821

                      4                      5                      6
                      A                      A                      A
 Frequencies --     31.0250                49.4432                51.8600
 Red. masses --      7.3111                 6.1587                 4.0415
 Frc consts  --      0.0041                 0.0089                 0.0064
 IR Inten    --      1.4335                 1.6548                 0.8958

                      7                      8                      9
                      A                      A                      A
 Frequencies --     55.4441                64.5403                80.3672
 Red. masses --      5.0032                 2.9739                10.4408
 Frc consts  --      0.0091                 0.0073                 0.0397
 IR Inten    --      2.5980                 2.0635                 0.3780

                     10                     11                     12
                      A                      A                      A
 Frequencies --     87.8154                90.8198                98.8357
 Red. masses --      7.9887                 5.9279                 4.9490
 Frc consts  --      0.0363                 0.0288                 0.0285
 IR Inten    --      0.3055                 5.5131                 1.2419

                     13                     14                     15
                      A                      A                      A
 Frequencies --    104.6603               115.4155               123.8055
 Red. masses --      5.6328                20.1234                10.7318
 Frc consts  --      0.0364                 0.1579                 0.0969
 IR Inten    --      0.6986                 0.3580                 2.2862

                     16                     17                     18
                      A                      A                      A
 Frequencies --    139.5533               144.1977               159.2454
 Red. masses --      2.5913                 3.3451                 1.7589
 Frc consts  --      0.0297                 0.0410                 0.0263
 IR Inten    --      8.8145                 1.7628                 3.2053

                     19                     20                     21
                      A                      A                      A
 Frequencies --    168.2782               180.2120               195.0974
 Red. masses --      4.2366                 2.3889                 2.1852
 Frc consts  --      0.0707                 0.0457                 0.0490
 IR Inten    --     22.2236                 1.8868                 5.6298

                     22                     23                     24
                      A                      A                      A
 Frequencies --    203.2109               211.1497               228.4263
 Red. masses --      2.5195                 1.3896                 3.3698
 Frc consts  --      0.0613                 0.0365                 0.1036
 IR Inten    --      1.3122                 1.2921                10.3140

                     25                     26                     27
                      A                      A                      A
 Frequencies --    259.0473               266.5933               288.7343
 Red. masses --      1.6898                 4.2813                 3.9217
 Frc consts  --      0.0668                 0.1793                 0.1926
 IR Inten    --      3.9850                80.1876                 2.8881

                     28                     29                     30
                      A                      A                      A
 Frequencies --    318.0231               335.8741               351.1885
 Red. masses --      2.1969                18.4423                 6.4367
 Frc consts  --      0.1309                 1.2258                 0.4677
 IR Inten    --      0.2608                26.4776                 4.2517

                     31                     32                     33
                      A                      A                      A
 Frequencies --    367.1418               375.5839               394.3884
 Red. masses --      6.9864                 4.5221                27.3256
 Frc consts  --      0.5548                 0.3758                 2.5042
 IR Inten    --     27.7051                15.7278                87.5622

                     34                     35                     36
                      A                      A                      A
 Frequencies --    398.1486               401.1497               411.1461
 Red. masses --      6.3114                 3.8917                 2.8742
 Frc consts  --      0.5895                 0.3690                 0.2863
 IR Inten    --     47.0631                34.8235                 1.0714

                     37                     38                     39
                      A                      A                      A
 Frequencies --    423.4872               454.7033               478.3812
 Red. masses --      3.7025                 3.8324                 3.1937
 Frc consts  --      0.3912                 0.4668                 0.4306
 IR Inten    --     46.2554                 1.0666                11.5908

                     40                     41                     42
                      A                      A                      A
 Frequencies --    508.2749               522.0750               554.8678
 Red. masses --      3.2396                 2.8522                 3.0008
 Frc consts  --      0.4931                 0.4580                 0.5443
 IR Inten    --     12.5207                 5.6247                26.0485

                     43                     44                     45
                      A                      A                      A
 Frequencies --    586.1440               624.2297               644.5421
 Red. masses --      4.1089                 6.1924                 4.1206
 Frc consts  --      0.8317                 1.4217                 1.0086
 IR Inten    --     76.2884                 9.6941                92.8174

                     46                     47                     48
                      A                      A                      A
 Frequencies --    689.7407               700.1312               753.2300
 Red. masses --      1.6077                 6.1940                 4.5037
 Frc consts  --      0.4506                 1.7889                 1.5055
 IR Inten    --     57.1729                15.6201                 8.0188

                     49                     50                     51
                      A                      A                      A
 Frequencies --    768.4951               785.6298               803.6366
 Red. masses --      2.3306                 2.2609                 1.2876
 Frc consts  --      0.8110                 0.8222                 0.4900
 IR Inten    --     18.6184                11.2357                 3.2671

                     52                     53                     54
                      A                      A                      A
 Frequencies --    821.5930               841.6139               851.4472
 Red. masses --      3.2127                 1.2586                 1.4754
 Frc consts  --      1.2777                 0.5253                 0.6302
 IR Inten    --     16.6056                 0.7716                16.5171

                     55                     56                     57
                      A                      A                      A
 Frequencies --    864.4282               894.9058               916.9628
 Red. masses --      2.7057                 1.9662                 2.0883
 Frc consts  --      1.1912                 0.9278                 1.0345
 IR Inten    --     35.5840                 3.9773                17.1229

                     58                     59                     60
                      A                      A                      A
 Frequencies --    946.5729               952.4667               967.3845
 Red. masses --      1.4176                 1.3008                 3.6253
 Frc consts  --      0.7484                 0.6953                 1.9989
 IR Inten    --      0.5652                 6.5934                29.4085

                     61                     62                     63
                      A                      A                      A
 Frequencies --    986.4630               990.5621               992.5574
 Red. masses --      2.1425                 1.5697                 1.3840
 Frc consts  --      1.2284                 0.9075                 0.8033
 IR Inten    --     21.1248                11.3384                 6.1120

                     64                     65                     66
                      A                      A                      A
 Frequencies --   1003.0727              1009.4003              1009.6547
 Red. masses --      3.5003                 1.9527                 1.5247
 Frc consts  --      2.0750                 1.1722                 0.9158
 IR Inten    --      1.7276                 4.7372                 0.4324

                     67                     68                     69
                      A                      A                      A
 Frequencies --   1036.2734              1046.8109              1072.0629
 Red. masses --      2.6757                 2.4487                 2.3307
 Frc consts  --      1.6929                 1.5809                 1.5782
 IR Inten    --     41.5642                 3.3942                 5.6652

                     70                     71                     72
                      A                      A                      A
 Frequencies --   1089.4233              1095.0833              1113.6738
 Red. masses --      1.8286                 1.9441                 1.5623
 Frc consts  --      1.2787                 1.3736                 1.1416
 IR Inten    --     15.5863                16.6626                 9.3546

                     73                     74                     75
                      A                      A                      A
 Frequencies --   1133.0269              1136.9253              1161.7781
 Red. masses --      2.1372                 2.1965                 1.6910
 Frc consts  --      1.6165                 1.6728                 1.3447
 IR Inten    --     13.6507                10.0689                72.7962

                     76                     77                     78
                      A                      A                      A
 Frequencies --   1170.4201              1177.6540              1201.0047
 Red. masses --      1.5648                 1.0859                 1.3786
 Frc consts  --      1.2630                 0.8873                 1.1716
 IR Inten    --      2.6037                 1.5862                45.4384

                     79                     80                     81
                      A                      A                      A
 Frequencies --   1207.8591              1224.3069              1254.3441
 Red. masses --      1.4052                 2.1064                 1.9507
 Frc consts  --      1.2079                 1.8602                 1.8083
 IR Inten    --     54.7435               125.4676                27.8611

                     82                     83                     84
                      A                      A                      A
 Frequencies --   1265.2045              1285.9687              1322.3359
 Red. masses --      2.5997                 1.1182                 1.4053
 Frc consts  --      2.4518                 1.0895                 1.4478
 IR Inten    --    145.2265                 0.4656                 5.6549

                     85                     86                     87
                      A                      A                      A
 Frequencies --   1325.7292              1333.4053              1337.3747
 Red. masses --      1.5095                 1.5743                 1.6698
 Frc consts  --      1.5632                 1.6491                 1.7596
 IR Inten    --    130.9830                64.6455                41.4145

                     88                     89                     90
                      A                      A                      A
 Frequencies --   1361.6665              1366.3686              1373.7799
 Red. masses --      1.5687                 2.9389                 1.3364
 Frc consts  --      1.7137                 3.2327                 1.4860
 IR Inten    --      8.0993                13.3278                 9.8460

                     91                     92                     93
                      A                      A                      A
 Frequencies --   1382.2657              1399.0253              1407.9625
 Red. masses --      1.3812                 1.3112                 1.4136
 Frc consts  --      1.5548                 1.5120                 1.6511
 IR Inten    --     28.1472                12.9345                17.1368

                     94                     95                     96
                      A                      A                      A
 Frequencies --   1415.8787              1450.1726              1461.3900
 Red. masses --      1.4080                 2.2541                 1.1859
 Frc consts  --      1.6631                 2.7930                 1.4922
 IR Inten    --     16.0026               257.6295                22.0536

                     97                     98                     99
                      A                      A                      A
 Frequencies --   1471.8623              1473.4765              1473.9923
 Red. masses --      1.0785                 1.0387                 1.0627
 Frc consts  --      1.3765                 1.3287                 1.3603
 IR Inten    --      5.1049                 5.6115                11.3861

                    100                    101                    102
                      A                      A                      A
 Frequencies --   1480.5792              1487.2785              1490.4802
 Red. masses --      1.1691                 1.0601                 1.6323
 Frc consts  --      1.5100                 1.3815                 2.1365
 IR Inten    --     15.1879                 7.0477               219.0108

                    103                    104                    105
                      A                      A                      A
 Frequencies --   1494.7913              1503.6634              1505.6492
 Red. masses --      1.4413                 1.1581                 1.0844
 Frc consts  --      1.8975                 1.5428                 1.4484
 IR Inten    --    142.1577                48.0264                 9.5919

                    106                    107                    108
                      A                      A                      A
 Frequencies --   1517.6089              1617.7414              1639.6506
 Red. masses --      1.9990                 5.4314                 5.6365
 Frc consts  --      2.7125                 8.3748                 8.9282
 IR Inten    --     12.6376                 6.2628                42.2636

                    109                    110                    111
                      A                      A                      A
 Frequencies --   1680.4694              1767.7349              3018.3576
 Red. masses --      6.0770                11.4948                 1.0471
 Frc consts  --     10.1111                21.1634                 5.6204
 IR Inten    --    128.2003               226.9662                 3.2812

                    112                    113                    114
                      A                      A                      A
 Frequencies --   3024.2560              3041.1182              3042.4184
 Red. masses --      1.0448                 1.0653                 1.0359
 Frc consts  --      5.6302                 5.8049                 5.6497
 IR Inten    --     10.4316                28.8440                17.1392

                    115                    116                    117
                      A                      A                      A
 Frequencies --   3061.7208              3066.7785              3080.6305
 Red. masses --      1.0588                 1.0663                 1.0851
 Frc consts  --      5.8477                 5.9088                 6.0675
 IR Inten    --     13.9299                30.6136                 0.1414

                    118                    119                    120
                      A                      A                      A
 Frequencies --   3082.6416              3093.7640              3107.3686
 Red. masses --      1.0930                 1.0972                 1.0838
 Frc consts  --      6.1195                 6.1876                 6.1655
 IR Inten    --      5.9397                 4.0077                 0.8127

                    121                    122                    123
                      A                      A                      A
 Frequencies --   3109.9009              3118.6227              3125.3051
 Red. masses --      1.1063                 1.1021                 1.0980
 Frc consts  --      6.3041                 6.3152                 6.3187
 IR Inten    --      8.9323                16.3143                14.6749

                    124                    125                    126
                      A                      A                      A
 Frequencies --   3133.2074              3140.3687              3152.2306
 Red. masses --      1.1028                 1.1047                 1.0882
 Frc consts  --      6.3787                 6.4187                 6.3709
 IR Inten    --      7.7371                14.1318                13.5853

                    127                    128                    129
                      A                      A                      A
 Frequencies --   3157.4578              3174.9325              3188.5925
 Red. masses --      1.1016                 1.0863                 1.0913
 Frc consts  --      6.4706                 6.4516                 6.5375
 IR Inten    --      8.9561                 0.5914                 6.4765

                    130                    131                    132
                      A                      A                      A
 Frequencies --   3197.4189              3230.1899              3244.8159
 Red. masses --      1.0970                 1.0924                 1.0916
 Frc consts  --      6.6075                 6.7159                 6.7715
 IR Inten    --     12.0189                 1.4769                 2.0642

 - Thermochemistry -
 -------------------
 Temperature   298.150 Kelvin.  Pressure   1.00000 Atm.
 Atom     1 has atomic number  6 and mass  12.00000

 Molecular mass:   434.99839 amu.
 Principal axes and moments of inertia in atomic units:
                           1         2         3
     Eigenvalues --  9290.91933********************
           X            0.99766  -0.06720   0.01277
           Y            0.06678   0.99729   0.03093
           Z           -0.01482  -0.03000   0.99944
 This molecule is an asymmetric top.
 Rotational symmetry number  1.
 Warning -- assumption of classical behavior for rotation
           may cause significant error
 Rotational temperatures (Kelvin)      0.00932     0.00788     0.00676
 Rotational constants (GHZ):           0.19425     0.16427     0.14080
    1 imaginary frequencies ignored.
 Zero-point vibrational energy     944709.9 (Joules/Mol)
                                  225.79109 (Kcal/Mol)
 Warning -- explicit consideration of  42 degrees of freedom as
           vibrations may cause significant error
 Vibrational temperatures:     25.61    31.72    44.64    71.14    74.61
          (Kelvin)             79.77    92.86   115.63   126.35   130.67
                              142.20   150.58   166.06   178.13   200.79
                              207.47   229.12   242.11   259.28   280.70
                              292.38   303.80   328.65   372.71   383.57
                              415.42   457.56   483.25   505.28   528.24
                              540.38   567.44   572.85   577.16   591.55
                              609.30   654.22   688.28   731.29   751.15
                              798.33   843.33   898.13   927.35   992.38
                             1007.33  1083.73  1105.69  1130.35  1156.25
                             1182.09  1210.89  1225.04  1243.72  1287.57
                             1319.30  1361.91  1370.39  1391.85  1419.30
                             1425.20  1428.07  1443.20  1452.30  1452.67
                             1490.97  1506.13  1542.46  1567.44  1575.58
                             1602.33  1630.17  1635.78  1671.54  1683.97
                             1694.38  1727.98  1737.84  1761.50  1804.72
                             1820.35  1850.22  1902.55  1907.43  1918.47
                             1924.18  1959.13  1965.90  1976.56  1988.77
                             2012.89  2025.74  2037.13  2086.47  2102.61
                             2117.68  2120.00  2120.75  2130.22  2139.86
                             2144.47  2150.67  2163.44  2166.29  2183.50
                             2327.57  2359.09  2417.82  2543.38  4342.74
                             4351.23  4375.49  4377.36  4405.13  4412.41
                             4432.34  4435.23  4451.24  4470.81  4474.45
                             4487.00  4496.62  4507.99  4518.29  4535.36
                             4542.88  4568.02  4587.67  4600.37  4647.52
                             4668.57

 Zero-point correction=                           0.359821 (Hartree/Particle)
 Thermal correction to Energy=                    0.387182
 Thermal correction to Enthalpy=                  0.388126
 Thermal correction to Gibbs Free Energy=         0.297507
 Sum of electronic and zero-point Energies=          -3531.066925
 Sum of electronic and thermal Energies=             -3531.039564
 Sum of electronic and thermal Enthalpies=           -3531.038620
 Sum of electronic and thermal Free Energies=        -3531.129239

                     E (Thermal)             CV                S
                      KCal/Mol        Cal/Mol-Kelvin    Cal/Mol-Kelvin
 Total                  242.960             97.563            190.723
 Electronic               0.000              0.000              3.561
 Translational            0.889              2.981             44.100
 Rotational               0.889              2.981             35.524
 Vibrational            241.183             91.601            107.538
 Vibration     1          0.593              1.986              6.866
 Vibration     2          0.593              1.985              6.441
 Vibration     3          0.594              1.983              5.763
 Vibration     4          0.595              1.978              4.840
 Vibration     5          0.596              1.977              4.745
 Vibration     6          0.596              1.975              4.613
 Vibration     7          0.597              1.971              4.313
 Vibration     8          0.600              1.962              3.882
 Vibration     9          0.601              1.958              3.708
 Vibration    10          0.602              1.956              3.642
 Vibration    11          0.604              1.950              3.477
 Vibration    12          0.605              1.945              3.366
 Vibration    13          0.608              1.937              3.176
 Vibration    14          0.610              1.929              3.040
 Vibration    15          0.615              1.914              2.810
 Vibration    16          0.616              1.909              2.747
 Vibration    17          0.621              1.892              2.559
 Vibration    18          0.625              1.882              2.455
 Vibration    19          0.629              1.867              2.326
 Vibration    20          0.636              1.847              2.179
 Vibration    21          0.639              1.835              2.104
 Vibration    22          0.643              1.824              2.034
 Vibration    23          0.651              1.798              1.891
 Vibration    24          0.668              1.747              1.668
 Vibration    25          0.672              1.734              1.618
 Vibration    26          0.685              1.695              1.481
 Vibration    27          0.704              1.639              1.320
 Vibration    28          0.717              1.604              1.232
 Vibration    29          0.728              1.573              1.161
 Vibration    30          0.740              1.540              1.092
 Vibration    31          0.746              1.522              1.057
 Vibration    32          0.761              1.482              0.984
 Vibration    33          0.764              1.474              0.969
 Vibration    34          0.767              1.468              0.958
 Vibration    35          0.775              1.446              0.923
 Vibration    36          0.786              1.419              0.880
 Vibration    37          0.813              1.350              0.782
 Vibration    38          0.835              1.298              0.714
 Vibration    39          0.863              1.232              0.638
 Vibration    40          0.877              1.201              0.605
 Vibration    41          0.910              1.129              0.534
 Vibration    42          0.943              1.061              0.474

                           ! Non-Optimized Parameters !
 Normal termination of Gaussian 16 at Sun Jun 20 16:32:41 2021.

 ----------------------------------------------------------------------
 #p ub3lyp jul-cc-pvdz pop=cm5 scrf=(pcm,solvent=dichloroethane) guess=
 read geom=allcheck
 ----------------------------------------------------------------------

 Structure from the checkpoint file:  "checkpoint.chk"
 -----
 title
 -----
 Charge =  0 Multiplicity = 6

 SCF Done:  E(UB3LYP) =  -3531.44442472     A.U. after   18 cycles
 Normal termination of Gaussian 16 at Sun Jun 20 16:53:03 2021.
 Gaussian 16:  ES64L-G16RevA.03 25-Dec-2016

 ----------------------------------------------------------------------
 #p ub3lyp jul-cc-pvdz pop=cm5 scrf=(pcm,solvent=water) guess=read geom
 =allcheck
 ----------------------------------------------------------------------

 Structure from the checkpoint file:  "checkpoint.chk"
 -----
 title
 -----
 Charge =  0 Multiplicity = 6

                         Standard orientation:
 ---------------------------------------------------------------------
 Center     Atomic      Atomic             Coordinates (Angstroms)
 Number     Number       Type             X           Y           Z
 ---------------------------------------------------------------------
      1          6           0        3.182057    0.249137    0.612385
      2          6           0        1.893723   -0.311294    0.742320
      3          6           0        1.527417   -0.888825    1.977211
      4          6           0        2.425685   -0.919253    3.041013
      5          6           0        3.705094   -0.372748    2.893887
      6          6           0        4.076848    0.215878    1.679507
      7          6           0        0.885875   -0.275372   -0.343803
      8          6           0        0.997826    0.680577   -1.552052
      9          6           0        2.054959    0.303124   -2.603559
     10          6           0        1.886977   -1.176039   -2.986957
     11          6           0        1.789558   -2.006903   -1.738490
     12          6           0        0.687854   -2.653482   -1.282803
     13          6           0       -0.616319   -2.714214   -2.025892
     14          8           0       -0.254633   -0.784633   -0.108441
     15         26           0       -2.083952   -0.304328    0.425586
     16         17           0       -3.069219    0.559866   -1.349422
     17          6           0        0.762556   -3.526420   -0.065900
     18         17           0       -1.893037    1.078218    2.134386
     19         17           0       -2.969176   -2.230091    1.054255
     20          1           0        0.525095   -1.290371    2.102262
     21          1           0        2.122480   -1.360249    3.990982
     22          1           0        4.408285   -0.394195    3.728066
     23          1           0        5.066739    0.658757    1.565474
     24          1           0        3.486452    0.733615   -0.309880
     25          1           0        0.002560    0.634635   -2.012037
     26          6           0        1.183487    2.131719   -1.072026
     27          1           0        1.929091    0.958064   -3.476809
     28          1           0        3.064202    0.493648   -2.222531
     29          1           0        0.996657   -1.299780   -3.616134
     30          1           0        2.748629   -1.497031   -3.591575
     31          1           0        2.717876   -2.133545   -1.177494
     32          1           0        1.741840   -3.482149    0.424825
     33          1           0       -0.026579   -3.266204    0.653557
     34          1           0        0.573020   -4.570870   -0.363302
     35          1           0       -0.606959   -3.619024   -2.657298
     36          1           0       -1.462432   -2.816161   -1.336662
     37          1           0       -0.798676   -1.855742   -2.678901
     38          8           0        0.025941    2.630882   -0.632408
     39          8           0        2.232653    2.739092   -1.113205
     40          6           0        0.042871    4.006954   -0.141991
     41          6           0       -1.393086    4.438554    0.067826
     42          1           0        0.624331    4.019099    0.790044
     43          1           0        0.566972    4.624201   -0.882773
     44          1           0       -1.404471    5.470261    0.448374
     45          1           0       -1.953569    4.409753   -0.876417
     46          1           0       -1.896398    3.788829    0.794655
 ---------------------------------------------------------------------

 SCF Done:  E(UB3LYP) =  -3531.44781455     A.U. after   17 cycles

 The electronic state is 6-A.
 Alpha  occ. eigenvalues -- -256.21143-101.52519-101.52508-101.52498 -30.20517
 Alpha  occ. eigenvalues --  -26.05916 -26.05711 -26.05626 -19.20925 -19.18538
 Alpha  occ. eigenvalues --  -19.15955 -10.33909 -10.33498 -10.25078 -10.23214
 Alpha  occ. eigenvalues --  -10.22658 -10.22622 -10.21711 -10.21706 -10.21615
 Alpha  occ. eigenvalues --  -10.21050 -10.21009 -10.20500 -10.19685 -10.19449
 Alpha  occ. eigenvalues --  -10.18840 -10.18833 -10.18605  -9.44236  -9.44231
 Alpha  occ. eigenvalues --   -9.44215  -7.20107  -7.20099  -7.20082  -7.19790
 Alpha  occ. eigenvalues --   -7.19778  -7.19774  -7.19772  -7.19766  -7.19758
 Alpha  occ. eigenvalues --   -3.68187  -2.45839  -2.45460  -2.45292  -1.12848
 Alpha  occ. eigenvalues --   -1.09267  -1.04351  -0.88432  -0.85463  -0.82892
 Alpha  occ. eigenvalues --   -0.80544  -0.79784  -0.79771  -0.78815  -0.78676
 Alpha  occ. eigenvalues --   -0.77085  -0.75008  -0.70712  -0.70034  -0.67094
 Alpha  occ. eigenvalues --   -0.64754  -0.62786  -0.61745  -0.59878  -0.57705
 Alpha  occ. eigenvalues --   -0.56142  -0.53710  -0.53221  -0.51899  -0.50645
 Alpha  occ. eigenvalues --   -0.50200  -0.49245  -0.49148  -0.48427  -0.48308
 Alpha  occ. eigenvalues --   -0.47983  -0.47419  -0.47083  -0.47019  -0.45744
 Alpha  occ. eigenvalues --   -0.45639  -0.45114  -0.44064  -0.43099  -0.42607
 Alpha  occ. eigenvalues --   -0.42327  -0.40880  -0.40569  -0.40049  -0.39749
 Alpha  occ. eigenvalues --   -0.38942  -0.38358  -0.37964  -0.37772  -0.37562
 Alpha  occ. eigenvalues --   -0.37399  -0.37130  -0.36511  -0.36149  -0.35199
 Alpha  occ. eigenvalues --   -0.34809  -0.34192  -0.33852  -0.32422  -0.32174
 Alpha  occ. eigenvalues --   -0.31370  -0.31324  -0.31046  -0.30962  -0.30235
 Alpha  occ. eigenvalues --   -0.29912  -0.29609  -0.28571  -0.27740  -0.24948
 Alpha virt. eigenvalues --   -0.11155  -0.03384  -0.02273  -0.01709  -0.01133
 Alpha virt. eigenvalues --   -0.00140   0.00023   0.00077   0.01009   0.01539
 Alpha virt. eigenvalues --    0.01691   0.01979   0.02440   0.02784   0.03181

  Beta  occ. eigenvalues -- -256.20958-101.52328-101.52323-101.52312 -30.11585
  Beta  occ. eigenvalues --  -25.98359 -25.98306 -25.98255 -19.20924 -19.18126
  Beta  occ. eigenvalues --  -19.15954 -10.33908 -10.33482 -10.25078 -10.23203
  Beta  occ. eigenvalues --  -10.22640 -10.22592 -10.21712 -10.21707 -10.21618
  Beta  occ. eigenvalues --  -10.21048 -10.21008 -10.20496 -10.19687 -10.19401
  Beta  occ. eigenvalues --  -10.18842 -10.18834 -10.18604  -9.44050  -9.44049
  Beta  occ. eigenvalues --   -9.44032  -7.19796  -7.19793  -7.19779  -7.19531
  Beta  occ. eigenvalues --   -7.19530  -7.19524  -7.19516  -7.19514  -7.19503
  Beta  occ. eigenvalues --   -3.47355  -2.23630  -2.23575  -2.23521  -1.12843
  Beta  occ. eigenvalues --   -1.08472  -1.04348  -0.88398  -0.85385  -0.82826
  Beta  occ. eigenvalues --   -0.79335  -0.78781  -0.78676  -0.78474  -0.78439
  Beta  occ. eigenvalues --   -0.77081  -0.74972  -0.70685  -0.69921  -0.66976
  Beta  occ. eigenvalues --   -0.64704  -0.62759  -0.61653  -0.59456  -0.57498
  Beta  occ. eigenvalues --   -0.55608  -0.53496  -0.52709  -0.51823  -0.50457
  Beta  occ. eigenvalues --   -0.49642  -0.49002  -0.48154  -0.47382  -0.46990
  Beta  occ. eigenvalues --   -0.45738  -0.45229  -0.44070  -0.43124  -0.42601
  Beta  occ. eigenvalues --   -0.42278  -0.40890  -0.40543  -0.40058  -0.39733
  Beta  occ. eigenvalues --   -0.38777  -0.38437  -0.38176  -0.37920  -0.37720
  Beta  occ. eigenvalues --   -0.37350  -0.37128  -0.36523  -0.36220  -0.36157
  Beta  occ. eigenvalues --   -0.36093  -0.35177  -0.33983  -0.33523  -0.33243
  Beta  occ. eigenvalues --   -0.32700  -0.32625  -0.32221  -0.31353  -0.30621
  Beta  occ. eigenvalues --   -0.29801  -0.29590  -0.28774  -0.27742  -0.24817
  Beta virt. eigenvalues --   -0.15195  -0.14700  -0.13924  -0.13476  -0.13428
  Beta virt. eigenvalues --   -0.10255  -0.03370  -0.02234  -0.01615  -0.01040
  Beta virt. eigenvalues --   -0.00101   0.00060   0.00115   0.01170   0.01559

 Mulliken charges and spin densities:
               1          2
     1  C    0.208715  -0.000263
     2  C    3.036497  -0.005807
     3  C   -0.634480  -0.008322
     4  C    0.093916   0.003651
     5  C    0.294954   0.000804
     6  C   -0.124995   0.002038
     7  C   -2.362036  -0.001236
     8  C    0.426925   0.013942
     9  C    0.516792   0.004716
    10  C    0.630771  -0.002974
    11  C    0.258061   0.032231
    12  C   -0.080362   0.017245
    13  C    0.209663  -0.000740
    14  O   -0.344160   0.119306
    15  Fe   0.696710   4.062107
    16  Cl  -0.517786   0.248129
    17  C    0.287609  -0.000803
    18  Cl  -0.484150   0.254916
    19  Cl  -0.489738   0.252956
    20  H   -0.260046  -0.000149
    21  H   -0.158053   0.000007
    22  H   -0.149255   0.000003
    23  H   -0.153482   0.000130
    24  H   -0.221791  -0.000100
    25  H   -0.178031  -0.001042
    26  C    0.780883   0.002303
    27  H   -0.127757   0.000253
    28  H   -0.014989  -0.000026
    29  H   -0.084338   0.000047
    30  H   -0.114570   0.001501
    31  H   -0.268160  -0.001288
    32  H   -0.013537   0.000058
    33  H    0.062589   0.000587
    34  H   -0.024265   0.001324
    35  H   -0.006596   0.001330
    36  H    0.046477   0.001528
    37  H    0.047978  -0.000147
    38  O   -0.656810   0.002128
    39  O   -0.575541   0.000901
    40  C    0.426166   0.000647
    41  C    0.042114  -0.001530
    42  H   -0.032632   0.000009
    43  H   -0.036706   0.000020
    44  H   -0.008099   0.000060
    45  H    0.026773   0.000058
    46  H    0.028769  -0.000508
 Sum of Mulliken charges =  -0.00000   5.00000

 Dipole moment (field-independent basis, Debye):
    X=             10.4055    Y=             -1.5594    Z=             -2.3167  Tot=             10.7738
 Quadrupole moment (field-independent basis, Debye-Ang):
   XX=           -188.6773   YY=           -167.6679   ZZ=           -167.1520
   XY=            -11.7990   XZ=              9.6586   YZ=              3.9620

 Normal termination of Gaussian 16 at Sun Jun 20 17:11:56 2021.
