 Gaussian 16, Revision A.03,

 -----------------------------------------------------------
 #p opt=modredundant freq=noraman ub3lyp jul-cc-pvdz pop=cm5
 -----------------------------------------------------------

 -----
 title
 -----
 Symbolic Z-matrix:
 Charge =  0 Multiplicity = 6

 SCF Done:  E(UB3LYP) =  -3531.44703860     A.U. after   24 cycles
 SCF Done:  E(UB3LYP) =  -3531.44668728     A.U. after   18 cycles
 SCF Done:  E(UB3LYP) =  -3531.44539896     A.U. after   18 cycles
 SCF Done:  E(UB3LYP) =  -3531.44543375     A.U. after   17 cycles
 SCF Done:  E(UB3LYP) =  -3531.44724592     A.U. after   12 cycles
 SCF Done:  E(UB3LYP) =  -3531.44692637     A.U. after   17 cycles
 SCF Done:  E(UB3LYP) =  -3531.44754099     A.U. after   16 cycles
 SCF Done:  E(UB3LYP) =  -3531.44765919     A.U. after   15 cycles
 SCF Done:  E(UB3LYP) =  -3531.44766539     A.U. after   15 cycles
 SCF Done:  E(UB3LYP) =  -3531.44771425     A.U. after   13 cycles
 SCF Done:  E(UB3LYP) =  -3531.44772629     A.U. after   11 cycles
 SCF Done:  E(UB3LYP) =  -3531.44772646     A.U. after   11 cycles
 SCF Done:  E(UB3LYP) =  -3531.44772658     A.U. after   11 cycles
 SCF Done:  E(UB3LYP) =  -3531.44772677     A.U. after   11 cycles
 SCF Done:  E(UB3LYP) =  -3531.44772713     A.U. after   10 cycles
 SCF Done:  E(UB3LYP) =  -3531.44772751     A.U. after   11 cycles
 SCF Done:  E(UB3LYP) =  -3531.44772786     A.U. after   10 cycles
 Optimization completed.
    -- Stationary point found.
 Normal termination of Gaussian 16 at Sun Jun 20 15:44:30 2021.

 ----------------------------------------------------------------------
 #P Geom=AllCheck Guess=TCheck SCRF=Check GenChk UB3LYP/Jul-CC-pVDZ Fre
 q
 ----------------------------------------------------------------------

 Structure from the checkpoint file:  "checkpoint.chk"
 -----
 title
 -----
 Charge =  0 Multiplicity = 6

 SCF Done:  E(UB3LYP) =  -3531.44772786     A.U. after    1 cycles

  Exact polarizability: 307.467   9.199 306.120  27.230   1.346 304.367
 Approx polarizability: 471.860  44.599 475.119  56.828  -6.291 487.735

 ******    1 imaginary frequencies (negative Signs) ******

                      1                      2                      3
                      A                      A                      A
 Frequencies --     -9.2265                18.5284                23.0804
 Red. masses --      5.9429                 7.2471                 7.7125
 Frc consts  --      0.0003                 0.0015                 0.0024
 IR Inten    --      0.2487                 0.6757                 0.4140

                      4                      5                      6
                      A                      A                      A
 Frequencies --     31.8788                43.2733                53.0609
 Red. masses --      4.9712                 6.7854                 4.6082
 Frc consts  --      0.0030                 0.0075                 0.0076
 IR Inten    --      1.4593                 1.3832                 0.8835

                      7                      8                      9
                      A                      A                      A
 Frequencies --     61.9367                67.5362                77.2232
 Red. masses --      3.1003                 4.2194                 4.7307
 Frc consts  --      0.0070                 0.0113                 0.0166
 IR Inten    --      0.2252                 0.9849                 0.8267

                     10                     11                     12
                      A                      A                      A
 Frequencies --     80.9242                87.8887                98.0556
 Red. masses --      9.6427                 7.5660                 3.0534
 Frc consts  --      0.0372                 0.0344                 0.0173
 IR Inten    --      0.1713                 2.0875                 0.6523

                     13                     14                     15
                      A                      A                      A
 Frequencies --    103.5706               108.8412               114.2617
 Red. masses --      3.3650                 2.6017                 8.7502
 Frc consts  --      0.0213                 0.0182                 0.0673
 IR Inten    --      1.9568                 0.1790                 0.1180

                     16                     17                     18
                      A                      A                      A
 Frequencies --    118.9608               123.4188               144.5707
 Red. masses --      8.5416                 4.7630                 1.8722
 Frc consts  --      0.0712                 0.0427                 0.0231
 IR Inten    --      1.4418                 1.6565                 2.5416

                     19                     20                     21
                      A                      A                      A
 Frequencies --    150.3535               157.7908               181.6420
 Red. masses --      3.3890                 5.3136                 4.0540
 Frc consts  --      0.0451                 0.0779                 0.0788
 IR Inten    --      3.1089                10.2712                 9.8538

                     22                     23                     24
                      A                      A                      A
 Frequencies --    207.5997               208.5101               212.6892
 Red. masses --      3.2872                 1.2039                 3.0064
 Frc consts  --      0.0835                 0.0308                 0.0801
 IR Inten    --      0.6435                 5.8305                 2.4856

                     25                     26                     27
                      A                      A                      A
 Frequencies --    258.3407               266.0922               282.8866
 Red. masses --      1.5237                 3.4058                 4.1197
 Frc consts  --      0.0599                 0.1421                 0.1942
 IR Inten    --      1.7756                23.9775                 2.0856

                     28                     29                     30
                      A                      A                      A
 Frequencies --    316.9628               320.8758               342.7473
 Red. masses --      2.4031                 8.5929                18.9602
 Frc consts  --      0.1422                 0.5213                 1.3123
 IR Inten    --      0.8486                 8.2393                33.7015

                     31                     32                     33
                      A                      A                      A
 Frequencies --    354.9918               379.8679               391.1593
 Red. masses --      5.8838                 3.8308                 2.8246
 Frc consts  --      0.4369                 0.3257                 0.2546
 IR Inten    --     29.4449                 2.4851                 9.0284

                     34                     35                     36
                      A                      A                      A
 Frequencies --    398.9980               406.5548               414.3351
 Red. masses --     21.2944                29.1344                 3.0705
 Frc consts  --      1.9974                 2.8372                 0.3106
 IR Inten    --     70.1152                77.1427                 4.3525

                     37                     38                     39
                      A                      A                      A
 Frequencies --    422.0884               446.0091               473.8239
 Red. masses --      3.6961                 2.9064                 3.2735
 Frc consts  --      0.3880                 0.3406                 0.4330
 IR Inten    --     27.4730                 7.1185                 1.8360

                     40                     41                     42
                      A                      A                      A
 Frequencies --    497.9302               513.2488               545.8017
 Red. masses --      2.5691                 2.7737                 4.0650
 Frc consts  --      0.3753                 0.4305                 0.7135
 IR Inten    --     12.5279                 0.8213                17.3931

                     43                     44                     45
                      A                      A                      A
 Frequencies --    577.6493               623.8970               654.5760
 Red. masses --      4.5630                 6.3909                 4.5938
 Frc consts  --      0.8971                 1.4657                 1.1597
 IR Inten    --     60.5278                 2.5286                51.6154

                     46                     47                     48
                      A                      A                      A
 Frequencies --    697.4785               698.9194               753.0059
 Red. masses --      1.7367                 4.6069                 4.4212
 Frc consts  --      0.4978                 1.3259                 1.4770
 IR Inten    --     39.6534                26.1279                 5.7743

                     49                     50                     51
                      A                      A                      A
 Frequencies --    773.6562               785.3382               805.0560
 Red. masses --      2.3156                 2.2550                 1.1420
 Frc consts  --      0.8166                 0.8194                 0.4361
 IR Inten    --     29.6239                 2.7235                 1.7583

                     52                     53                     54
                      A                      A                      A
 Frequencies --    832.0070               844.3669               853.7840
 Red. masses --      4.5314                 1.4744                 1.2500
 Frc consts  --      1.8482                 0.6193                 0.5368
 IR Inten    --      8.8171                20.9131                 0.9268

                     55                     56                     57
                      A                      A                      A
 Frequencies --    865.2666               898.6158               908.5983
 Red. masses --      2.8116                 2.1305                 2.1403
 Frc consts  --      1.2402                 1.0136                 1.0411
 IR Inten    --     27.0186                 1.5851                15.5814

                     58                     59                     60
                      A                      A                      A
 Frequencies --    960.1432               962.6002               974.8500
 Red. masses --      1.4484                 1.4977                 2.9621
 Frc consts  --      0.7867                 0.8177                 1.6585
 IR Inten    --      2.2494                 3.7302                20.6357

                     61                     62                     63
                      A                      A                      A
 Frequencies --    990.3325               994.0319               999.4195
 Red. masses --      2.0890                 1.4537                 1.8076
 Frc consts  --      1.2071                 0.8463                 1.0638
 IR Inten    --     35.5808                 6.3338                 4.5037

                     64                     65                     66
                      A                      A                      A
 Frequencies --   1003.7625              1014.6508              1017.9578
 Red. masses --      2.5578                 1.3666                 2.0401
 Frc consts  --      1.5184                 0.8289                 1.2455
 IR Inten    --      0.2592                 0.9994                 0.2237

                     67                     68                     69
                      A                      A                      A
 Frequencies --   1036.3079              1047.0423              1077.5144
 Red. masses --      2.6127                 2.4281                 2.1573
 Frc consts  --      1.6532                 1.5684                 1.4758
 IR Inten    --     40.4216                 2.8408                 1.7929

                     70                     71                     72
                      A                      A                      A
 Frequencies --   1094.7468              1098.0033              1117.1796
 Red. masses --      1.7398                 2.1979                 1.5817
 Frc consts  --      1.2285                 1.5612                 1.1631
 IR Inten    --      1.5261                14.6847                 7.1676

                     73                     74                     75
                      A                      A                      A
 Frequencies --   1133.0009              1138.2344              1164.8051
 Red. masses --      2.1730                 2.1621                 1.6666
 Frc consts  --      1.6435                 1.6504                 1.3323
 IR Inten    --     15.5185                10.7144                85.1041

                     76                     77                     78
                      A                      A                      A
 Frequencies --   1170.1036              1179.4796              1205.2971
 Red. masses --      1.6045                 1.0859                 1.5777
 Frc consts  --      1.2943                 0.8901                 1.3504
 IR Inten    --     22.3412                 1.2685                55.5072

                     79                     80                     81
                      A                      A                      A
 Frequencies --   1210.1147              1227.6013              1254.5017
 Red. masses --      1.2780                 1.9724                 1.9667
 Frc consts  --      1.1027                 1.7513                 1.8236
 IR Inten    --     59.7699               149.3694                28.1997

                     82                     83                     84
                      A                      A                      A
 Frequencies --   1276.5974              1284.9074              1323.2055
 Red. masses --      2.1171                 1.1455                 1.3833
 Frc consts  --      2.0328                 1.1142                 1.4270
 IR Inten    --    178.7864                 8.4292                 6.6970

                     85                     86                     87
                      A                      A                      A
 Frequencies --   1329.4716              1338.0883              1343.3613
 Red. masses --      1.6658                 1.5454                 1.7112
 Frc consts  --      1.7348                 1.6302                 1.8195
 IR Inten    --    113.6776                28.9899                23.7250

                     88                     89                     90
                      A                      A                      A
 Frequencies --   1367.1919              1371.6619              1378.3704
 Red. masses --      1.7722                 2.1142                 1.3264
 Frc consts  --      1.9517                 2.3436                 1.4848
 IR Inten    --      5.0659                11.3455                 4.6423

                     91                     92                     93
                      A                      A                      A
 Frequencies --   1381.2912              1405.9865              1409.9890
 Red. masses --      1.3751                 1.3985                 1.3177
 Frc consts  --      1.5458                 1.6288                 1.5435
 IR Inten    --     22.2879                 6.4946                17.8060

                     94                     95                     96
                      A                      A                      A
 Frequencies --   1415.6566              1461.5782              1466.0930
 Red. masses --      1.4064                 1.0818                 1.4991
 Frc consts  --      1.6606                 1.3615                 1.8985
 IR Inten    --     13.2060                 7.3589                17.6791

                     97                     98                     99
                      A                      A                      A
 Frequencies --   1467.0499              1473.9877              1480.5854
 Red. masses --      1.4033                 1.0386                 1.0817
 Frc consts  --      1.7794                 1.3296                 1.3971
 IR Inten    --     18.4654                 4.9468                 2.2217

                    100                    101                    102
                      A                      A                      A
 Frequencies --   1482.6367              1486.0103              1488.6119
 Red. masses --      1.0479                 1.0544                 1.0973
 Frc consts  --      1.3572                 1.3719                 1.4326
 IR Inten    --     17.2853                 1.7833                 7.6906

                    103                    104                    105
                      A                      A                      A
 Frequencies --   1490.8209              1504.5091              1518.4549
 Red. masses --      1.0931                 1.0835                 2.1491
 Frc consts  --      1.4314                 1.4450                 2.9195
 IR Inten    --     10.0583                 6.4570                 9.8033

                    106                    107                    108
                      A                      A                      A
 Frequencies --   1553.4200              1619.6158              1641.4417
 Red. masses --      6.6810                 5.4351                 5.6426
 Frc consts  --      9.4989                 8.4000                 8.9573
 IR Inten    --    656.7757                36.4344                40.9304

                    109                    110                    111
                      A                      A                      A
 Frequencies --   1709.4665              1768.7233              3015.9178
 Red. masses --      6.3434                11.4131                 1.0384
 Frc consts  --     10.9218                21.0364                 5.5647
 IR Inten    --     78.4437               213.8437                12.7472

                    112                    113                    114
                      A                      A                      A
 Frequencies --   3027.3634              3031.5491              3042.0358
 Red. masses --      1.0430                 1.0645                 1.0356
 Frc consts  --      5.6320                 5.7638                 5.6462
 IR Inten    --     14.0313                31.3490                15.3927

                    115                    116                    117
                      A                      A                      A
 Frequencies --   3062.6329              3066.4693              3072.5749
 Red. masses --      1.0581                 1.0652                 1.0972
 Frc consts  --      5.8477                 5.9012                 6.1030
 IR Inten    --     12.8092                27.7365                 5.3535

                    118                    119                    120
                      A                      A                      A
 Frequencies --   3081.6643              3083.5456              3086.4424
 Red. masses --      1.0956                 1.0858                 1.0955
 Frc consts  --      6.1301                 6.0829                 6.1487
 IR Inten    --     18.3492                 2.2405                 3.6394

                    121                    122                    123
                      A                      A                      A
 Frequencies --   3109.1540              3118.7872              3118.8479
 Red. masses --      1.1070                 1.1013                 1.1021
 Frc consts  --      6.3050                 6.3116                 6.3164
 IR Inten    --      7.1796                 5.6134                18.4572

                    124                    125                    126
                      A                      A                      A
 Frequencies --   3123.2057              3130.0191              3137.7730
 Red. masses --      1.0972                 1.0897                 1.1053
 Frc consts  --      6.3057                 6.2901                 6.4117
 IR Inten    --      3.6802                27.7831                17.4619

                    127                    128                    129
                      A                      A                      A
 Frequencies --   3140.1727              3175.6274              3189.5216
 Red. masses --      1.0974                 1.0864                 1.0912
 Frc consts  --      6.3754                 6.4550                 6.5402
 IR Inten    --     24.5438                 1.0836                 7.1727

                    130                    131                    132
                      A                      A                      A
 Frequencies --   3197.9020              3219.8809              3228.4153
 Red. masses --      1.0964                 1.0937                 1.0932
 Frc consts  --      6.6060                 6.6807                 6.7135
 IR Inten    --      8.5236                 4.9257                 7.6216

 - Thermochemistry -
 -------------------
 Temperature   298.150 Kelvin.  Pressure   1.00000 Atm.
 Atom     1 has atomic number  6 and mass  12.00000

 Molecular mass:   434.99839 amu.
 Principal axes and moments of inertia in atomic units:
                           1         2         3
     Eigenvalues --  9951.21528********************
           X            0.98916  -0.14677   0.00386
           Y            0.14659   0.98874   0.02993
           Z           -0.00821  -0.02904   0.99954
 This molecule is an asymmetric top.
 Rotational symmetry number  1.
 Warning -- assumption of classical behavior for rotation
           may cause significant error
 Rotational temperatures (Kelvin)      0.00870     0.00777     0.00665
 Rotational constants (GHZ):           0.18136     0.16189     0.13853
    1 imaginary frequencies ignored.
 Zero-point vibrational energy     944155.6 (Joules/Mol)
                                  225.65861 (Kcal/Mol)
 Warning -- explicit consideration of  42 degrees of freedom as
           vibrations may cause significant error
 Vibrational temperatures:     26.66    33.21    45.87    62.26    76.34
          (Kelvin)             89.11    97.17   111.11   116.43   126.45
                              141.08   149.02   156.60   164.40   171.16
                              177.57   208.01   216.33   227.03   261.34
                              298.69   300.00   306.01   371.69   382.85
                              407.01   456.04   461.67   493.14   510.75
                              546.55   562.79   574.07   584.94   596.14
                              607.29   641.71   681.73   716.41   738.45
                              785.29   831.11   897.65   941.79  1003.52
                             1005.59  1083.41  1113.12  1129.93  1158.30
                             1197.07  1214.86  1228.40  1244.93  1292.91
                             1307.27  1381.43  1384.97  1402.59  1424.87
                             1430.19  1437.94  1444.19  1459.86  1464.61
                             1491.02  1506.46  1550.30  1575.10  1579.78
                             1607.37  1630.14  1637.67  1675.89  1683.52
                             1697.01  1734.15  1741.09  1766.24  1804.95
                             1836.74  1848.70  1903.80  1912.81  1925.21
                             1932.80  1967.08  1973.52  1983.17  1987.37
                             2022.90  2028.66  2036.81  2102.89  2109.38
                             2110.76  2120.74  2130.23  2133.18  2138.04
                             2141.78  2144.96  2164.65  2184.72  2235.02
                             2330.27  2361.67  2459.54  2544.80  4339.23
                             4355.70  4361.72  4376.81  4406.45  4411.97
                             4420.75  4433.83  4436.53  4440.70  4473.38
                             4487.24  4487.33  4493.60  4503.40  4514.56
                             4518.01  4569.02  4589.01  4601.07  4632.69
                             4644.97

 Zero-point correction=                           0.359610 (Hartree/Particle)
 Thermal correction to Energy=                    0.387275
 Thermal correction to Enthalpy=                  0.388219
 Thermal correction to Gibbs Free Energy=         0.296597
 Sum of electronic and zero-point Energies=          -3531.088118
 Sum of electronic and thermal Energies=             -3531.060453
 Sum of electronic and thermal Enthalpies=           -3531.059509
 Sum of electronic and thermal Free Energies=        -3531.151131

                     E (Thermal)             CV                S
                      KCal/Mol        Cal/Mol-Kelvin    Cal/Mol-Kelvin
 Total                  243.019             97.707            192.835
 Electronic               0.000              0.000              3.561
 Translational            0.889              2.981             44.100
 Rotational               0.889              2.981             35.623
 Vibrational            241.241             91.745            109.551
 Vibration     1          0.593              1.986              6.786
 Vibration     2          0.593              1.985              6.350
 Vibration     3          0.594              1.983              5.709
 Vibration     4          0.595              1.980              5.103
 Vibration     5          0.596              1.976              4.700
 Vibration     6          0.597              1.972              4.395
 Vibration     7          0.598              1.970              4.224
 Vibration     8          0.599              1.964              3.960
 Vibration     9          0.600              1.962              3.868
 Vibration    10          0.601              1.958              3.707
 Vibration    11          0.603              1.951              3.493
 Vibration    12          0.605              1.946              3.386
 Vibration    13          0.606              1.942              3.289
 Vibration    14          0.607              1.938              3.195
 Vibration    15          0.609              1.934              3.117
 Vibration    16          0.610              1.929              3.046
 Vibration    17          0.616              1.909              2.742
 Vibration    18          0.618              1.902              2.668
 Vibration    19          0.621              1.894              2.576
 Vibration    20          0.630              1.865              2.311
 Vibration    21          0.641              1.829              2.065
 Vibration    22          0.642              1.828              2.057
 Vibration    23          0.644              1.822              2.020
 Vibration    24          0.667              1.749              1.673
 Vibration    25          0.672              1.735              1.621
 Vibration    26          0.682              1.705              1.516
 Vibration    27          0.704              1.641              1.326
 Vibration    28          0.706              1.634              1.306
 Vibration    29          0.722              1.590              1.199
 Vibration    30          0.731              1.565              1.144
 Vibration    31          0.750              1.513              1.040
 Vibration    32          0.759              1.489              0.996
 Vibration    33          0.765              1.472              0.966
 Vibration    34          0.771              1.456              0.939
 Vibration    35          0.778              1.439              0.911
 Vibration    36          0.784              1.422              0.885
 Vibration    37          0.805              1.370              0.808
 Vibration    38          0.831              1.308              0.727
 Vibration    39          0.853              1.255              0.663
 Vibration    40          0.868              1.221              0.626
 Vibration    41          0.901              1.149              0.553
 Vibration    42          0.934              1.080              0.490

                           ! Non-Optimized Parameters !
 Normal termination of Gaussian 16 at Sun Jun 20 19:06:50 2021.

 ----------------------------------------------------------------------
 #p ub3lyp jul-cc-pvdz pop=cm5 scrf=(pcm,solvent=dichloroethane) guess=
 read geom=allcheck
 ----------------------------------------------------------------------

 Structure from the checkpoint file:  "checkpoint.chk"
 -----
 title
 -----
 Charge =  0 Multiplicity = 6

 SCF Done:  E(UB3LYP) =  -3531.46482440     A.U. after   18 cycles
 Normal termination of Gaussian 16 at Sun Jun 20 19:26:18 2021.
 Gaussian 16:  ES64L-G16RevA.03 25-Dec-2016

 ----------------------------------------------------------------------
 #p ub3lyp jul-cc-pvdz pop=cm5 scrf=(pcm,solvent=water) guess=read geom
 =allcheck
 ----------------------------------------------------------------------

 Structure from the checkpoint file:  "checkpoint.chk"
 -----
 title
 -----
 Charge =  0 Multiplicity = 6

                         Standard orientation:
 ---------------------------------------------------------------------
 Center     Atomic      Atomic             Coordinates (Angstroms)
 Number     Number       Type             X           Y           Z
 ---------------------------------------------------------------------
      1          6           0        2.796506    0.589210    1.305554
      2          6           0        1.692990   -0.214707    0.947196
      3          6           0        1.301602   -1.261946    1.810632
      4          6           0        2.004182   -1.508838    2.985377
      5          6           0        3.100167   -0.707282    3.328483
      6          6           0        3.487420    0.344214    2.491248
      7          6           0        0.896647    0.033729   -0.268938
      8          6           0        1.270811    1.081411   -1.326541
      9          6           0        2.630299    0.890502   -2.020425
     10          6           0        2.647826   -0.436704   -2.796783
     11          6           0        2.308184   -1.592839   -1.897385
     12          6           0        1.202386   -2.365461   -1.926075
     13          6           0        0.077460   -2.223496   -2.913299
     14          8           0       -0.229723   -0.507671   -0.397127
     15         26           0       -2.074437   -0.584505    0.337977
     16         17           0       -3.400777   -0.017564   -1.318386
     17          6           0        1.041516   -3.509373   -0.961249
     18         17           0       -2.077296    0.835634    2.019978
     19         17           0       -2.366858   -2.670587    0.996757
     20          1           0        0.444531   -1.881351    1.555114
     21          1           0        1.691351   -2.321762    3.641097
     22          1           0        3.646928   -0.897621    4.253515
     23          1           0        4.328081    0.982290    2.765395
     24          1           0        3.096665    1.431121    0.687385
     25          1           0        0.472840    0.988410   -2.073989
     26          6           0        1.115558    2.495083   -0.732146
     27          1           0        2.791178    1.738782   -2.699907
     28          1           0        3.449589    0.919075   -1.293510
     29          1           0        1.951658   -0.372834   -3.643492
     30          1           0        3.652084   -0.579771   -3.225822
     31          1           0        3.066546   -1.831967   -1.145329
     32          1           0        1.877753   -3.573832   -0.253684
     33          1           0        0.099360   -3.422805   -0.398858
     34          1           0        0.984268   -4.462165   -1.512083
     35          1           0       -0.025556   -3.154581   -3.493171
     36          1           0       -0.879442   -2.076280   -2.391307
     37          1           0        0.209309   -1.397289   -3.619727
     38          8           0       -0.176850    2.817037   -0.634596
     39          8           0        2.038630    3.216587   -0.418809
     40          6           0       -0.491147    4.122353   -0.057753
     41          6           0       -1.990529    4.311257   -0.146495
     42          1           0       -0.129756    4.123708    0.979279
     43          1           0        0.066429    4.883577   -0.618888
     44          1           0       -2.255469    5.285740    0.288532
     45          1           0       -2.328577    4.294624   -1.191630
     46          1           0       -2.518281    3.524572    0.407589
 ---------------------------------------------------------------------

 SCF Done:  E(UB3LYP) =  -3531.46805877     A.U. after   14 cycles

 The electronic state is 6-A.
 Alpha  occ. eigenvalues -- -256.21747-101.52967-101.52886-101.52817 -30.21128
 Alpha  occ. eigenvalues --  -26.06591 -26.06267 -26.06226 -19.21155 -19.19932
 Alpha  occ. eigenvalues --  -19.16270 -10.34248 -10.33652 -10.25226 -10.23389
 Alpha  occ. eigenvalues --  -10.22964 -10.22077 -10.22038 -10.21931 -10.21267
 Alpha  occ. eigenvalues --  -10.21258 -10.20733 -10.20442 -10.19447 -10.18739
 Alpha  occ. eigenvalues --  -10.18665 -10.18384 -10.18246  -9.44677  -9.44606
 Alpha  occ. eigenvalues --   -9.44552  -7.20547  -7.20476  -7.20419  -7.20245
 Alpha  occ. eigenvalues --   -7.20212  -7.20162  -7.20143  -7.20099  -7.20096
 Alpha  occ. eigenvalues --   -3.68772  -2.46544  -2.45932  -2.45854  -1.13101
 Alpha  occ. eigenvalues --   -1.10308  -1.04629  -0.88711  -0.84977  -0.82223
 Alpha  occ. eigenvalues --   -0.80930  -0.80186  -0.80132  -0.79096  -0.78610
 Alpha  occ. eigenvalues --   -0.77360  -0.75024  -0.69890  -0.69377  -0.67440
 Alpha  occ. eigenvalues --   -0.64761  -0.63023  -0.61866  -0.59993  -0.57811
 Alpha  occ. eigenvalues --   -0.56515  -0.53791  -0.52840  -0.52095  -0.50936
 Alpha  occ. eigenvalues --   -0.50241  -0.49484  -0.49146  -0.48840  -0.48704
 Alpha  occ. eigenvalues --   -0.48424  -0.47407  -0.47089  -0.46861  -0.45818
 Alpha  occ. eigenvalues --   -0.45343  -0.45123  -0.44302  -0.43220  -0.42727
 Alpha  occ. eigenvalues --   -0.42497  -0.41034  -0.40504  -0.39978  -0.39364
 Alpha  occ. eigenvalues --   -0.38842  -0.38475  -0.37978  -0.37823  -0.37520
 Alpha  occ. eigenvalues --   -0.37247  -0.36971  -0.36651  -0.36357  -0.35189
 Alpha  occ. eigenvalues --   -0.34971  -0.34694  -0.33380  -0.32615  -0.32266
 Alpha  occ. eigenvalues --   -0.31765  -0.31705  -0.31552  -0.31358  -0.30454
 Alpha  occ. eigenvalues --   -0.30258  -0.29915  -0.28795  -0.27999  -0.24799
 Alpha virt. eigenvalues --   -0.11338  -0.03618  -0.02312  -0.01651  -0.00699
 Alpha virt. eigenvalues --   -0.00117  -0.00005   0.00114   0.00630   0.01531
 Alpha virt. eigenvalues --    0.01721   0.01923   0.02285   0.02578   0.03271

  Beta  occ. eigenvalues -- -256.21561-101.52767-101.52693-101.52625 -30.12186
  Beta  occ. eigenvalues --  -25.98996 -25.98881 -25.98851 -19.21154 -19.19590
  Beta  occ. eigenvalues --  -19.16266 -10.34245 -10.33623 -10.25226 -10.23375
  Beta  occ. eigenvalues --  -10.22952 -10.22073 -10.22031 -10.21928 -10.21268
  Beta  occ. eigenvalues --  -10.21260 -10.20719 -10.20441 -10.19447 -10.18738
  Beta  occ. eigenvalues --  -10.18651 -10.18385 -10.18246  -9.44481  -9.44416
  Beta  occ. eigenvalues --   -9.44363  -7.20227  -7.20159  -7.20109  -7.19961
  Beta  occ. eigenvalues --   -7.19944  -7.19898  -7.19885  -7.19838  -7.19831
  Beta  occ. eigenvalues --   -3.47917  -2.24228  -2.24107  -2.24058  -1.13092
  Beta  occ. eigenvalues --   -1.09653  -1.04624  -0.88678  -0.84926  -0.82177
  Beta  occ. eigenvalues --   -0.79663  -0.79070  -0.78818  -0.78778  -0.78590
  Beta  occ. eigenvalues --   -0.77353  -0.74987  -0.69874  -0.69269  -0.67337
  Beta  occ. eigenvalues --   -0.64729  -0.62997  -0.61650  -0.59640  -0.57652
  Beta  occ. eigenvalues --   -0.55871  -0.53362  -0.52708  -0.51969  -0.50712
  Beta  occ. eigenvalues --   -0.49880  -0.49241  -0.47492  -0.46940  -0.46550
  Beta  occ. eigenvalues --   -0.45401  -0.45300  -0.44295  -0.43238  -0.42713
  Beta  occ. eigenvalues --   -0.42497  -0.41053  -0.40490  -0.39970  -0.39266
  Beta  occ. eigenvalues --   -0.38846  -0.38617  -0.38369  -0.37860  -0.37516
  Beta  occ. eigenvalues --   -0.37265  -0.36973  -0.36572  -0.36568  -0.36515
  Beta  occ. eigenvalues --   -0.36347  -0.35111  -0.33883  -0.33678  -0.33512
  Beta  occ. eigenvalues --   -0.33012  -0.32784  -0.32406  -0.31671  -0.30828
  Beta  occ. eigenvalues --   -0.30117  -0.30031  -0.28889  -0.27987  -0.24705
  Beta virt. eigenvalues --   -0.15802  -0.15316  -0.14394  -0.13991  -0.13890
  Beta virt. eigenvalues --   -0.10367  -0.03587  -0.02279  -0.01521  -0.00632
  Beta virt. eigenvalues --   -0.00075   0.00036   0.00167   0.00772   0.01557

 Mulliken charges and spin densities:
               1          2
     1  C   -0.141796   0.003927
     2  C    3.207259  -0.001562
     3  C   -0.688627  -0.004775
     4  C    0.107701   0.001008
     5  C    0.274399   0.007270
     6  C   -0.165129  -0.001180
     7  C   -1.858994  -0.009452
     8  C    0.265940   0.012616
     9  C    0.592371   0.002766
    10  C    0.554001  -0.000719
    11  C    0.170893   0.007953
    12  C   -0.008044   0.013289
    13  C    0.156997  -0.001490
    14  O   -0.285526   0.099018
    15  Fe   0.739157   4.072073
    16  Cl  -0.491474   0.263419
    17  C    0.155694  -0.002282
    18  Cl  -0.459604   0.266733
    19  Cl  -0.460716   0.261343
    20  H   -0.268718   0.000090
    21  H   -0.160562   0.000014
    22  H   -0.143779  -0.000100
    23  H   -0.154051   0.000094
    24  H   -0.188699  -0.000091
    25  H   -0.152049  -0.000588
    26  C    0.782981   0.005377
    27  H   -0.135605   0.000464
    28  H   -0.045856   0.000012
    29  H   -0.089691   0.000004
    30  H   -0.118312   0.000744
    31  H   -0.241188  -0.000412
    32  H   -0.018494   0.000069
    33  H    0.063837   0.000786
    34  H   -0.025838   0.000588
    35  H   -0.017140   0.000548
    36  H    0.020389   0.000858
    37  H   -0.009883   0.000022
    38  O   -0.663763   0.001311
    39  O   -0.549751   0.001450
    40  C    0.432506  -0.000095
    41  C    0.041326  -0.000686
    42  H   -0.031669  -0.000011
    43  H   -0.039253   0.000001
    44  H   -0.004435   0.000046
    45  H    0.025064   0.000055
    46  H    0.028129  -0.000502
 Sum of Mulliken charges =  -0.00000   5.00000

 Dipole moment (field-independent basis, Debye):
    X=              9.6424    Y=              1.0931    Z=             -1.1491  Tot=              9.7720
 Quadrupole moment (field-independent basis, Debye-Ang):
   XX=           -186.8564   YY=           -171.8073   ZZ=           -165.4518
   XY=            -13.6927   XZ=              7.5786   YZ=             -1.7142

 Normal termination of Gaussian 16 at Sun Jun 20 19:41:49 2021.
