 Gaussian 16, Revision A.03,

 -----------------------------------------------------------
 #p opt=modredundant freq=noraman ub3lyp jul-cc-pvdz pop=cm5
 -----------------------------------------------------------

 -----
 title
 -----
 Symbolic Z-matrix:
 Charge =  0 Multiplicity = 6

 SCF Done:  E(UB3LYP) =  -3531.41708877     A.U. after   26 cycles
 SCF Done:  E(UB3LYP) =  -3531.41600328     A.U. after   18 cycles
 SCF Done:  E(UB3LYP) =  -3531.41461586     A.U. after   20 cycles
 SCF Done:  E(UB3LYP) =  -3531.41402557     A.U. after   20 cycles
 SCF Done:  E(UB3LYP) =  -3531.41724490     A.U. after   14 cycles
 SCF Done:  E(UB3LYP) =  -3531.41705306     A.U. after   18 cycles
 SCF Done:  E(UB3LYP) =  -3531.41740921     A.U. after   18 cycles
 SCF Done:  E(UB3LYP) =  -3531.41753802     A.U. after   15 cycles
 SCF Done:  E(UB3LYP) =  -3531.41771675     A.U. after   16 cycles
 SCF Done:  E(UB3LYP) =  -3531.41771019     A.U. after   15 cycles
 SCF Done:  E(UB3LYP) =  -3531.41775943     A.U. after    9 cycles
 SCF Done:  E(UB3LYP) =  -3531.41775970     A.U. after   10 cycles
 SCF Done:  E(UB3LYP) =  -3531.41775986     A.U. after   10 cycles
 SCF Done:  E(UB3LYP) =  -3531.41776003     A.U. after   10 cycles
 SCF Done:  E(UB3LYP) =  -3531.41776014     A.U. after   10 cycles
 SCF Done:  E(UB3LYP) =  -3531.41776022     A.U. after    9 cycles
 SCF Done:  E(UB3LYP) =  -3531.41776026     A.U. after    8 cycles
 Optimization completed.
    -- Stationary point found.
 Normal termination of Gaussian 16 at Sun Jun 20 06:18:35 2021.

 ----------------------------------------------------------------------
 #P Geom=AllCheck Guess=TCheck SCRF=Check GenChk UB3LYP/Jul-CC-pVDZ Fre
 q
 ----------------------------------------------------------------------

 Structure from the checkpoint file:  "checkpoint.chk"
 -----
 title
 -----
 Charge =  0 Multiplicity = 6

 SCF Done:  E(UB3LYP) =  -3531.41776026     A.U. after    2 cycles

  Exact polarizability: 317.289  13.971 300.857  12.261  12.267 298.172
 Approx polarizability: 490.861  42.552 458.674   9.984  19.452 495.990

 ******    2 imaginary frequencies (negative Signs) ******

                      1                      2                      3
                      A                      A                      A
 Frequencies --   -111.9278               -20.8806                20.7726
 Red. masses --      6.3527                 5.8140                 5.1236
 Frc consts  --      0.0469                 0.0015                 0.0013
 IR Inten    --    219.0803                 1.0492                 0.7615

                      4                      5                      6
                      A                      A                      A
 Frequencies --     26.7833                30.8508                50.3006
 Red. masses --      6.8252                 7.0200                 4.3071
 Frc consts  --      0.0029                 0.0039                 0.0064
 IR Inten    --      1.8497                 1.1125                 1.9429

                      7                      8                      9
                      A                      A                      A
 Frequencies --     56.4663                61.2893                67.2381
 Red. masses --      3.4649                 5.1893                 4.0958
 Frc consts  --      0.0065                 0.0115                 0.0109
 IR Inten    --      7.5340                 0.9589                 0.4238

                     10                     11                     12
                      A                      A                      A
 Frequencies --     83.0498                89.4571               101.8847
 Red. masses --      9.5347                 7.5424                 5.0300
 Frc consts  --      0.0387                 0.0356                 0.0308
 IR Inten    --      0.6755                 1.3091                 7.8004

                     13                     14                     15
                      A                      A                      A
 Frequencies --    103.7416               106.6565               120.7074
 Red. masses --      7.4978                 5.1724                17.4627
 Frc consts  --      0.0475                 0.0347                 0.1499
 IR Inten    --      2.2405                14.3043                 5.0581

                     16                     17                     18
                      A                      A                      A
 Frequencies --    127.9361               144.7340               148.6870
 Red. masses --      7.9590                 1.9237                 2.0560
 Frc consts  --      0.0768                 0.0237                 0.0268
 IR Inten    --      1.7794                 2.3463                 4.8355

                     19                     20                     21
                      A                      A                      A
 Frequencies --    160.0082               169.7418               176.4261
 Red. masses --      2.4777                 1.3811                 2.2607
 Frc consts  --      0.0374                 0.0234                 0.0415
 IR Inten    --      2.9998                 1.7194                 1.7198

                     22                     23                     24
                      A                      A                      A
 Frequencies --    196.3293               206.5148               228.1919
 Red. masses --      2.8109                 2.8157                 4.8558
 Frc consts  --      0.0638                 0.0708                 0.1490
 IR Inten    --      0.8174                 7.7615                38.9963

                     25                     26                     27
                      A                      A                      A
 Frequencies --    239.6835               260.3413               292.8913
 Red. masses --      3.3370                 1.7724                 3.9614
 Frc consts  --      0.1129                 0.0708                 0.2002
 IR Inten    --      8.9158                 2.7939                 3.6914

                     28                     29                     30
                      A                      A                      A
 Frequencies --    318.2121               327.2043               348.2057
 Red. masses --      2.2705                 8.9887                 9.2110
 Frc consts  --      0.1355                 0.5670                 0.6580
 IR Inten    --      0.9889                 4.0964                26.7975

                     31                     32                     33
                      A                      A                      A
 Frequencies --    354.5785               372.9407               384.6440
 Red. masses --      8.7537                 3.8689                33.9585
 Frc consts  --      0.6484                 0.3170                 2.9602
 IR Inten    --     31.5003                11.1332                86.7655

                     34                     35                     36
                      A                      A                      A
 Frequencies --    393.5570               402.1727               410.8017
 Red. masses --     28.2095                 2.7633                 2.8638
 Frc consts  --      2.5743                 0.2633                 0.2847
 IR Inten    --     75.4134                10.6761                 0.4917

                     37                     38                     39
                      A                      A                      A
 Frequencies --    431.5721               453.0892               480.0584
 Red. masses --      3.6243                 4.1648                 2.6911
 Frc consts  --      0.3977                 0.5037                 0.3654
 IR Inten    --     30.7268                 2.3557                11.7499

                     40                     41                     42
                      A                      A                      A
 Frequencies --    508.4015               528.2530               554.9811
 Red. masses --      2.8415                 3.2800                 3.0960
 Frc consts  --      0.4327                 0.5393                 0.5618
 IR Inten    --      6.7767                 4.1071                36.2203

                     43                     44                     45
                      A                      A                      A
 Frequencies --    608.8205               625.3011               639.6584
 Red. masses --      4.6658                 5.9752                 4.0275
 Frc consts  --      1.0190                 1.3765                 0.9709
 IR Inten    --     49.1707                20.5336               103.3927

                     46                     47                     48
                      A                      A                      A
 Frequencies --    694.1039               704.6723               756.7674
 Red. masses --      1.6202                 6.1710                 4.5546
 Frc consts  --      0.4599                 1.8054                 1.5368
 IR Inten    --     53.2742                24.7179                 3.8164

                     49                     50                     51
                      A                      A                      A
 Frequencies --    764.8919               798.6707               804.0625
 Red. masses --      2.3879                 1.9580                 1.6407
 Frc consts  --      0.8231                 0.7359                 0.6250
 IR Inten    --     14.7985                21.5443                 1.4684

                     52                     53                     54
                      A                      A                      A
 Frequencies --    819.3555               840.8459               863.3210
 Red. masses --      2.6934                 1.2601                 2.3012
 Frc consts  --      1.0653                 0.5249                 1.0105
 IR Inten    --     24.7942                 1.3653                12.2668

                     55                     56                     57
                      A                      A                      A
 Frequencies --    871.7830               893.9286               922.5478
 Red. masses --      1.6872                 1.7265                 1.9901
 Frc consts  --      0.7555                 0.8129                 0.9979
 IR Inten    --     28.2208                 4.0576                15.1057

                     58                     59                     60
                      A                      A                      A
 Frequencies --    938.2842               962.5129               964.4957
 Red. masses --      1.4213                 2.8302                 1.3613
 Frc consts  --      0.7372                 1.5448                 0.7461
 IR Inten    --      1.4550                16.7030                34.3984

                     61                     62                     63
                      A                      A                      A
 Frequencies --    984.9169               989.4493               998.1250
 Red. masses --      1.5432                 2.5780                 1.2819
 Frc consts  --      0.8820                 1.4870                 0.7525
 IR Inten    --      6.1734                32.7643                10.8245

                     64                     65                     66
                      A                      A                      A
 Frequencies --   1001.5993              1005.7803              1007.7413
 Red. masses --      1.9792                 2.0600                 2.1739
 Frc consts  --      1.1698                 1.2278                 1.3007
 IR Inten    --      0.6435                 6.9458                 1.7230

                     67                     68                     69
                      A                      A                      A
 Frequencies --   1037.2002              1047.2146              1067.0622
 Red. masses --      2.7503                 2.4296                 2.3100
 Frc consts  --      1.7432                 1.5698                 1.5497
 IR Inten    --     37.9318                 4.6925                 3.1468

                     70                     71                     72
                      A                      A                      A
 Frequencies --   1078.5376              1096.6997              1110.7819
 Red. masses --      1.8277                 1.7427                 1.5690
 Frc consts  --      1.2527                 1.2349                 1.1406
 IR Inten    --     20.9563                11.2544                10.1172

                     73                     74                     75
                      A                      A                      A
 Frequencies --   1132.1936              1135.9578              1161.5015
 Red. masses --      2.1477                 2.3451                 1.7066
 Frc consts  --      1.6220                 1.7829                 1.3565
 IR Inten    --     11.9662                 6.0813                56.2116

                     76                     77                     78
                      A                      A                      A
 Frequencies --   1170.3482              1175.9480              1194.7173
 Red. masses --      1.5696                 1.0894                 1.6112
 Frc consts  --      1.2667                 0.8876                 1.3550
 IR Inten    --      6.5261                 1.0819                49.5371

                     79                     80                     81
                      A                      A                      A
 Frequencies --   1203.8434              1219.7620              1234.8387
 Red. masses --      1.2427                 2.8113                 2.1400
 Frc consts  --      1.0611                 2.4644                 1.9225
 IR Inten    --     20.3295                78.2088               109.6675

                     82                     83                     84
                      A                      A                      A
 Frequencies --   1258.0028              1285.0695              1297.7496
 Red. masses --      1.9074                 1.1430                 1.9237
 Frc consts  --      1.7785                 1.1121                 1.9088
 IR Inten    --     29.7773                23.4856               313.9926

                     85                     86                     87
                      A                      A                      A
 Frequencies --   1323.1034              1326.0047              1333.0641
 Red. masses --      1.4467                 1.4943                 1.6743
 Frc consts  --      1.4921                 1.5480                 1.7530
 IR Inten    --     43.0398                53.2814                25.5850

                     88                     89                     90
                      A                      A                      A
 Frequencies --   1360.0144              1360.8917              1363.6216
 Red. masses --      2.3492                 2.0342                 1.3657
 Frc consts  --      2.5602                 2.2197                 1.4962
 IR Inten    --     41.5178                35.0595                33.9514

                     91                     92                     93
                      A                      A                      A
 Frequencies --   1381.5750              1385.2732              1396.6802
 Red. masses --      1.4389                 1.3917                 1.4003
 Frc consts  --      1.6181                 1.5735                 1.6095
 IR Inten    --    102.0384                50.9533               110.1371

                     94                     95                     96
                      A                      A                      A
 Frequencies --   1409.5762              1416.2820              1448.5465
 Red. masses --      1.7007                 1.4535                 1.0689
 Frc consts  --      1.9909                 1.7178                 1.3215
 IR Inten    --    133.4560                 2.3716                15.8635

                     97                     98                     99
                      A                      A                      A
 Frequencies --   1464.2569              1468.4508              1472.6572
 Red. masses --      1.0779                 1.1687                 1.9078
 Frc consts  --      1.3616                 1.4848                 2.4378
 IR Inten    --      1.3352                 3.8883                54.3196

                    100                    101                    102
                      A                      A                      A
 Frequencies --   1473.3581              1480.9075              1488.5458
 Red. masses --      1.0581                 1.1307                 1.0545
 Frc consts  --      1.3532                 1.4610                 1.3767
 IR Inten    --      4.4445                27.4737                 2.0382

                    103                    104                    105
                      A                      A                      A
 Frequencies --   1498.7678              1504.2790              1506.4475
 Red. masses --      1.1596                 1.1218                 1.0840
 Frc consts  --      1.5347                 1.4956                 1.4494
 IR Inten    --      8.6709                17.7971                 6.9989

                    106                    107                    108
                      A                      A                      A
 Frequencies --   1516.3410              1617.9536              1635.2409
 Red. masses --      1.8832                 5.5017                 5.1143
 Frc consts  --      2.5511                 8.4855                 8.0574
 IR Inten    --      2.8509                12.2957               153.3252

                    109                    110                    111
                      A                      A                      A
 Frequencies --   1639.5476              1765.5166              3011.9548
 Red. masses --      5.6856                11.4926                 1.0509
 Frc consts  --      9.0047                21.1063                 5.6173
 IR Inten    --     11.0432               232.3945                 2.2110

                    112                    113                    114
                      A                      A                      A
 Frequencies --   3025.1707              3041.4715              3048.6570
 Red. masses --      1.0407                 1.0360                 1.0648
 Frc consts  --      5.6114                 5.6465                 5.8309
 IR Inten    --      3.9183                20.1746                22.8464

                    115                    116                    117
                      A                      A                      A
 Frequencies --   3060.9474              3070.5211              3078.2481
 Red. masses --      1.0593                 1.0627                 1.0861
 Frc consts  --      5.8478                 5.9031                 6.0633
 IR Inten    --     14.3449                25.7075                 0.8169

                    118                    119                    120
                      A                      A                      A
 Frequencies --   3082.6527              3099.7240              3107.6307
 Red. masses --      1.0949                 1.0981                 1.0837
 Frc consts  --      6.1302                 6.2166                 6.1665
 IR Inten    --      1.6102                 4.8070                 1.2948

                    121                    122                    123
                      A                      A                      A
 Frequencies --   3109.6979              3117.5336              3122.5233
 Red. masses --      1.1051                 1.1027                 1.1010
 Frc consts  --      6.2961                 6.3145                 6.3246
 IR Inten    --     10.4707                15.7600                16.4180

                    124                    125                    126
                      A                      A                      A
 Frequencies --   3140.4424              3146.6658              3164.8155
 Red. masses --      1.1044                 1.1022                 1.1022
 Frc consts  --      6.4174                 6.4298                 6.5046
 IR Inten    --     13.0743                 6.5659                 4.0036

                    127                    128                    129
                      A                      A                      A
 Frequencies --   3173.2833              3175.0005              3185.8621
 Red. masses --      1.0859                 1.0881                 1.0911
 Frc consts  --      6.4428                 6.4624                 6.5247
 IR Inten    --      0.1338                 8.6729                 7.2751

                    130                    131                    132
                      A                      A                      A
 Frequencies --   3195.8639              3228.2191              3231.0831
 Red. masses --      1.0969                 1.0923                 1.0915
 Frc consts  --      6.6009                 6.7065                 6.7137
 IR Inten    --     14.1156                 2.1031                 1.4500

 - Thermochemistry -
 -------------------
 Temperature   298.150 Kelvin.  Pressure   1.00000 Atm.
 Atom     1 has atomic number  6 and mass  12.00000

 Molecular mass:   434.99839 amu.
 Principal axes and moments of inertia in atomic units:
                           1         2         3
     Eigenvalues --  9106.82011********************
           X            0.99944  -0.02966   0.01553
           Y            0.02925   0.99924   0.02578
           Z           -0.01628  -0.02531   0.99955
 This molecule is an asymmetric top.
 Rotational symmetry number  1.
 Warning -- assumption of classical behavior for rotation
           may cause significant error
 Rotational temperatures (Kelvin)      0.00951     0.00791     0.00678
 Rotational constants (GHZ):           0.19817     0.16478     0.14128
    2 imaginary frequencies ignored.
 Zero-point vibrational energy     942437.8 (Joules/Mol)
                                  225.24803 (Kcal/Mol)
 Warning -- explicit consideration of  41 degrees of freedom as
           vibrations may cause significant error
 Vibrational temperatures:     29.89    38.54    44.39    72.37    81.24
          (Kelvin)             88.18    96.74   119.49   128.71   146.59
                              149.26   153.45   173.67   184.07   208.24
                              213.93   230.22   244.22   253.84   282.47
                              297.13   328.32   344.85   374.57   421.41
                              457.84   470.77   500.99   510.16   536.58
                              553.42   566.24   578.64   591.05   620.94
                              651.89   690.70   731.48   760.04   798.49
                              875.96   899.67   920.33   998.66  1013.87
                             1088.82  1100.51  1149.11  1156.87  1178.87
                             1209.79  1242.13  1254.30  1286.16  1327.34
                             1349.98  1384.84  1387.69  1417.08  1423.60
                             1436.08  1441.08  1447.09  1449.91  1492.30
                             1506.71  1535.26  1551.78  1577.91  1598.17
                             1628.97  1634.39  1671.14  1683.87  1691.93
                             1718.93  1732.06  1754.97  1776.66  1809.99
                             1848.93  1867.17  1903.65  1907.82  1917.98
                             1956.76  1958.02  1961.95  1987.78  1993.10
                             2009.51  2028.07  2037.71  2084.14  2106.74
                             2112.77  2118.83  2119.83  2130.70  2141.69
                             2156.39  2164.32  2167.44  2181.68  2327.87
                             2352.75  2358.94  2540.18  4333.53  4352.55
                             4376.00  4386.34  4404.02  4417.80  4428.91
                             4435.25  4459.81  4471.19  4474.16  4485.44
                             4492.61  4518.40  4527.35  4553.46  4565.65
                             4568.12  4583.74  4598.14  4644.69  4648.81

 Zero-point correction=                           0.358956 (Hartree/Particle)
 Thermal correction to Energy=                    0.385695
 Thermal correction to Enthalpy=                  0.386640
 Thermal correction to Gibbs Free Energy=         0.297797
 Sum of electronic and zero-point Energies=          -3531.058805
 Sum of electronic and thermal Energies=             -3531.032065
 Sum of electronic and thermal Enthalpies=           -3531.031121
 Sum of electronic and thermal Free Energies=        -3531.119963

                     E (Thermal)             CV                S
                      KCal/Mol        Cal/Mol-Kelvin    Cal/Mol-Kelvin
 Total                  242.028             95.784            186.985
 Electronic               0.000              0.000              3.561
 Translational            0.889              2.981             44.100
 Rotational               0.889              2.981             35.498
 Vibrational            240.250             89.823            103.826
 Vibration     1          0.593              1.986              6.559
 Vibration     2          0.593              1.984              6.054
 Vibration     3          0.594              1.984              5.774
 Vibration     4          0.595              1.977              4.806
 Vibration     5          0.596              1.975              4.577
 Vibration     6          0.597              1.973              4.415
 Vibration     7          0.598              1.970              4.233
 Vibration     8          0.600              1.961              3.817
 Vibration     9          0.602              1.957              3.672
 Vibration    10          0.604              1.948              3.418
 Vibration    11          0.605              1.946              3.383
 Vibration    12          0.606              1.944              3.329
 Vibration    13          0.609              1.932              3.089
 Vibration    14          0.611              1.925              2.977
 Vibration    15          0.616              1.908              2.740
 Vibration    16          0.618              1.904              2.689
 Vibration    17          0.622              1.891              2.550
 Vibration    18          0.625              1.880              2.438
 Vibration    19          0.628              1.871              2.366
 Vibration    20          0.636              1.845              2.167
 Vibration    21          0.641              1.831              2.074
 Vibration    22          0.651              1.798              1.893
 Vibration    23          0.657              1.780              1.805
 Vibration    24          0.668              1.745              1.659
 Vibration    25          0.688              1.687              1.457
 Vibration    26          0.705              1.639              1.319
 Vibration    27          0.711              1.621              1.274
 Vibration    28          0.726              1.579              1.174
 Vibration    29          0.730              1.566              1.146
 Vibration    30          0.744              1.528              1.068
 Vibration    31          0.754              1.503              1.021
 Vibration    32          0.761              1.484              0.987
 Vibration    33          0.768              1.465              0.955
 Vibration    34          0.775              1.447              0.924
 Vibration    35          0.793              1.401              0.854
 Vibration    36          0.812              1.354              0.786
 Vibration    37          0.836              1.294              0.710
 Vibration    38          0.864              1.231              0.637
 Vibration    39          0.883              1.187              0.591
 Vibration    40          0.910              1.129              0.534
 Vibration    41          0.968              1.013              0.435

 Optimization completed.
    -- Stationary point found.
 Normal termination of Gaussian 16 at Sun Jun 20 10:26:26 2021.

 ----------------------------------------------------------------------
 #p ub3lyp jul-cc-pvdz pop=cm5 scrf=(pcm,solvent=dichloroethane) guess=
 read geom=allcheck
 ----------------------------------------------------------------------

 Structure from the checkpoint file:  "checkpoint.chk"
 -----
 title
 -----
 Charge =  0 Multiplicity = 6

 SCF Done:  E(UB3LYP) =  -3531.43778408     A.U. after   19 cycles
 Normal termination of Gaussian 16 at Sun Jun 20 10:51:41 2021.
 Gaussian 16:  ES64L-G16RevA.03 25-Dec-2016

 ----------------------------------------------------------------------
 #p ub3lyp jul-cc-pvdz pop=cm5 scrf=(pcm,solvent=water) guess=read geom
 =allcheck
 ----------------------------------------------------------------------

 Structure from the checkpoint file:  "checkpoint.chk"
 -----
 title
 -----
 Charge =  0 Multiplicity = 6

                         Standard orientation:
 ---------------------------------------------------------------------
 Center     Atomic      Atomic             Coordinates (Angstroms)
 Number     Number       Type             X           Y           Z
 ---------------------------------------------------------------------
      1          6           0        3.242105   -0.194678    0.461683
      2          6           0        1.879103   -0.457515    0.703648
      3          6           0        1.452743   -0.636290    2.033104
      4          6           0        2.363669   -0.564662    3.088343
      5          6           0        3.714616   -0.315119    2.834388
      6          6           0        4.149117   -0.125552    1.516647
      7          6           0        0.851581   -0.506843   -0.390953
      8          6           0        0.983247    0.430316   -1.635138
      9          6           0        1.896519   -0.124431   -2.732199
     10          6           0        1.567812   -1.617445   -2.864772
     11          6           0        1.486808   -2.190832   -1.472928
     12          6           0        0.407920   -2.843980   -0.928461
     13          6           0       -0.918477   -2.955038   -1.603721
     14          8           0       -0.359335   -0.765296   -0.006296
     15         26           0       -2.105369   -0.053533    0.405256
     16         17           0       -2.955773    0.711022   -1.492955
     17          6           0        0.528071   -3.553018    0.378325
     18         17           0       -1.898671    1.459588    2.002498
     19         17           0       -3.207223   -1.826468    1.171700
     20          1           0        0.397943   -0.800343    2.238440
     21          1           0        2.011173   -0.694462    4.112144
     22          1           0        4.426927   -0.257432    3.658943
     23          1           0        5.199087    0.085377    1.310661
     24          1           0        3.603467   -0.027154   -0.549160
     25          1           0       -0.043941    0.498657   -2.015172
     26          6           0        1.397558    1.847596   -1.216365
     27          1           0        1.725565    0.418138   -3.671544
     28          1           0        2.950106    0.029725   -2.471429
     29          1           0        0.622990   -1.749253   -3.405757
     30          1           0        2.344282   -2.140048   -3.442293
     31          1           0        2.443816   -2.335086   -0.972524
     32          1           0        1.530310   -3.482772    0.813627
     33          1           0       -0.219713   -3.165851    1.086215
     34          1           0        0.281960   -4.616406    0.224336
     35          1           0       -0.927616   -3.914977   -2.150198
     36          1           0       -1.734975   -2.988026   -0.873250
     37          1           0       -1.115869   -2.158891   -2.326799
     38          8           0        0.351086    2.524283   -0.735224
     39          8           0        2.519585    2.294392   -1.335367
     40          6           0        0.594011    3.896893   -0.300592
     41          6           0       -0.750769    4.567116   -0.112218
     42          1           0        1.171763    3.850239    0.632851
     43          1           0        1.210260    4.390792   -1.062363
     44          1           0       -0.591159    5.599470    0.231737
     45          1           0       -1.308987    4.598323   -1.057903
     46          1           0       -1.353959    4.035287    0.634022
 ---------------------------------------------------------------------

 SCF Done:  E(UB3LYP) =  -3531.44255228     A.U. after   17 cycles

 The electronic state is 6-A.
 Alpha  occ. eigenvalues -- -256.20565-101.52121-101.52084-101.52044 -30.19968
 Alpha  occ. eigenvalues --  -26.05306 -26.05196 -26.05092 -19.20620 -19.17053
 Alpha  occ. eigenvalues --  -19.15573 -10.33445 -10.32783 -10.25945 -10.24895
 Alpha  occ. eigenvalues --  -10.22698 -10.22107 -10.21333 -10.21088 -10.21015
 Alpha  occ. eigenvalues --  -10.20936 -10.20656 -10.20568 -10.20280 -10.20179
 Alpha  occ. eigenvalues --  -10.19920 -10.19783 -10.18499  -9.43839  -9.43812
 Alpha  occ. eigenvalues --   -9.43765  -7.19705  -7.19679  -7.19635  -7.19386
 Alpha  occ. eigenvalues --   -7.19383  -7.19360  -7.19351  -7.19310  -7.19301
 Alpha  occ. eigenvalues --   -3.67659  -2.45220  -2.44984  -2.44801  -1.12489
 Alpha  occ. eigenvalues --   -1.07367  -1.03983  -0.88009  -0.86669  -0.83500
 Alpha  occ. eigenvalues --   -0.80113  -0.79389  -0.79326  -0.78764  -0.78277
 Alpha  occ. eigenvalues --   -0.76556  -0.75088  -0.71989  -0.70893  -0.66697
 Alpha  occ. eigenvalues --   -0.64590  -0.62398  -0.61735  -0.59606  -0.57432
 Alpha  occ. eigenvalues --   -0.55997  -0.54295  -0.53120  -0.51592  -0.50490
 Alpha  occ. eigenvalues --   -0.49780  -0.49379  -0.48948  -0.48144  -0.47839
 Alpha  occ. eigenvalues --   -0.47763  -0.47596  -0.46969  -0.46748  -0.46046
 Alpha  occ. eigenvalues --   -0.45090  -0.44838  -0.43638  -0.43185  -0.42796
 Alpha  occ. eigenvalues --   -0.42399  -0.41011  -0.40570  -0.40365  -0.40020
 Alpha  occ. eigenvalues --   -0.39160  -0.38723  -0.38104  -0.37699  -0.37513
 Alpha  occ. eigenvalues --   -0.37187  -0.36930  -0.36176  -0.35888  -0.35706
 Alpha  occ. eigenvalues --   -0.34614  -0.34236  -0.33807  -0.32143  -0.31855
 Alpha  occ. eigenvalues --   -0.31005  -0.30960  -0.30625  -0.30385  -0.29956
 Alpha  occ. eigenvalues --   -0.29590  -0.29139  -0.28299  -0.27278  -0.25827
 Alpha virt. eigenvalues --   -0.10916  -0.03176  -0.02764  -0.01624  -0.01197
 Alpha virt. eigenvalues --   -0.00144   0.00031   0.00034   0.01445   0.01565
 Alpha virt. eigenvalues --    0.01742   0.01977   0.02547   0.03175   0.03312

  Beta  occ. eigenvalues -- -256.20381-101.51943-101.51902-101.51870 -30.11016
  Beta  occ. eigenvalues --  -25.97763 -25.97749 -25.97699 -19.20620 -19.16518
  Beta  occ. eigenvalues --  -19.15571 -10.33445 -10.32781 -10.25915 -10.24895
  Beta  occ. eigenvalues --  -10.22685 -10.22086 -10.21284 -10.21090 -10.21018
  Beta  occ. eigenvalues --  -10.20941 -10.20653 -10.20567 -10.20277 -10.20181
  Beta  occ. eigenvalues --  -10.19921 -10.19784 -10.18498  -9.43664  -9.43633
  Beta  occ. eigenvalues --   -9.43594  -7.19409  -7.19380  -7.19337  -7.19149
  Beta  occ. eigenvalues --   -7.19142  -7.19117  -7.19104  -7.19079  -7.19075
  Beta  occ. eigenvalues --   -3.46787  -2.23060  -2.22998  -2.22957  -1.12486
  Beta  occ. eigenvalues --   -1.06338  -1.03981  -0.87945  -0.86580  -0.83448
  Beta  occ. eigenvalues --   -0.78966  -0.78770  -0.78233  -0.78121  -0.78065
  Beta  occ. eigenvalues --   -0.76553  -0.75051  -0.71970  -0.70780  -0.66561
  Beta  occ. eigenvalues --   -0.64519  -0.62364  -0.61677  -0.59180  -0.57177
  Beta  occ. eigenvalues --   -0.55575  -0.54220  -0.52257  -0.51517  -0.50255
  Beta  occ. eigenvalues --   -0.49598  -0.48790  -0.48305  -0.47750  -0.47196
  Beta  occ. eigenvalues --   -0.45901  -0.44963  -0.43656  -0.43182  -0.42840
  Beta  occ. eigenvalues --   -0.42350  -0.40985  -0.40554  -0.40371  -0.40030
  Beta  occ. eigenvalues --   -0.39176  -0.38612  -0.38091  -0.37846  -0.37605
  Beta  occ. eigenvalues --   -0.37323  -0.36959  -0.36219  -0.35935  -0.35725
  Beta  occ. eigenvalues --   -0.35715  -0.35662  -0.34447  -0.33174  -0.32929
  Beta  occ. eigenvalues --   -0.32416  -0.32220  -0.31985  -0.31181  -0.30177
  Beta  occ. eigenvalues --   -0.29491  -0.29123  -0.28442  -0.27279  -0.25771
  Beta virt. eigenvalues --   -0.14458  -0.14083  -0.13247  -0.12957  -0.12651
  Beta virt. eigenvalues --   -0.10261  -0.03125  -0.02735  -0.01556  -0.01124
  Beta virt. eigenvalues --   -0.00104   0.00061   0.00067   0.01477   0.01603

 Mulliken charges and spin densities:
               1          2
     1  C    0.230515  -0.000746
     2  C    2.858753   0.003018
     3  C   -0.498893  -0.012325
     4  C    0.060516   0.005606
     5  C    0.262979  -0.002128
     6  C   -0.080002   0.002760
     7  C   -2.396952  -0.008673
     8  C    0.391340   0.011626
     9  C    0.514672   0.003182
    10  C    0.669661  -0.002018
    11  C    0.469319   0.028734
    12  C   -0.270040   0.016812
    13  C    0.255713   0.000412
    14  O   -0.379962   0.161936
    15  Fe   0.688208   4.063385
    16  Cl  -0.526318   0.236709
    17  C    0.331660  -0.000530
    18  Cl  -0.487440   0.246294
    19  Cl  -0.512850   0.237909
    20  H   -0.250020   0.001227
    21  H   -0.160892  -0.000009
    22  H   -0.155326   0.000045
    23  H   -0.155225   0.000173
    24  H   -0.249107  -0.000121
    25  H   -0.193825  -0.000444
    26  C    0.807018   0.001045
    27  H   -0.140705   0.000337
    28  H   -0.011402  -0.000041
    29  H   -0.087051   0.000040
    30  H   -0.110751   0.001237
    31  H   -0.260995  -0.001078
    32  H    0.005435   0.000057
    33  H    0.092133   0.000353
    34  H   -0.001955   0.000901
    35  H    0.019254   0.000872
    36  H    0.053717   0.001199
    37  H    0.069803  -0.000085
    38  O   -0.658661   0.002570
    39  O   -0.628414   0.000840
    40  C    0.425835   0.000634
    41  C    0.037291  -0.001485
    42  H   -0.036234   0.000009
    43  H   -0.037867   0.000020
    44  H   -0.007203   0.000041
    45  H    0.025968   0.000081
    46  H    0.028305  -0.000379
 Sum of Mulliken charges =  -0.00000   5.00000

 Dipole moment (field-independent basis, Debye):
    X=             10.5710    Y=             -5.3624    Z=             -3.4291  Tot=             12.3393
 Quadrupole moment (field-independent basis, Debye-Ang):
   XX=           -196.2429   YY=           -157.7173   ZZ=           -168.7708
   XY=             -9.3283   XZ=              9.0469   YZ=              7.7562

 Normal termination of Gaussian 16 at Sun Jun 20 11:11:32 2021.
