 Gaussian 16, Revision A.03,

 -----------------------------------------------------------
 #p opt=modredundant freq=noraman ub3lyp jul-cc-pvdz pop=cm5
 -----------------------------------------------------------

 -----
 title
 -----
 Symbolic Z-matrix:
 Charge =  0 Multiplicity = 6

 SCF Done:  E(UB3LYP) =  -3531.40382303     A.U. after   24 cycles
 SCF Done:  E(UB3LYP) =  -3531.39807747     A.U. after   18 cycles
 SCF Done:  E(UB3LYP) =  -3531.40167235     A.U. after   18 cycles
 SCF Done:  E(UB3LYP) =  -3531.40421805     A.U. after   12 cycles
 SCF Done:  E(UB3LYP) =  -3531.40408817     A.U. after   15 cycles
 SCF Done:  E(UB3LYP) =  -3531.40443299     A.U. after   17 cycles
 SCF Done:  E(UB3LYP) =  -3531.40453374     A.U. after   14 cycles
 SCF Done:  E(UB3LYP) =  -3531.40456030     A.U. after   15 cycles
 SCF Done:  E(UB3LYP) =  -3531.40457738     A.U. after   15 cycles
 SCF Done:  E(UB3LYP) =  -3531.40459295     A.U. after   13 cycles
 SCF Done:  E(UB3LYP) =  -3531.40494711     A.U. after   14 cycles
 SCF Done:  E(UB3LYP) =  -3531.40495210     A.U. after   14 cycles
 SCF Done:  E(UB3LYP) =  -3531.40495383     A.U. after   12 cycles
 SCF Done:  E(UB3LYP) =  -3531.40495415     A.U. after   14 cycles
 SCF Done:  E(UB3LYP) =  -3531.40495465     A.U. after   11 cycles
 SCF Done:  E(UB3LYP) =  -3531.40495481     A.U. after    9 cycles
 SCF Done:  E(UB3LYP) =  -3531.40495489     A.U. after   10 cycles
 Optimization completed.
    -- Stationary point found.
 Normal termination of Gaussian 16 at Sun Jun 20 13:50:49 2021.

 ----------------------------------------------------------------------
 #P Geom=AllCheck Guess=TCheck SCRF=Check GenChk UB3LYP/Jul-CC-pVDZ Fre
 q
 ----------------------------------------------------------------------

 Structure from the checkpoint file:  "checkpoint.chk"
 -----
 title
 -----
 Charge =  0 Multiplicity = 6

 SCF Done:  E(UB3LYP) =  -3531.40495489     A.U. after    2 cycles

  Exact polarizability: 311.933  -7.617 310.634  24.659  14.369 282.209
 Approx polarizability: 463.807 -21.053 489.016  40.536  28.688 456.046

                      1                      2                      3
                      A                      A                      A
 Frequencies --     16.9369                27.4868                29.2202
 Red. masses --      8.6300                 5.7772                 5.8517
 Frc consts  --      0.0015                 0.0026                 0.0029
 IR Inten    --      0.4150                 0.8166                 0.9232

                      4                      5                      6
                      A                      A                      A
 Frequencies --     47.2457                50.7195                58.2432
 Red. masses --      4.3767                 5.1481                 4.8584
 Frc consts  --      0.0058                 0.0078                 0.0097
 IR Inten    --      1.4623                 1.0223                 0.9329

                      7                      8                      9
                      A                      A                      A
 Frequencies --     69.5492                71.2759                75.7027
 Red. masses --      4.3331                 4.2861                 4.3074
 Frc consts  --      0.0123                 0.0128                 0.0145
 IR Inten    --      0.1627                 0.7068                 1.3107

                     10                     11                     12
                      A                      A                      A
 Frequencies --     90.5998                97.2991               104.0245
 Red. masses --      9.4755                 5.2987                14.1877
 Frc consts  --      0.0458                 0.0296                 0.0905
 IR Inten    --      0.4277                 1.0149                 0.1820

                     13                     14                     15
                      A                      A                      A
 Frequencies --    110.3761               116.7795               126.2665
 Red. masses --      6.2400                 3.1722                 6.5351
 Frc consts  --      0.0448                 0.0255                 0.0614
 IR Inten    --      0.2289                 1.7634                14.4776

                     16                     17                     18
                      A                      A                      A
 Frequencies --    134.2745               145.8239               167.2819
 Red. masses --      6.3889                 4.0235                 2.8122
 Frc consts  --      0.0679                 0.0504                 0.0464
 IR Inten    --     12.4841                 5.3984                 1.3349

                     19                     20                     21
                      A                      A                      A
 Frequencies --    188.5683               198.3690               218.2409
 Red. masses --      3.8292                 3.8908                 1.6058
 Frc consts  --      0.0802                 0.0902                 0.0451
 IR Inten    --      0.8756                 1.1454                14.1027

                     22                     23                     24
                      A                      A                      A
 Frequencies --    225.1740               248.1364               252.1085
 Red. masses --      3.9470                 2.4343                 1.2797
 Frc consts  --      0.1179                 0.0883                 0.0479
 IR Inten    --      2.0037                 3.6335                 8.4114

                     25                     26                     27
                      A                      A                      A
 Frequencies --    261.5715               271.2933               290.8007
 Red. masses --      1.7047                 2.6816                 3.1697
 Frc consts  --      0.0687                 0.1163                 0.1579
 IR Inten    --      1.6630                 2.5928                 3.0214

                     28                     29                     30
                      A                      A                      A
 Frequencies --    304.6451               327.0459               344.3331
 Red. masses --      3.8733                15.9979                 7.3203
 Frc consts  --      0.2118                 1.0082                 0.5114
 IR Inten    --      1.8701                38.9826                52.2126

                     31                     32                     33
                      A                      A                      A
 Frequencies --    350.3880               357.1967               377.1413
 Red. masses --      4.7777                 4.5692                 4.6771
 Frc consts  --      0.3456                 0.3435                 0.3920
 IR Inten    --     11.8144                22.2524                15.0533

                     34                     35                     36
                      A                      A                      A
 Frequencies --    388.4612               411.5699               415.5643
 Red. masses --     27.1744                 3.2653                 3.3324
 Frc consts  --      2.4160                 0.3259                 0.3391
 IR Inten    --     82.5232                 1.9181                 3.7395

                     37                     38                     39
                      A                      A                      A
 Frequencies --    419.7123               472.4876               506.4313
 Red. masses --      3.3985                 3.1193                 2.5102
 Frc consts  --      0.3527                 0.4103                 0.3793
 IR Inten    --      1.6842                 0.0930                 3.6975

                     40                     41                     42
                      A                      A                      A
 Frequencies --    550.1473               573.2844               626.8802
 Red. masses --      3.7345                 2.4058                 6.2612
 Frc consts  --      0.6659                 0.4658                 1.4497
 IR Inten    --     20.9842                 4.2246                 0.6025

                     43                     44                     45
                      A                      A                      A
 Frequencies --    645.8369               667.1330               705.5130
 Red. masses --      5.2934                 2.9295                 1.9388
 Frc consts  --      1.3009                 0.7682                 0.5686
 IR Inten    --     12.9102                 3.2352                38.5611

                     46                     47                     48
                      A                      A                      A
 Frequencies --    716.6335               753.5614               772.9306
 Red. masses --      2.8863                 2.9335                 2.2418
 Frc consts  --      0.8734                 0.9815                 0.7891
 IR Inten    --     11.1484                38.2082                19.9115

                     49                     50                     51
                      A                      A                      A
 Frequencies --    775.5005               777.6596               807.6978
 Red. masses --      1.7439                 3.8978                 1.1478
 Frc consts  --      0.6179                 1.3888                 0.4412
 IR Inten    --      9.7061                46.2407                 0.2798

                     52                     53                     54
                      A                      A                      A
 Frequencies --    813.9651               843.4463               846.9803
 Red. masses --      2.6864                 1.4210                 1.8561
 Frc consts  --      1.0487                 0.5956                 0.7845
 IR Inten    --      7.3532                 6.4925                 5.3909

                     55                     56                     57
                      A                      A                      A
 Frequencies --    872.4644               880.8185               919.0234
 Red. masses --      2.7542                 3.1392                 1.9289
 Frc consts  --      1.2352                 1.4350                 0.9599
 IR Inten    --     21.7688                33.5129                14.8883

                     58                     59                     60
                      A                      A                      A
 Frequencies --    938.5549               940.0366               981.6765
 Red. masses --      1.8983                 3.3552                 1.4731
 Frc consts  --      0.9852                 1.7469                 0.8364
 IR Inten    --      7.4199                34.7221                 6.7715

                     61                     62                     63
                      A                      A                      A
 Frequencies --    982.5306              1000.4117              1001.4076
 Red. masses --      1.9412                 1.6391                 4.9251
 Frc consts  --      1.1041                 0.9665                 2.9100
 IR Inten    --     12.3863                 4.7020                 0.8175

                     64                     65                     66
                      A                      A                      A
 Frequencies --   1002.9854              1008.5042              1022.5840
 Red. masses --      1.3914                 2.4544                 2.2182
 Frc consts  --      0.8247                 1.4708                 1.3666
 IR Inten    --      4.7060                23.9457                 1.2520

                     67                     68                     69
                      A                      A                      A
 Frequencies --   1033.1606              1043.1498              1052.7656
 Red. masses --      2.5995                 2.8280                 2.3186
 Frc consts  --      1.6349                 1.8131                 1.5140
 IR Inten    --      5.7211                31.6389                 1.9669

                     70                     71                     72
                      A                      A                      A
 Frequencies --   1067.3425              1102.3018              1105.9870
 Red. masses --      2.2032                 2.0634                 2.3513
 Frc consts  --      1.4788                 1.4772                 1.6946
 IR Inten    --     31.5786                46.6899                57.2229

                     73                     74                     75
                      A                      A                      A
 Frequencies --   1124.9205              1133.7463              1160.8644
 Red. masses --      2.6512                 2.1917                 2.0415
 Frc consts  --      1.9767                 1.6598                 1.6209
 IR Inten    --    110.1974                 5.7937                26.5461

                     76                     77                     78
                      A                      A                      A
 Frequencies --   1169.0330              1174.5499              1184.3674
 Red. masses --      1.5530                 1.0871                 2.0950
 Frc consts  --      1.2505                 0.8836                 1.7315
 IR Inten    --      2.7797                 0.0984                58.7982

                     79                     80                     81
                      A                      A                      A
 Frequencies --   1201.7586              1207.6723              1224.2677
 Red. masses --      1.2863                 1.1407                 2.4483
 Frc consts  --      1.0945                 0.9802                 2.1621
 IR Inten    --     15.6573                 2.4970               204.3981

                     82                     83                     84
                      A                      A                      A
 Frequencies --   1255.4774              1269.7840              1281.7255
 Red. masses --      1.4712                 1.5895                 1.1057
 Frc consts  --      1.3662                 1.5100                 1.0702
 IR Inten    --     41.9487                51.2616                 1.7538

                     85                     86                     87
                      A                      A                      A
 Frequencies --   1290.6071              1300.0953              1311.0824
 Red. masses --      1.5702                 1.4103                 1.3320
 Frc consts  --      1.5409                 1.4044                 1.3491
 IR Inten    --    102.6049                66.7369                34.9325

                     88                     89                     90
                      A                      A                      A
 Frequencies --   1316.2130              1326.6082              1328.8078
 Red. masses --      1.4263                 1.2048                 1.6443
 Frc consts  --      1.4558                 1.2492                 1.7107
 IR Inten    --     40.4132                47.0557                16.8628

                     91                     92                     93
                      A                      A                      A
 Frequencies --   1344.5868              1357.6316              1369.3776
 Red. masses --      1.7148                 2.4149                 1.3481
 Frc consts  --      1.8266                 2.6225                 1.4895
 IR Inten    --     68.4626                 0.6412                10.1774

                     94                     95                     96
                      A                      A                      A
 Frequencies --   1391.6924              1394.6236              1417.6594
 Red. masses --      1.1759                 1.4870                 1.4671
 Frc consts  --      1.3419                 1.7040                 1.7372
 IR Inten    --     54.2351                27.3913                 8.7679

                     97                     98                     99
                      A                      A                      A
 Frequencies --   1418.9994              1433.7708              1466.9514
 Red. masses --      1.1509                 1.3887                 2.2692
 Frc consts  --      1.3654                 1.6820                 2.8771
 IR Inten    --      3.3462                39.2789                12.7263

                    100                    101                    102
                      A                      A                      A
 Frequencies --   1474.8307              1488.6563              1488.9101
 Red. masses --      1.0387                 1.0568                 1.0805
 Frc consts  --      1.3312                 1.3799                 1.4113
 IR Inten    --      4.0941                 1.4656                 0.7226

                    103                    104                    105
                      A                      A                      A
 Frequencies --   1496.5741              1499.8541              1505.9368
 Red. masses --      1.3736                 1.2672                 1.1325
 Frc consts  --      1.8126                 1.6796                 1.5132
 IR Inten    --     24.2981                17.5520                 9.6545

                    106                    107                    108
                      A                      A                      A
 Frequencies --   1507.6878              1518.7709              1622.9786
 Red. masses --      1.0887                 2.1202                 5.6189
 Frc consts  --      1.4581                 2.8815                 8.7203
 IR Inten    --      5.1280                 5.6139                 0.2657

                    109                    110                    111
                      A                      A                      A
 Frequencies --   1641.9157              1768.5641              2707.9534
 Red. masses --      5.7988                11.7367                 1.0674
 Frc consts  --      9.2107                21.6290                 4.6118
 IR Inten    --      0.5854               224.2504               274.9559

                    112                    113                    114
                      A                      A                      A
 Frequencies --   2788.2879              3038.1272              3057.0218
 Red. masses --      1.0688                 1.0353                 1.0581
 Frc consts  --      4.8958                 5.6304                 5.8262
 IR Inten    --    532.0716                19.4469                16.7758

                    115                    116                    117
                      A                      A                      A
 Frequencies --   3061.2529              3064.4199              3072.6029
 Red. masses --      1.0616                 1.0661                 1.0830
 Frc consts  --      5.8614                 5.8986                 6.0242
 IR Inten    --     21.2870                 0.8425                 9.8723

                    118                    119                    120
                      A                      A                      A
 Frequencies --   3073.9196              3074.5519              3098.5303
 Red. masses --      1.0618                 1.0634                 1.1034
 Frc consts  --      5.9115                 5.9228                 6.2415
 IR Inten    --      5.2204                20.4326                 4.8639

                    121                    122                    123
                      A                      A                      A
 Frequencies --   3100.5282              3114.7099              3119.9570
 Red. masses --      1.1073                 1.1018                 1.0897
 Frc consts  --      6.2714                 6.2980                 6.2498
 IR Inten    --      7.7045                19.5339                 1.6698

                    124                    125                    126
                      A                      A                      A
 Frequencies --   3126.3885              3130.5346              3164.6917
 Red. masses --      1.1015                 1.1051                 1.1051
 Frc consts  --      6.3432                 6.3810                 6.5213
 IR Inten    --     21.5424                20.1955                 5.4696

                    127                    128                    129
                      A                      A                      A
 Frequencies --   3166.6226              3176.7351              3183.1603
 Red. masses --      1.0846                 1.0881                 1.0990
 Frc consts  --      6.4081                 6.4696                 6.5607
 IR Inten    --      1.4552                 5.0491                 5.0006

                    130                    131                    132
                      A                      A                      A
 Frequencies --   3185.4363              3195.5548              3215.1319
 Red. masses --      1.0930                 1.0979                 1.0927
 Frc consts  --      6.5345                 6.6057                 6.6549
 IR Inten    --     20.4783                13.5881                 5.9903

 - Thermochemistry -
 -------------------
 Temperature   298.150 Kelvin.  Pressure   1.00000 Atm.
 Atom     1 has atomic number  6 and mass  12.00000

 Molecular mass:   434.99839 amu.
 Principal axes and moments of inertia in atomic units:
                           1         2         3
     Eigenvalues --  9003.67981********************
           X            0.99742   0.06919   0.01892
           Y           -0.06919   0.99760  -0.00062
           Z           -0.01892  -0.00069   0.99982
 This molecule is an asymmetric top.
 Rotational symmetry number  1.
 Warning -- assumption of classical behavior for rotation
           may cause significant error
 Rotational temperatures (Kelvin)      0.00962     0.00760     0.00678
 Rotational constants (GHZ):           0.20044     0.15828     0.14123
 Zero-point vibrational energy     939002.1 (Joules/Mol)
                                  224.42689 (Kcal/Mol)
 Warning -- explicit consideration of  41 degrees of freedom as
           vibrations may cause significant error
 Vibrational temperatures:     24.37    39.55    42.04    67.98    72.97
          (Kelvin)             83.80   100.07   102.55   108.92   130.35
                              139.99   149.67   158.81   168.02   181.67
                              193.19   209.81   240.68   271.31   285.41
                              314.00   323.98   357.01   362.73   376.34
                              390.33   418.40   438.32   470.55   495.42
                              504.13   513.93   542.62   558.91   592.16
                              597.90   603.87   679.80   728.64   791.54
                              824.83   901.94   929.22   959.86  1015.08
                             1031.08  1084.21  1112.07  1115.77  1118.88
                             1162.10  1171.11  1213.53  1218.62  1255.28
                             1267.30  1322.27  1350.37  1352.50  1412.41
                             1413.64  1439.37  1440.80  1443.07  1451.01
                             1471.27  1486.49  1500.86  1514.69  1535.67
                             1585.97  1591.27  1618.51  1631.21  1670.22
                             1681.98  1689.92  1704.04  1729.06  1737.57
                             1761.45  1806.35  1826.94  1844.12  1856.90
                             1870.55  1886.36  1893.74  1908.69  1911.86
                             1934.56  1953.33  1970.23  2002.33  2006.55
                             2039.70  2041.62  2062.88  2110.62  2121.95
                             2141.84  2142.21  2153.24  2157.96  2166.71
                             2169.23  2185.17  2335.10  2362.35  2544.57
                             3896.14  4011.72  4371.19  4398.37  4404.46
                             4409.02  4420.79  4422.68  4423.59  4458.09
                             4460.97  4481.37  4488.92  4498.18  4504.14
                             4553.29  4556.06  4570.61  4579.86  4583.13
                             4597.69  4625.86

 Zero-point correction=                           0.357647 (Hartree/Particle)
 Thermal correction to Energy=                    0.385379
 Thermal correction to Enthalpy=                  0.386323
 Thermal correction to Gibbs Free Energy=         0.294873
 Sum of electronic and zero-point Energies=          -3531.047308
 Sum of electronic and thermal Energies=             -3531.019576
 Sum of electronic and thermal Enthalpies=           -3531.018632
 Sum of electronic and thermal Free Energies=        -3531.110082

                     E (Thermal)             CV                S
                      KCal/Mol        Cal/Mol-Kelvin    Cal/Mol-Kelvin
 Total                  241.829             98.847            192.473
 Electronic               0.000              0.000              3.561
 Translational            0.889              2.981             44.100
 Rotational               0.889              2.981             35.527
 Vibrational            240.051             92.885            109.285
 Vibration     1          0.593              1.986              6.964
 Vibration     2          0.593              1.984              6.003
 Vibration     3          0.593              1.984              5.882
 Vibration     4          0.595              1.979              4.929
 Vibration     5          0.595              1.977              4.789
 Vibration     6          0.596              1.974              4.516
 Vibration     7          0.598              1.969              4.166
 Vibration     8          0.598              1.968              4.118
 Vibration     9          0.599              1.965              3.999
 Vibration    10          0.602              1.956              3.647
 Vibration    11          0.603              1.951              3.508
 Vibration    12          0.605              1.946              3.377
 Vibration    13          0.606              1.941              3.262
 Vibration    14          0.608              1.935              3.153
 Vibration    15          0.611              1.927              3.002
 Vibration    16          0.613              1.919              2.884
 Vibration    17          0.617              1.907              2.726
 Vibration    18          0.624              1.883              2.466
 Vibration    19          0.633              1.856              2.242
 Vibration    20          0.637              1.842              2.148
 Vibration    21          0.646              1.813              1.974
 Vibration    22          0.650              1.803              1.917
 Vibration    23          0.662              1.766              1.744
 Vibration    24          0.664              1.759              1.716
 Vibration    25          0.669              1.743              1.651
 Vibration    26          0.675              1.726              1.588
 Vibration    27          0.687              1.691              1.469
 Vibration    28          0.696              1.665              1.391
 Vibration    29          0.711              1.621              1.275
 Vibration    30          0.723              1.587              1.192
 Vibration    31          0.727              1.574              1.164
 Vibration    32          0.732              1.560              1.134
 Vibration    33          0.748              1.519              1.051
 Vibration    34          0.757              1.495              1.006
 Vibration    35          0.776              1.445              0.921
 Vibration    36          0.779              1.436              0.907
 Vibration    37          0.782              1.427              0.893
 Vibration    38          0.829              1.311              0.731
 Vibration    39          0.862              1.236              0.642
 Vibration    40          0.905              1.139              0.544
 Vibration    41          0.930              1.089              0.498

 Optimization completed.
    -- Stationary point found.
 Normal termination of Gaussian 16 at Sun Jun 20 18:36:00 2021.

 ----------------------------------------------------------------------
 #p ub3lyp jul-cc-pvdz pop=cm5 scrf=(pcm,solvent=dichloroethane) guess=
 read geom=allcheck
 ----------------------------------------------------------------------

 Structure from the checkpoint file:  "checkpoint.chk"
 -----
 title
 -----
 Charge =  0 Multiplicity = 6

 SCF Done:  E(UB3LYP) =  -3531.43331240     A.U. after   18 cycles
 Normal termination of Gaussian 16 at Sun Jun 20 19:07:00 2021.
 Gaussian 16:  ES64L-G16RevA.03 25-Dec-2016

 ----------------------------------------------------------------------
 #p ub3lyp jul-cc-pvdz pop=cm5 scrf=(pcm,solvent=water) guess=read geom
 =allcheck
 ----------------------------------------------------------------------

 Structure from the checkpoint file:  "checkpoint.chk"
 -----
 title
 -----
 Charge =  0 Multiplicity = 6

                         Standard orientation:
 ---------------------------------------------------------------------
 Center     Atomic      Atomic             Coordinates (Angstroms)
 Number     Number       Type             X           Y           Z
 ---------------------------------------------------------------------
      1          6           0        2.247403   -1.771338    1.512682
      2          6           0        1.408442   -0.768516    0.999833
      3          6           0        1.348854    0.457257    1.680077
      4          6           0        2.096678    0.668814    2.840631
      5          6           0        2.922545   -0.338457    3.345079
      6          6           0        2.996523   -1.560785    2.673311
      7          6           0        0.614508   -0.934863   -0.308015
      8          6           0        1.527443   -0.655206   -1.574101
      9          6           0        2.270049   -1.961566   -1.838102
     10          6           0        1.244881   -3.074918   -1.533464
     11          6           0        0.217847   -2.470947   -0.515640
     12          6           0       -1.183677   -2.563188   -0.977778
     13          6           0       -1.621350   -2.106818   -2.293390
     14          8           0       -0.512466   -0.131650   -0.347624
     15         26           0       -1.950813    0.782324    0.365024
     16         17           0       -3.539658    0.581176   -1.235842
     17          6           0       -2.192709   -3.047754   -0.045303
     18         17           0       -1.515971    2.894475    0.862071
     19         17           0       -2.635544   -0.401013    2.162994
     20          1           0        0.715528    1.258261    1.305464
     21          1           0        2.023063    1.628254    3.354450
     22          1           0        3.501536   -0.174302    4.254974
     23          1           0        3.637134   -2.358398    3.052343
     24          1           0        2.335816   -2.739054    1.019081
     25          1           0        0.826121   -0.421269   -2.386000
     26          6           0        2.450416    0.544728   -1.420009
     27          1           0        2.646438   -2.020938   -2.867211
     28          1           0        3.140566   -2.026753   -1.175094
     29          1           0        0.739916   -3.400047   -2.452184
     30          1           0        1.712211   -3.970406   -1.104903
     31          1           0        0.283978   -2.967373    0.455687
     32          1           0       -1.824458   -3.871460    0.581045
     33          1           0       -2.336207   -2.197680    0.682026
     34          1           0       -3.164402   -3.265490   -0.499233
     35          1           0       -2.312920   -2.830519   -2.750113
     36          1           0       -2.258951   -1.207069   -2.087751
     37          1           0       -0.821298   -1.826753   -2.980924
     38          8           0        1.780601    1.693876   -1.599389
     39          8           0        3.638043    0.472335   -1.181111
     40          6           0        2.540768    2.923578   -1.428493
     41          6           0        1.600844    4.081371   -1.695300
     42          1           0        2.939730    2.936945   -0.405188
     43          1           0        3.391198    2.901450   -2.123555
     44          1           0        2.143207    5.027907   -1.556685
     45          1           0        1.219682    4.049410   -2.725529
     46          1           0        0.746985    4.061175   -1.005223
 ---------------------------------------------------------------------

 SCF Done:  E(UB3LYP) =  -3531.43871378     A.U. after   14 cycles

 The electronic state is 6-A.
 Alpha  occ. eigenvalues -- -256.19727-101.51969-101.51904-101.51836 -30.19122
 Alpha  occ. eigenvalues --  -26.04451 -26.04371 -26.04239 -19.20184 -19.15922
 Alpha  occ. eigenvalues --  -19.15120 -10.32734 -10.32462 -10.29303 -10.24725
 Alpha  occ. eigenvalues --  -10.23171 -10.22204 -10.22104 -10.21707 -10.21349
 Alpha  occ. eigenvalues --  -10.21318 -10.20391 -10.20161 -10.20073 -10.20024
 Alpha  occ. eigenvalues --  -10.19896 -10.19863 -10.18536  -9.43671  -9.43636
 Alpha  occ. eigenvalues --   -9.43538  -7.19534  -7.19489  -7.19400  -7.19234
 Alpha  occ. eigenvalues --   -7.19194  -7.19187  -7.19165  -7.19088  -7.19065
 Alpha  occ. eigenvalues --   -3.66869  -2.44400  -2.44247  -2.44026  -1.11969
 Alpha  occ. eigenvalues --   -1.03497  -1.03409  -0.89513  -0.87179  -0.84570
 Alpha  occ. eigenvalues --   -0.79858  -0.79216  -0.79113  -0.78858  -0.77348
 Alpha  occ. eigenvalues --   -0.76023  -0.75549  -0.74818  -0.71990  -0.66606
 Alpha  occ. eigenvalues --   -0.64081  -0.62010  -0.61141  -0.59720  -0.57154
 Alpha  occ. eigenvalues --   -0.56816  -0.54909  -0.53465  -0.51388  -0.50671
 Alpha  occ. eigenvalues --   -0.50104  -0.49421  -0.48715  -0.48107  -0.47763
 Alpha  occ. eigenvalues --   -0.47273  -0.47147  -0.46894  -0.46603  -0.46149
 Alpha  occ. eigenvalues --   -0.44912  -0.44395  -0.43957  -0.43323  -0.42881
 Alpha  occ. eigenvalues --   -0.42577  -0.42018  -0.41241  -0.41004  -0.40868
 Alpha  occ. eigenvalues --   -0.39891  -0.38945  -0.37796  -0.37531  -0.37154
 Alpha  occ. eigenvalues --   -0.36996  -0.36279  -0.35957  -0.35780  -0.35544
 Alpha  occ. eigenvalues --   -0.34861  -0.34186  -0.33819  -0.31790  -0.31274
 Alpha  occ. eigenvalues --   -0.30869  -0.30639  -0.30523  -0.30378  -0.29828
 Alpha  occ. eigenvalues --   -0.29457  -0.28955  -0.28195  -0.26677  -0.26225
 Alpha virt. eigenvalues --   -0.14142  -0.03003  -0.02752  -0.01514  -0.01254
 Alpha virt. eigenvalues --   -0.00203  -0.00067   0.00088   0.01410   0.01682
 Alpha virt. eigenvalues --    0.01758   0.01838   0.02484   0.03276   0.03846

  Beta  occ. eigenvalues -- -256.19543-101.51813-101.51742-101.51686 -30.10197
  Beta  occ. eigenvalues --  -25.96983 -25.96941 -25.96821 -19.20184 -19.15116
  Beta  occ. eigenvalues --  -19.15038 -10.32735 -10.32457 -10.29282 -10.24725
  Beta  occ. eigenvalues --  -10.23144 -10.22205 -10.22102 -10.21676 -10.21349
  Beta  occ. eigenvalues --  -10.21297 -10.20388 -10.20159 -10.20073 -10.20024
  Beta  occ. eigenvalues --  -10.19900 -10.19859 -10.18535  -9.43516  -9.43477
  Beta  occ. eigenvalues --   -9.43391  -7.19248  -7.19225  -7.19126  -7.19040
  Beta  occ. eigenvalues --   -7.18992  -7.18963  -7.18957  -7.18908  -7.18874
  Beta  occ. eigenvalues --   -3.46066  -2.22387  -2.22353  -2.22176  -1.11966
  Beta  occ. eigenvalues --   -1.03488  -1.01689  -0.89323  -0.87126  -0.84478
  Beta  occ. eigenvalues --   -0.78939  -0.78796  -0.78111  -0.78044  -0.77235
  Beta  occ. eigenvalues --   -0.76003  -0.75521  -0.74797  -0.71796  -0.66478
  Beta  occ. eigenvalues --   -0.64007  -0.61963  -0.61080  -0.59497  -0.57097
  Beta  occ. eigenvalues --   -0.56222  -0.54782  -0.52277  -0.51300  -0.50621
  Beta  occ. eigenvalues --   -0.49913  -0.49023  -0.48202  -0.47796  -0.47354
  Beta  occ. eigenvalues --   -0.46201  -0.44623  -0.44176  -0.43363  -0.42945
  Beta  occ. eigenvalues --   -0.42840  -0.41990  -0.41187  -0.41120  -0.40821
  Beta  occ. eigenvalues --   -0.39885  -0.38841  -0.37747  -0.37556  -0.37473
  Beta  occ. eigenvalues --   -0.36964  -0.36415  -0.36121  -0.35836  -0.35560
  Beta  occ. eigenvalues --   -0.35416  -0.35277  -0.34793  -0.32824  -0.32709
  Beta  occ. eigenvalues --   -0.32435  -0.31959  -0.31582  -0.31481  -0.29584
  Beta  occ. eigenvalues --   -0.29550  -0.29047  -0.28307  -0.26678  -0.26191
  Beta virt. eigenvalues --   -0.14255  -0.13586  -0.13389  -0.12492  -0.12164
  Beta virt. eigenvalues --   -0.11233  -0.02946  -0.02725  -0.01415  -0.01209
  Beta virt. eigenvalues --   -0.00152  -0.00039   0.00116   0.01436   0.01696

 Mulliken charges and spin densities:
               1          2
     1  C   -0.331316   0.002525
     2  C    3.176622   0.008161
     3  C   -0.554589  -0.008000
     4  C    0.071247   0.004111
     5  C    0.178357   0.000291
     6  C   -0.101220   0.001510
     7  C   -2.600295  -0.022004
     8  C    0.560605   0.013099
     9  C    0.599857   0.003343
    10  C    0.497688  -0.000829
    11  C    1.146077   0.022542
    12  C   -0.531639   0.007615
    13  C    0.139850  -0.005482
    14  O   -0.374369   0.307303
    15  Fe   0.683535   4.036721
    16  Cl  -0.573510   0.199608
    17  C    0.321179  -0.003018
    18  Cl  -0.496819   0.225363
    19  Cl  -0.552555   0.200016
    20  H   -0.291079   0.000333
    21  H   -0.166949  -0.000058
    22  H   -0.162546   0.000012
    23  H   -0.159450   0.000194
    24  H   -0.231171  -0.000024
    25  H   -0.187502  -0.000343
    26  C    0.888911   0.003193
    27  H   -0.149534   0.000767
    28  H   -0.058065   0.000047
    29  H   -0.094158   0.000120
    30  H   -0.092277   0.000231
    31  H   -0.200195   0.000235
    32  H    0.049349   0.000167
    33  H    0.200635   0.002284
    34  H    0.006953  -0.000013
    35  H    0.042712   0.000053
    36  H    0.188727   0.000198
    37  H    0.069902   0.000120
    38  O   -0.707822  -0.000809
    39  O   -0.646620   0.001386
    40  C    0.431126  -0.001106
    41  C    0.053706   0.000486
    42  H   -0.037780   0.000007
    43  H   -0.049160   0.000011
    44  H   -0.005897   0.000027
    45  H    0.020545  -0.000016
    46  H    0.028933  -0.000377
 Sum of Mulliken charges =  -0.00000   5.00000

 Dipole moment (field-independent basis, Debye):
    X=              4.5643    Y=            -12.6230    Z=             -5.7593  Tot=             14.6063
 Quadrupole moment (field-independent basis, Debye-Ang):
   XX=           -204.5088   YY=           -144.5608   ZZ=           -169.5874
   XY=             19.3161   XZ=             12.1114   YZ=              8.1357

 Normal termination of Gaussian 16 at Sun Jun 20 19:29:44 2021.
