 Gaussian 16, Revision A.03,

 -----------------------------------------------------------
 #p opt=modredundant freq=noraman ub3lyp jul-cc-pvdz pop=cm5
 -----------------------------------------------------------

 -----
 title
 -----
 Symbolic Z-matrix:
 Charge =  0 Multiplicity = 6

 SCF Done:  E(UB3LYP) =  -3531.40310572     A.U. after   25 cycles
 SCF Done:  E(UB3LYP) =  -3531.40315517     A.U. after   15 cycles
 SCF Done:  E(UB3LYP) =  -3531.40304243     A.U. after   15 cycles
 SCF Done:  E(UB3LYP) =  -3531.40369984     A.U. after   14 cycles
 SCF Done:  E(UB3LYP) =  -3531.40373878     A.U. after   14 cycles
 SCF Done:  E(UB3LYP) =  -3531.40374385     A.U. after   14 cycles
 SCF Done:  E(UB3LYP) =  -3531.40375624     A.U. after   12 cycles
 SCF Done:  E(UB3LYP) =  -3531.40375885     A.U. after   12 cycles
 SCF Done:  E(UB3LYP) =  -3531.40375975     A.U. after   11 cycles
 SCF Done:  E(UB3LYP) =  -3531.40376004     A.U. after   11 cycles
 SCF Done:  E(UB3LYP) =  -3531.40376547     A.U. after   12 cycles
 SCF Done:  E(UB3LYP) =  -3531.40376693     A.U. after   11 cycles
 SCF Done:  E(UB3LYP) =  -3531.40376872     A.U. after   14 cycles
 SCF Done:  E(UB3LYP) =  -3531.40376892     A.U. after   11 cycles
 SCF Done:  E(UB3LYP) =  -3531.40376914     A.U. after   10 cycles
 SCF Done:  E(UB3LYP) =  -3531.40376922     A.U. after    9 cycles
 SCF Done:  E(UB3LYP) =  -3531.40376929     A.U. after    8 cycles
 Optimization completed.
    -- Stationary point found.
 Normal termination of Gaussian 16 at Sun Jun 20 04:09:40 2021.

 ----------------------------------------------------------------------
 #P Geom=AllCheck Guess=TCheck SCRF=Check GenChk UB3LYP/Jul-CC-pVDZ Fre
 q
 ----------------------------------------------------------------------

 Structure from the checkpoint file:  "checkpoint.chk"
 -----
 title
 -----
 Charge =  0 Multiplicity = 6

 SCF Done:  E(UB3LYP) =  -3531.40376929     A.U. after    1 cycles

  Exact polarizability: 306.148  -5.508 305.340  24.965  14.526 287.275
 Approx polarizability: 455.151 -12.414 477.459  45.535  26.944 455.926

 ******    1 imaginary frequencies (negative Signs) ******

                      1                      2                      3
                      A                      A                      A
 Frequencies --   -415.5190                18.8235                28.5994
 Red. masses --      8.7183                 8.5714                 4.7568
 Frc consts  --      0.8869                 0.0018                 0.0023
 IR Inten    --     59.6890                 0.2137                 2.0574

                      4                      5                      6
                      A                      A                      A
 Frequencies --     31.5481                50.7036                52.7211
 Red. masses --      5.9524                 5.5091                 4.6610
 Frc consts  --      0.0035                 0.0083                 0.0076
 IR Inten    --      0.2409                 0.9774                 2.2357

                      7                      8                      9
                      A                      A                      A
 Frequencies --     61.4634                67.8621                76.7697
 Red. masses --      3.3757                 3.4179                 5.9957
 Frc consts  --      0.0075                 0.0093                 0.0208
 IR Inten    --      0.4298                 0.2099                 0.9799

                     10                     11                     12
                      A                      A                      A
 Frequencies --     81.1620                95.9649               101.7469
 Red. masses --     11.0412                 9.6300                 7.6543
 Frc consts  --      0.0429                 0.0523                 0.0467
 IR Inten    --      0.1397                 0.3614                 1.4849

                     13                     14                     15
                      A                      A                      A
 Frequencies --    113.6679               114.9486               122.1806
 Red. masses --     11.7068                 4.7060                 3.8187
 Frc consts  --      0.0891                 0.0366                 0.0336
 IR Inten    --      1.8596                 4.8470                 9.2102

                     16                     17                     18
                      A                      A                      A
 Frequencies --    127.3476               140.0358               152.8730
 Red. masses --      5.5927                 2.1916                 2.5313
 Frc consts  --      0.0534                 0.0253                 0.0349
 IR Inten    --      1.1467                 3.4681                 1.7202

                     19                     20                     21
                      A                      A                      A
 Frequencies --    165.3651               181.4522               184.8777
 Red. masses --      2.3352                 1.6727                 1.6937
 Frc consts  --      0.0376                 0.0324                 0.0341
 IR Inten    --      2.0641                 0.7420                 2.4293

                     22                     23                     24
                      A                      A                      A
 Frequencies --    194.0134               216.9712               225.5837
 Red. masses --      2.5888                 3.4591                 4.5125
 Frc consts  --      0.0574                 0.0959                 0.1353
 IR Inten    --      4.0198                19.3870                 5.0628

                     25                     26                     27
                      A                      A                      A
 Frequencies --    249.6788               260.0538               282.2153
 Red. masses --      2.4816                 2.0443                 3.7552
 Frc consts  --      0.0911                 0.0815                 0.1762
 IR Inten    --      0.9353                 1.4373                11.1566

                     28                     29                     30
                      A                      A                      A
 Frequencies --    309.2093               331.3213               336.9170
 Red. masses --      3.3424                19.6435                 3.3795
 Frc consts  --      0.1883                 1.2705                 0.2260
 IR Inten    --      1.2167                39.0878                 0.4118

                     31                     32                     33
                      A                      A                      A
 Frequencies --    344.8123               366.7290               373.7823
 Red. masses --      4.8861                20.8279                 4.6475
 Frc consts  --      0.3423                 1.6504                 0.3826
 IR Inten    --     17.5750                58.9587                30.2310

                     34                     35                     36
                      A                      A                      A
 Frequencies --    385.5588               397.0178               404.5493
 Red. masses --     31.9895                 3.3130                 3.7858
 Frc consts  --      2.8018                 0.3077                 0.3650
 IR Inten    --     91.1749                 6.7078                 1.6808

                     37                     38                     39
                      A                      A                      A
 Frequencies --    412.3069               462.4356               505.5415
 Red. masses --      3.0133                 3.3969                 3.1044
 Frc consts  --      0.3018                 0.4280                 0.4675
 IR Inten    --      2.1328                 2.4677                 6.0239

                     40                     41                     42
                      A                      A                      A
 Frequencies --    530.3253               549.5376               624.7724
 Red. masses --      2.6124                 3.1303                 5.4707
 Frc consts  --      0.4329                 0.5570                 1.2582
 IR Inten    --     10.0051                25.7519                 3.8697

                     43                     44                     45
                      A                      A                      A
 Frequencies --    636.1154               649.3153               672.8729
 Red. masses --      4.7860                 2.4329                 5.8950
 Frc consts  --      1.1410                 0.6044                 1.5725
 IR Inten    --     20.1893                 8.5193                59.3144

                     46                     47                     48
                      A                      A                      A
 Frequencies --    706.0942               723.2777               755.5897
 Red. masses --      1.6792                 3.9387                 3.1512
 Frc consts  --      0.4932                 1.2140                 1.0600
 IR Inten    --     30.3324                54.1603                10.8495

                     49                     50                     51
                      A                      A                      A
 Frequencies --    774.8266               795.0294               806.9349
 Red. masses --      3.7444                 3.0866                 1.1359
 Frc consts  --      1.3245                 1.1495                 0.4358
 IR Inten    --     13.3085                 4.4028                 2.6370

                     52                     53                     54
                      A                      A                      A
 Frequencies --    831.3556               843.4045               843.9715
 Red. masses --      1.2985                 1.2898                 3.8263
 Frc consts  --      0.5287                 0.5406                 1.6058
 IR Inten    --     12.6134                 2.3017                32.9884

                     55                     56                     57
                      A                      A                      A
 Frequencies --    858.6593               872.1428               924.5193
 Red. masses --      2.1442                 2.5909                 2.3013
 Frc consts  --      0.9314                 1.1611                 1.1589
 IR Inten    --     20.5932                12.8185                 7.7361

                     58                     59                     60
                      A                      A                      A
 Frequencies --    929.3869               945.3163               981.3082
 Red. masses --      1.5743                 2.1431                 1.3591
 Frc consts  --      0.8012                 1.1283                 0.7711
 IR Inten    --      3.4133                 9.4773                 2.0055

                     61                     62                     63
                      A                      A                      A
 Frequencies --    985.2018               986.6005               999.6506
 Red. masses --      2.0633                 1.5223                 3.0422
 Frc consts  --      1.1799                 0.8730                 1.7912
 IR Inten    --     40.0596                 5.8043                 4.5873

                     64                     65                     66
                      A                      A                      A
 Frequencies --   1001.6531              1004.4716              1015.0251
 Red. masses --      1.8209                 2.2492                 2.1542
 Frc consts  --      1.0764                 1.3370                 1.3077
 IR Inten    --      1.8890                 2.5320                47.6796

                     67                     68                     69
                      A                      A                      A
 Frequencies --   1038.8351              1043.9393              1054.5798
 Red. masses --      2.3758                 3.1134                 2.4100
 Frc consts  --      1.5106                 1.9991                 1.5791
 IR Inten    --     44.0900                12.3138                39.3911

                     70                     71                     72
                      A                      A                      A
 Frequencies --   1062.1416              1098.2485              1110.2099
 Red. masses --      2.2251                 2.3031                 2.3635
 Frc consts  --      1.4790                 1.6366                 1.7164
 IR Inten    --     25.5018               105.9304                10.7725

                     73                     74                     75
                      A                      A                      A
 Frequencies --   1116.7650              1133.3855              1133.6289
 Red. masses --      2.0258                 1.5129                 1.9341
 Frc consts  --      1.4885                 1.1450                 1.4645
 IR Inten    --     33.5737                50.7829                 2.2917

                     76                     77                     78
                      A                      A                      A
 Frequencies --   1163.7366              1169.9281              1175.0728
 Red. masses --      1.7311                 1.5891                 1.0839
 Frc consts  --      1.3813                 1.2815                 0.8818
 IR Inten    --     34.4216                 2.4871                 0.0518

                     79                     80                     81
                      A                      A                      A
 Frequencies --   1193.4756              1208.2443              1227.5665
 Red. masses --      2.0975                 1.1332                 2.0277
 Frc consts  --      1.7603                 0.9747                 1.8003
 IR Inten    --    100.8126                 0.3513               163.1579

                     82                     83                     84
                      A                      A                      A
 Frequencies --   1243.7698              1266.0644              1283.2559
 Red. masses --      1.8603                 1.7811                 1.1057
 Frc consts  --      1.6956                 1.6821                 1.0728
 IR Inten    --     82.7282                44.9323                 1.9166

                     85                     86                     87
                      A                      A                      A
 Frequencies --   1297.7149              1314.4854              1316.8020
 Red. masses --      1.4551                 1.4450                 1.7092
 Frc consts  --      1.4438                 1.4711                 1.7461
 IR Inten    --     57.2110                38.3216                35.6188

                     88                     89                     90
                      A                      A                      A
 Frequencies --   1322.7439              1338.2553              1349.4833
 Red. masses --      1.6949                 2.0387                 1.1747
 Frc consts  --      1.7472                 2.1513                 1.2604
 IR Inten    --     48.3864                60.6634                52.0841

                     91                     92                     93
                      A                      A                      A
 Frequencies --   1358.6071              1363.2540              1368.0701
 Red. masses --      2.2956                 1.2190                 1.3497
 Frc consts  --      2.4965                 1.3347                 1.4884
 IR Inten    --      1.0872                67.7680                 8.2777

                     94                     95                     96
                      A                      A                      A
 Frequencies --   1391.4699              1416.4248              1419.4376
 Red. masses --      1.5620                 1.4656                 1.1656
 Frc consts  --      1.7818                 1.7324                 1.3837
 IR Inten    --     70.9269                11.5114                 3.6154

                     97                     98                     99
                      A                      A                      A
 Frequencies --   1432.0177              1447.7730              1466.8237
 Red. masses --      1.3799                 1.1805                 2.2374
 Frc consts  --      1.6672                 1.4578                 2.8363
 IR Inten    --     24.6689                13.8838                13.1355

                    100                    101                    102
                      A                      A                      A
 Frequencies --   1474.0381              1483.5891              1486.1274
 Red. masses --      1.0388                 1.2910                 1.1350
 Frc consts  --      1.3298                 1.6741                 1.4770
 IR Inten    --      3.3763                14.1181                 3.8117

                    103                    104                    105
                      A                      A                      A
 Frequencies --   1488.8725              1497.8863              1506.7388
 Red. masses --      1.0543                 1.1467                 1.0832
 Frc consts  --      1.3769                 1.5159                 1.4489
 IR Inten    --      0.4537                15.8265                 6.6432

                    106                    107                    108
                      A                      A                      A
 Frequencies --   1508.9234              1519.9227              1622.7719
 Red. masses --      1.1287                 2.1590                 5.5673
 Frc consts  --      1.5142                 2.9387                 8.6379
 IR Inten    --      4.9332                 2.8262                 0.2969

                    109                    110                    111
                      A                      A                      A
 Frequencies --   1642.8650              1770.3714              2970.4463
 Red. masses --      5.7816                11.5808                 1.0490
 Frc consts  --      9.1939                21.3854                 5.4533
 IR Inten    --      1.2699               222.6636                60.4709

                    112                    113                    114
                      A                      A                      A
 Frequencies --   2981.7510              3032.8221              3038.5668
 Red. masses --      1.0555                 1.0878                 1.0356
 Frc consts  --      5.5289                 5.8951                 5.6334
 IR Inten    --     43.6261                18.3073                22.8869

                    115                    116                    117
                      A                      A                      A
 Frequencies --   3059.2883              3059.8776              3072.1083
 Red. masses --      1.0582                 1.0608                 1.0620
 Frc consts  --      5.8352                 5.8518                 5.9052
 IR Inten    --     14.3085                23.6054                25.4695

                    118                    119                    120
                      A                      A                      A
 Frequencies --   3078.2650              3094.6530              3095.1905
 Red. masses --      1.0850                 1.0745                 1.1036
 Frc consts  --      6.0573                 6.0629                 6.2293
 IR Inten    --      6.5015                 5.0967                 5.0229

                    121                    122                    123
                      A                      A                      A
 Frequencies --   3103.2151              3114.8136              3120.9111
 Red. masses --      1.1062                 1.1029                 1.0991
 Frc consts  --      6.2762                 6.3045                 6.3075
 IR Inten    --      9.3383                19.4865                 6.4720

                    124                    125                    126
                      A                      A                      A
 Frequencies --   3125.5911              3134.5051              3163.0743
 Red. masses --      1.0918                 1.1045                 1.1072
 Frc consts  --      6.2845                 6.3939                 6.5269
 IR Inten    --     17.4529                16.3249                 1.3488

                    127                    128                    129
                      A                      A                      A
 Frequencies --   3167.8536              3175.2156              3178.2055
 Red. masses --      1.0846                 1.0967                 1.0882
 Frc consts  --      6.4127                 6.5144                 6.4760
 IR Inten    --      1.3415                 6.8879                 5.8696

                    130                    131                    132
                      A                      A                      A
 Frequencies --   3186.9140              3196.1295              3210.5853
 Red. masses --      1.0929                 1.0975                 1.0933
 Frc consts  --      6.5399                 6.6056                 6.6395
 IR Inten    --     19.2880                11.2428                 5.6267

 - Thermochemistry -
 -------------------
 Temperature   298.150 Kelvin.  Pressure   1.00000 Atm.
 Atom     1 has atomic number  6 and mass  12.00000

 Molecular mass:   434.99839 amu.
 Principal axes and moments of inertia in atomic units:
                           1         2         3
     Eigenvalues --  9126.80583********************
           X            0.99838   0.05325   0.02028
           Y           -0.05352   0.99848   0.01296
           Z           -0.01956  -0.01402   0.99971
 This molecule is an asymmetric top.
 Rotational symmetry number  1.
 Warning -- assumption of classical behavior for rotation
           may cause significant error
 Rotational temperatures (Kelvin)      0.00949     0.00759     0.00687
 Rotational constants (GHZ):           0.19774     0.15805     0.14314
    1 imaginary frequencies ignored.
 Zero-point vibrational energy     938856.0 (Joules/Mol)
                                  224.39197 (Kcal/Mol)
 Warning -- explicit consideration of  40 degrees of freedom as
           vibrations may cause significant error
 Vibrational temperatures:     27.08    41.15    45.39    72.95    75.85
          (Kelvin)             88.43    97.64   110.45   116.77   138.07
                              146.39   163.54   165.39   175.79   183.22
                              201.48   219.95   237.92   261.07   266.00
                              279.14   312.17   324.56   359.23   374.16
                              406.04   444.88   476.70   484.75   496.11
                              527.64   537.79   554.73   571.22   582.06
                              593.22   665.34   727.36   763.02   790.66
                              898.91   915.23   934.22   968.11  1015.91
                             1040.64  1087.13  1114.80  1143.87  1161.00
                             1196.14  1213.47  1214.29  1235.42  1254.82
                             1330.18  1337.18  1360.10  1411.88  1417.49
                             1419.50  1438.27  1441.16  1445.21  1460.39
                             1494.65  1502.00  1517.31  1528.18  1580.13
                             1597.34  1606.78  1630.69  1631.04  1674.36
                             1683.27  1690.67  1717.15  1738.39  1766.19
                             1789.51  1821.58  1846.32  1867.12  1891.25
                             1894.58  1903.13  1925.45  1941.61  1954.73
                             1961.42  1968.35  2002.01  2037.92  2042.25
                             2060.35  2083.02  2110.43  2120.81  2134.55
                             2138.21  2142.16  2155.12  2167.86  2171.00
                             2186.83  2334.81  2363.72  2547.17  4273.81
                             4290.07  4363.55  4371.82  4401.63  4402.48
                             4420.08  4428.94  4452.52  4453.29  4464.83
                             4481.52  4490.29  4497.03  4509.85  4550.96
                             4557.83  4568.43  4572.73  4585.26  4598.52
                             4619.32

 Zero-point correction=                           0.357591 (Hartree/Particle)
 Thermal correction to Energy=                    0.384989
 Thermal correction to Enthalpy=                  0.385933
 Thermal correction to Gibbs Free Energy=         0.295517
 Sum of electronic and zero-point Energies=          -3531.046178
 Sum of electronic and thermal Energies=             -3531.018780
 Sum of electronic and thermal Enthalpies=           -3531.017836
 Sum of electronic and thermal Free Energies=        -3531.108252

                     E (Thermal)             CV                S
                      KCal/Mol        Cal/Mol-Kelvin    Cal/Mol-Kelvin
 Total                  241.584             97.636            190.297
 Electronic               0.000              0.000              3.561
 Translational            0.889              2.981             44.100
 Rotational               0.889              2.981             35.528
 Vibrational            239.807             91.674            107.108
 Vibration     1          0.593              1.986              6.755
 Vibration     2          0.593              1.984              5.924
 Vibration     3          0.594              1.983              5.730
 Vibration     4          0.595              1.977              4.790
 Vibration     5          0.596              1.977              4.713
 Vibration     6          0.597              1.973              4.410
 Vibration     7          0.598              1.970              4.214
 Vibration     8          0.599              1.965              3.972
 Vibration     9          0.600              1.962              3.863
 Vibration    10          0.603              1.952              3.535
 Vibration    11          0.604              1.948              3.421
 Vibration    12          0.607              1.938              3.205
 Vibration    13          0.608              1.937              3.184
 Vibration    14          0.610              1.931              3.066
 Vibration    15          0.611              1.926              2.986
 Vibration    16          0.615              1.913              2.803
 Vibration    17          0.619              1.899              2.636
 Vibration    18          0.624              1.885              2.488
 Vibration    19          0.630              1.865              2.313
 Vibration    20          0.631              1.860              2.279
 Vibration    21          0.635              1.848              2.189
 Vibration    22          0.646              1.815              1.984
 Vibration    23          0.650              1.802              1.914
 Vibration    24          0.662              1.763              1.733
 Vibration    25          0.668              1.746              1.661
 Vibration    26          0.681              1.707              1.520
 Vibration    27          0.699              1.656              1.367
 Vibration    28          0.714              1.613              1.254
 Vibration    29          0.718              1.602              1.227
 Vibration    30          0.723              1.586              1.190
 Vibration    31          0.740              1.541              1.093
 Vibration    32          0.745              1.526              1.064
 Vibration    33          0.754              1.501              1.017
 Vibration    34          0.764              1.477              0.974
 Vibration    35          0.770              1.460              0.946
 Vibration    36          0.776              1.444              0.919
 Vibration    37          0.820              1.333              0.759
 Vibration    38          0.861              1.238              0.644
 Vibration    39          0.885              1.183              0.586
 Vibration    40          0.905              1.141              0.545

                           ! Non-Optimized Parameters !
 Normal termination of Gaussian 16 at Sun Jun 20 08:44:35 2021.

 ----------------------------------------------------------------------
 #p ub3lyp jul-cc-pvdz pop=cm5 scrf=(pcm,solvent=dichloroethane) guess=
 read geom=allcheck
 ----------------------------------------------------------------------

 Structure from the checkpoint file:  "checkpoint.chk"
 -----
 title
 -----
 Charge =  0 Multiplicity = 6

 SCF Done:  E(UB3LYP) =  -3531.43132861     A.U. after   19 cycles
 Normal termination of Gaussian 16 at Sun Jun 20 09:07:07 2021.
 Gaussian 16:  ES64L-G16RevA.03 25-Dec-2016

 ----------------------------------------------------------------------
 #p ub3lyp jul-cc-pvdz pop=cm5 scrf=(pcm,solvent=water) guess=read geom
 =allcheck
 ----------------------------------------------------------------------

 Structure from the checkpoint file:  "checkpoint.chk"
 -----
 title
 -----
 Charge =  0 Multiplicity = 6

                         Standard orientation:
 ---------------------------------------------------------------------
 Center     Atomic      Atomic             Coordinates (Angstroms)
 Number     Number       Type             X           Y           Z
 ---------------------------------------------------------------------
      1          6           0        2.388702   -1.763820    1.405380
      2          6           0        1.433712   -0.820222    0.992707
      3          6           0        1.200346    0.292764    1.814588
      4          6           0        1.895496    0.451729    3.015534
      5          6           0        2.836569   -0.497659    3.420176
      6          6           0        3.082455   -1.607059    2.607322
      7          6           0        0.709555   -0.928447   -0.343594
      8          6           0        1.562660   -0.417148   -1.565680
      9          6           0        2.440932   -1.590764   -2.000527
     10          6           0        1.531208   -2.836047   -1.909871
     11          6           0        0.498649   -2.552085   -0.801097
     12          6           0       -0.935521   -2.498458   -1.141706
     13          6           0       -1.451993   -2.150927   -2.474101
     14          8           0       -0.573927   -0.369784   -0.349240
     15         26           0       -2.002773    0.604675    0.396048
     16         17           0       -3.636773    0.318725   -1.128650
     17          6           0       -1.906457   -2.970608   -0.138217
     18         17           0       -1.540676    2.747350    0.717659
     19         17           0       -2.588356   -0.392493    2.302458
     20          1           0        0.481485    1.054643    1.521125
     21          1           0        1.689520    1.322992    3.638546
     22          1           0        3.372722   -0.376209    4.362444
     23          1           0        3.815103   -2.357327    2.908055
     24          1           0        2.608468   -2.640125    0.795687
     25          1           0        0.828270   -0.166009   -2.341749
     26          6           0        2.363046    0.845519   -1.272106
     27          1           0        2.844032   -1.443178   -3.010715
     28          1           0        3.299829   -1.672514   -1.323509
     29          1           0        1.039112   -3.024657   -2.872842
     30          1           0        2.102321   -3.743423   -1.673955
     31          1           0        0.635166   -3.168491    0.091234
     32          1           0       -1.905521   -4.074988   -0.242188
     33          1           0       -1.585491   -2.747785    0.886453
     34          1           0       -2.922541   -2.603763   -0.317451
     35          1           0       -1.975164   -3.040373   -2.870578
     36          1           0       -2.235361   -1.381012   -2.350891
     37          1           0       -0.692744   -1.824608   -3.187660
     38          8           0        1.619534    1.943204   -1.478876
     39          8           0        3.522462    0.855617   -0.915230
     40          6           0        2.255005    3.223558   -1.197240
     41          6           0        1.304925    4.314879   -1.645154
     42          1           0        2.459535    3.267320   -0.118873
     43          1           0        3.215690    3.254417   -1.728204
     44          1           0        1.750877    5.295577   -1.424495
     45          1           0        1.119621    4.255437   -2.726910
     46          1           0        0.345591    4.238091   -1.117420
 ---------------------------------------------------------------------

 SCF Done:  E(UB3LYP) =  -3531.43646654     A.U. after   14 cycles

 The electronic state is 6-A.
 Alpha  occ. eigenvalues -- -256.20010-101.52054-101.51866-101.51786 -30.19399
 Alpha  occ. eigenvalues --  -26.04703 -26.04627 -26.04566 -19.20320 -19.16438
 Alpha  occ. eigenvalues --  -19.15195 -10.32853 -10.32835 -10.30144 -10.24743
 Alpha  occ. eigenvalues --  -10.23226 -10.22024 -10.21935 -10.21883 -10.21539
 Alpha  occ. eigenvalues --  -10.20728 -10.20533 -10.20275 -10.20236 -10.20200
 Alpha  occ. eigenvalues --  -10.20158 -10.19900 -10.18511  -9.43779  -9.43573
 Alpha  occ. eigenvalues --   -9.43509  -7.19638  -7.19442  -7.19382  -7.19333
 Alpha  occ. eigenvalues --   -7.19311  -7.19117  -7.19105  -7.19060  -7.19036
 Alpha  occ. eigenvalues --   -3.67115  -2.44629  -2.44440  -2.44335  -1.12057
 Alpha  occ. eigenvalues --   -1.03599  -1.03363  -0.88792  -0.87339  -0.84433
 Alpha  occ. eigenvalues --   -0.79929  -0.79248  -0.79066  -0.78821  -0.77589
 Alpha  occ. eigenvalues --   -0.76109  -0.75475  -0.74543  -0.71832  -0.66562
 Alpha  occ. eigenvalues --   -0.64268  -0.62087  -0.61286  -0.59560  -0.57029
 Alpha  occ. eigenvalues --   -0.56608  -0.54745  -0.53143  -0.51451  -0.50510
 Alpha  occ. eigenvalues --   -0.50193  -0.49644  -0.48933  -0.47929  -0.47618
 Alpha  occ. eigenvalues --   -0.47371  -0.47299  -0.46745  -0.46634  -0.46442
 Alpha  occ. eigenvalues --   -0.44964  -0.44500  -0.44132  -0.43408  -0.42981
 Alpha  occ. eigenvalues --   -0.42660  -0.41877  -0.41137  -0.40859  -0.40595
 Alpha  occ. eigenvalues --   -0.39884  -0.38900  -0.38100  -0.37444  -0.37426
 Alpha  occ. eigenvalues --   -0.36961  -0.36346  -0.36166  -0.35895  -0.35736
 Alpha  occ. eigenvalues --   -0.34699  -0.34132  -0.33734  -0.32011  -0.31460
 Alpha  occ. eigenvalues --   -0.30887  -0.30756  -0.30572  -0.30279  -0.29839
 Alpha  occ. eigenvalues --   -0.29514  -0.29044  -0.28416  -0.26805  -0.26202
 Alpha virt. eigenvalues --   -0.13288  -0.03229  -0.02868  -0.01505  -0.01257
 Alpha virt. eigenvalues --   -0.00197  -0.00068   0.00091   0.01415   0.01650
 Alpha virt. eigenvalues --    0.01732   0.01822   0.02491   0.03245   0.03837

  Beta  occ. eigenvalues -- -256.19826-101.51884-101.51706-101.51614 -30.10474
  Beta  occ. eigenvalues --  -25.97255 -25.97182 -25.97140 -19.20320 -19.15677
  Beta  occ. eigenvalues --  -19.15191 -10.32853 -10.32842 -10.30121 -10.24743
  Beta  occ. eigenvalues --  -10.23193 -10.22024 -10.21931 -10.21860 -10.21524
  Beta  occ. eigenvalues --  -10.20728 -10.20530 -10.20274 -10.20236 -10.20200
  Beta  occ. eigenvalues --  -10.20158 -10.19897 -10.18510  -9.43612  -9.43416
  Beta  occ. eigenvalues --   -9.43340  -7.19359  -7.19156  -7.19101  -7.19087
  Beta  occ. eigenvalues --   -7.19084  -7.18915  -7.18900  -7.18827  -7.18822
  Beta  occ. eigenvalues --   -3.46308  -2.22646  -2.22540  -2.22439  -1.12054
  Beta  occ. eigenvalues --   -1.03593  -1.01892  -0.88606  -0.87308  -0.84363
  Beta  occ. eigenvalues --   -0.78869  -0.78821  -0.78066  -0.77907  -0.77493
  Beta  occ. eigenvalues --   -0.76097  -0.75439  -0.74534  -0.71652  -0.66447
  Beta  occ. eigenvalues --   -0.64214  -0.62054  -0.61244  -0.59288  -0.56970
  Beta  occ. eigenvalues --   -0.56099  -0.54640  -0.52128  -0.51382  -0.50407
  Beta  occ. eigenvalues --   -0.49993  -0.49151  -0.48230  -0.47769  -0.46772
  Beta  occ. eigenvalues --   -0.46448  -0.44752  -0.44185  -0.43480  -0.43042
  Beta  occ. eigenvalues --   -0.42792  -0.41835  -0.41188  -0.40824  -0.40497
  Beta  occ. eigenvalues --   -0.39884  -0.38822  -0.37937  -0.37647  -0.37402
  Beta  occ. eigenvalues --   -0.36882  -0.36670  -0.36227  -0.35839  -0.35758
  Beta  occ. eigenvalues --   -0.35496  -0.35366  -0.34642  -0.32956  -0.32855
  Beta  occ. eigenvalues --   -0.32401  -0.31896  -0.31829  -0.31372  -0.29805
  Beta  occ. eigenvalues --   -0.29493  -0.29376  -0.28331  -0.26802  -0.26141
  Beta virt. eigenvalues --   -0.14113  -0.13666  -0.13256  -0.12568  -0.12406
  Beta virt. eigenvalues --   -0.11709  -0.03169  -0.02842  -0.01411  -0.01214
  Beta virt. eigenvalues --   -0.00143  -0.00042   0.00118   0.01441   0.01672

 Mulliken charges and spin densities:
               1          2
     1  C   -0.323564   0.004434
     2  C    3.206804  -0.001005
     3  C   -0.321792  -0.012769
     4  C    0.033711   0.001001
     5  C    0.199576  -0.000085
     6  C   -0.120053   0.001057
     7  C   -2.717958   0.003700
     8  C    0.517126   0.008103
     9  C    0.514994   0.002795
    10  C    0.553297  -0.000521
    11  C    1.078903   0.023659
    12  C   -0.624120  -0.004302
    13  C    0.200916  -0.004000
    14  O   -0.335894   0.252709
    15  Fe   0.642971   4.039325
    16  Cl  -0.563031   0.216488
    17  C    0.385211   0.002313
    18  Cl  -0.488222   0.234913
    19  Cl  -0.512301   0.226549
    20  H   -0.322112   0.001239
    21  H   -0.161985  -0.000017
    22  H   -0.162227   0.000032
    23  H   -0.156894   0.000169
    24  H   -0.221177  -0.000012
    25  H   -0.192683  -0.000116
    26  C    0.895217   0.005758
    27  H   -0.146494   0.000556
    28  H   -0.049023   0.000023
    29  H   -0.091855   0.000138
    30  H   -0.092342   0.000449
    31  H   -0.194266   0.000227
    32  H    0.064362  -0.000876
    33  H    0.083974  -0.000631
    34  H    0.042410  -0.000505
    35  H    0.075722   0.000304
    36  H    0.129513  -0.000728
    37  H    0.058230   0.000035
    38  O   -0.680893  -0.000126
    39  O   -0.643095   0.000962
    40  C    0.429173  -0.001266
    41  C    0.053976   0.000448
    42  H   -0.042096  -0.000039
    43  H   -0.047107   0.000004
    44  H   -0.006373   0.000054
    45  H    0.022900  -0.000013
    46  H    0.028570  -0.000432
 Sum of Mulliken charges =  -0.00000   5.00000

 Dipole moment (field-independent basis, Debye):
    X=              5.9153    Y=            -11.9534    Z=             -6.8002  Tot=             14.9705
 Quadrupole moment (field-independent basis, Debye-Ang):
   XX=           -206.0131   YY=           -142.7613   ZZ=           -167.0717
   XY=             12.9748   XZ=             11.1410   YZ=             10.8784

 Normal termination of Gaussian 16 at Sun Jun 20 09:23:56 2021.
