 Gaussian 16, Revision A.03,

 -----------------------------------------------------------
 #p opt=modredundant freq=noraman ub3lyp jul-cc-pvdz pop=cm5
 -----------------------------------------------------------

 -----
 title
 -----
 Symbolic Z-matrix:
 Charge =  0 Multiplicity = 6

 SCF Done:  E(UB3LYP) =  -3531.44769251     A.U. after   24 cycles
 SCF Done:  E(UB3LYP) =  -3531.44782057     A.U. after   16 cycles
 SCF Done:  E(UB3LYP) =  -3531.44615681     A.U. after   22 cycles
 SCF Done:  E(UB3LYP) =  -3531.44733232     A.U. after   16 cycles
 SCF Done:  E(UB3LYP) =  -3531.44805939     A.U. after   11 cycles
 SCF Done:  E(UB3LYP) =  -3531.44827749     A.U. after   15 cycles
 SCF Done:  E(UB3LYP) =  -3531.44829120     A.U. after   14 cycles
 SCF Done:  E(UB3LYP) =  -3531.44834052     A.U. after   13 cycles
 SCF Done:  E(UB3LYP) =  -3531.44834415     A.U. after   13 cycles
 SCF Done:  E(UB3LYP) =  -3531.44834476     A.U. after   12 cycles
 SCF Done:  E(UB3LYP) =  -3531.44834789     A.U. after   10 cycles
 SCF Done:  E(UB3LYP) =  -3531.44834813     A.U. after   10 cycles
 SCF Done:  E(UB3LYP) =  -3531.44834838     A.U. after   10 cycles
 SCF Done:  E(UB3LYP) =  -3531.44834855     A.U. after   10 cycles
 SCF Done:  E(UB3LYP) =  -3531.44834869     A.U. after   10 cycles
 SCF Done:  E(UB3LYP) =  -3531.44834871     A.U. after    8 cycles
 SCF Done:  E(UB3LYP) =  -3531.44834873     A.U. after    7 cycles
 Optimization completed.
    -- Stationary point found.
 Normal termination of Gaussian 16 at Sun Jun 20 20:00:02 2021.

 ----------------------------------------------------------------------
 #P Geom=AllCheck Guess=TCheck SCRF=Check GenChk UB3LYP/Jul-CC-pVDZ Fre
 q
 ----------------------------------------------------------------------

 Structure from the checkpoint file:  "checkpoint.chk"
 -----
 title
 -----
 Charge =  0 Multiplicity = 6

 SCF Done:  E(UB3LYP) =  -3531.44834873     A.U. after    1 cycles

  Exact polarizability: 305.925   9.501 310.910  23.461   4.467 304.417
 Approx polarizability: 470.504  44.667 476.945  45.396  -2.158 491.305

                      1                      2                      3
                      A                      A                      A
 Frequencies --      4.1726                11.4833                20.6977
 Red. masses --      7.1003                 6.3913                 8.8274
 Frc consts  --      0.0001                 0.0005                 0.0022
 IR Inten    --      0.4682                 0.6452                 0.3721

                      4                      5                      6
                      A                      A                      A
 Frequencies --     35.5978                42.5676                54.6374
 Red. masses --      4.4095                 7.1501                 4.8215
 Frc consts  --      0.0033                 0.0076                 0.0085
 IR Inten    --      0.6359                 1.2042                 0.6415

                      7                      8                      9
                      A                      A                      A
 Frequencies --     63.8713                65.6051                76.6248
 Red. masses --      3.8749                 3.3210                 6.9563
 Frc consts  --      0.0093                 0.0084                 0.0241
 IR Inten    --      0.6267                 1.1369                 0.3066

                     10                     11                     12
                      A                      A                      A
 Frequencies --     79.3837                83.0394                96.5240
 Red. masses --      5.0953                 8.4800                 4.0739
 Frc consts  --      0.0189                 0.0345                 0.0224
 IR Inten    --      1.7638                 0.2949                 2.6654

                     13                     14                     15
                      A                      A                      A
 Frequencies --     99.0677               107.4134               110.8822
 Red. masses --      3.5390                 5.2214                 2.6523
 Frc consts  --      0.0205                 0.0355                 0.0192
 IR Inten    --      0.4004                 0.2454                 0.1219

                     16                     17                     18
                      A                      A                      A
 Frequencies --    117.9183               121.2021               133.1282
 Red. masses --      3.2684                10.6493                 1.8466
 Frc consts  --      0.0268                 0.0922                 0.0193
 IR Inten    --      0.6593                 1.8765                 0.9818

                     19                     20                     21
                      A                      A                      A
 Frequencies --    148.3724               160.9554               185.4095
 Red. masses --      3.3905                 8.8127                 2.8218
 Frc consts  --      0.0440                 0.1345                 0.0572
 IR Inten    --      2.6177                16.7223                 7.5464

                     22                     23                     24
                      A                      A                      A
 Frequencies --    202.4754               206.8835               213.5400
 Red. masses --      1.4118                 3.2254                 3.0568
 Frc consts  --      0.0341                 0.0813                 0.0821
 IR Inten    --      7.1958                 0.8658                 2.2989

                     25                     26                     27
                      A                      A                      A
 Frequencies --    259.1230               263.0991               283.9934
 Red. masses --      1.4682                 3.4191                 4.0737
 Frc consts  --      0.0581                 0.1394                 0.1936
 IR Inten    --      1.6511                33.2322                 2.7021

                     28                     29                     30
                      A                      A                      A
 Frequencies --    301.9135               309.0491               342.4101
 Red. masses --      5.4328                 2.7024                18.6414
 Frc consts  --      0.2918                 0.1521                 1.2877
 IR Inten    --     13.1789                 2.8804                33.4705

                     31                     32                     33
                      A                      A                      A
 Frequencies --    351.1793               378.3597               390.7642
 Red. masses --      5.9579                 3.8631                 2.9348
 Frc consts  --      0.4329                 0.3258                 0.2640
 IR Inten    --     20.2220                 2.8223                10.8678

                     34                     35                     36
                      A                      A                      A
 Frequencies --    397.9423               406.4471               414.2766
 Red. masses --     20.7789                27.6549                 3.0265
 Frc consts  --      1.9387                 2.6917                 0.3060
 IR Inten    --     71.0488                78.7559                 3.4309

                     37                     38                     39
                      A                      A                      A
 Frequencies --    422.2393               448.3990               477.5183
 Red. masses --      3.7620                 2.8539                 3.1635
 Frc consts  --      0.3952                 0.3381                 0.4250
 IR Inten    --     28.7299                 7.6745                 0.3669

                     40                     41                     42
                      A                      A                      A
 Frequencies --    492.6885               514.1919               535.1886
 Red. masses --      2.5767                 2.9179                 4.2291
 Frc consts  --      0.3685                 0.4545                 0.7137
 IR Inten    --     10.0676                 3.5473                20.2032

                     43                     44                     45
                      A                      A                      A
 Frequencies --    585.1912               624.2734               650.9982
 Red. masses --      4.8437                 6.3765                 4.4259
 Frc consts  --      0.9773                 1.4641                 1.1051
 IR Inten    --     60.8178                 3.4593                60.6403

                     46                     47                     48
                      A                      A                      A
 Frequencies --    695.3492               697.4957               752.6614
 Red. masses --      5.8630                 1.6059                 4.2269
 Frc consts  --      1.6702                 0.4603                 1.4108
 IR Inten    --     10.7665                53.6086                 3.8547

                     49                     50                     51
                      A                      A                      A
 Frequencies --    773.2669               794.2964               805.6851
 Red. masses --      2.3059                 2.3122                 1.1533
 Frc consts  --      0.8124                 0.8595                 0.4411
 IR Inten    --     27.9979                 4.5922                 1.4641

                     52                     53                     54
                      A                      A                      A
 Frequencies --    829.0893               850.3357               852.1737
 Red. masses --      4.6136                 1.4575                 1.2496
 Frc consts  --      1.8685                 0.6209                 0.5347
 IR Inten    --     11.7522                15.3100                 0.6563

                     55                     56                     57
                      A                      A                      A
 Frequencies --    865.9561               902.9111               912.1521
 Red. masses --      2.7188                 2.1023                 2.0218
 Frc consts  --      1.2012                 1.0098                 0.9911
 IR Inten    --     31.1700                 2.6671                14.1617

                     58                     59                     60
                      A                      A                      A
 Frequencies --    957.8294               961.1754               973.7664
 Red. masses --      1.4580                 1.4114                 3.1496
 Frc consts  --      0.7881                 0.7682                 1.7596
 IR Inten    --      2.4085                 1.9205                22.9067

                     61                     62                     63
                      A                      A                      A
 Frequencies --    991.1785               995.6368               997.8511
 Red. masses --      2.2304                 1.4083                 1.5276
 Frc consts  --      1.2910                 0.8225                 0.8962
 IR Inten    --     40.8199                 7.4132                 5.5809

                     64                     65                     66
                      A                      A                      A
 Frequencies --   1003.4991              1012.6253              1022.5353
 Red. masses --      3.4687                 1.3457                 2.0764
 Frc consts  --      2.0580                 0.8130                 1.2792
 IR Inten    --      0.3501                 0.7569                 0.7573

                     67                     68                     69
                      A                      A                      A
 Frequencies --   1037.0340              1047.5577              1076.5917
 Red. masses --      2.6074                 2.3711                 2.1212
 Frc consts  --      1.6521                 1.5331                 1.4486
 IR Inten    --     44.1659                 2.8310                 1.3675

                     70                     71                     72
                      A                      A                      A
 Frequencies --   1093.6648              1102.1039              1116.5005
 Red. masses --      1.7350                 2.0313                 1.5865
 Frc consts  --      1.2227                 1.4537                 1.1652
 IR Inten    --      0.4055                16.0481                 7.1160

                     73                     74                     75
                      A                      A                      A
 Frequencies --   1133.3805              1140.1875              1165.1210
 Red. masses --      2.1720                 2.1971                 1.7040
 Frc consts  --      1.6439                 1.6829                 1.3629
 IR Inten    --     15.5064                 6.0783                80.8220

                     76                     77                     78
                      A                      A                      A
 Frequencies --   1170.0146              1178.8928              1204.8073
 Red. masses --      1.6045                 1.0870                 1.4650
 Frc consts  --      1.2941                 0.8901                 1.2529
 IR Inten    --     16.0152                 1.2305                43.7106

                     79                     80                     81
                      A                      A                      A
 Frequencies --   1209.8930              1228.5390              1252.8876
 Red. masses --      1.3049                 2.1179                 2.0120
 Frc consts  --      1.1254                 1.8834                 1.8608
 IR Inten    --     46.1369               176.8138                22.1628

                     82                     83                     84
                      A                      A                      A
 Frequencies --   1271.5374              1283.9470              1325.6919
 Red. masses --      2.2180                 1.1214                 1.4191
 Frc consts  --      2.1129                 1.0892                 1.4695
 IR Inten    --    162.2336                 1.9001                25.6885

                     85                     86                     87
                      A                      A                      A
 Frequencies --   1326.0943              1335.8829              1342.0875
 Red. masses --      1.7066                 1.5010                 1.7337
 Frc consts  --      1.7682                 1.5782                 1.8399
 IR Inten    --    109.1920                27.0232                19.5995

                     88                     89                     90
                      A                      A                      A
 Frequencies --   1366.8257              1371.0751              1380.6411
 Red. masses --      2.5090                 1.6138                 1.3433
 Frc consts  --      2.7617                 1.7874                 1.5086
 IR Inten    --      3.2984                10.1182                23.3622

                     91                     92                     93
                      A                      A                      A
 Frequencies --   1381.7711              1404.4927              1409.2142
 Red. masses --      1.3512                 1.3736                 1.3522
 Frc consts  --      1.5200                 1.5964                 1.5822
 IR Inten    --      5.8841                 6.9524                17.6840

                     94                     95                     96
                      A                      A                      A
 Frequencies --   1416.0288              1459.6494              1466.2635
 Red. masses --      1.3993                 1.0615                 1.6090
 Frc consts  --      1.6532                 1.3326                 2.0381
 IR Inten    --     12.5749                 5.0250                19.9666

                     97                     98                     99
                      A                      A                      A
 Frequencies --   1467.3068              1474.4027              1478.0215
 Red. masses --      1.3497                 1.0385                 1.0720
 Frc consts  --      1.7121                 1.3301                 1.3797
 IR Inten    --     18.4872                 5.3055                 2.5802

                    100                    101                    102
                      A                      A                      A
 Frequencies --   1482.1489              1487.0784              1487.5973
 Red. masses --      1.0549                 1.0712                 1.0871
 Frc consts  --      1.3654                 1.3957                 1.4173
 IR Inten    --     19.0207                 6.4510                 3.6665

                    103                    104                    105
                      A                      A                      A
 Frequencies --   1489.9351              1505.3430              1518.4841
 Red. masses --      1.0966                 1.0827                 2.1475
 Frc consts  --      1.4342                 1.4456                 2.9175
 IR Inten    --      7.3577                 6.5441                 7.7856

                    106                    107                    108
                      A                      A                      A
 Frequencies --   1553.9108              1620.7620              1640.9394
 Red. masses --      6.6667                 5.5202                 5.6477
 Frc consts  --      9.4844                 8.5436                 8.9600
 IR Inten    --    683.7871                38.3023                36.0339

                    109                    110                    111
                      A                      A                      A
 Frequencies --   1701.4589              1768.9742              3015.0298
 Red. masses --      6.2032                11.5759                 1.0384
 Frc consts  --     10.5805                21.3427                 5.5618
 IR Inten    --    107.8262               217.9530                12.0364

                    112                    113                    114
                      A                      A                      A
 Frequencies --   3024.1971              3025.9774              3041.9932
 Red. masses --      1.0483                 1.0588                 1.0356
 Frc consts  --      5.6490                 5.7119                 5.6461
 IR Inten    --     14.9232                25.7118                15.5783

                    115                    116                    117
                      A                      A                      A
 Frequencies --   3061.5138              3067.8062              3070.5865
 Red. masses --      1.0582                 1.0638                 1.0979
 Frc consts  --      5.8439                 5.8991                 6.0992
 IR Inten    --     14.3580                24.6658                 0.3834

                    118                    119                    120
                      A                      A                      A
 Frequencies --   3075.7370              3076.9836              3086.0573
 Red. masses --      1.0977                 1.0846                 1.0957
 Frc consts  --      6.1183                 6.0505                 6.1482
 IR Inten    --     23.5852                 1.1964                 5.7386

                    121                    122                    123
                      A                      A                      A
 Frequencies --   3108.0997              3118.6327              3120.5766
 Red. masses --      1.1074                 1.1018                 1.0995
 Frc consts  --      6.3030                 6.3135                 6.3081
 IR Inten    --      7.5279                15.7943                15.6665

                    124                    125                    126
                      A                      A                      A
 Frequencies --   3121.5996              3135.4747              3137.2883
 Red. masses --      1.1012                 1.0880                 1.1052
 Frc consts  --      6.3221                 6.3018                 6.4091
 IR Inten    --      5.6141                17.8347                16.3148

                    127                    128                    129
                      A                      A                      A
 Frequencies --   3142.4431              3175.3380              3188.9101
 Red. masses --      1.0966                 1.0863                 1.0911
 Frc consts  --      6.3802                 6.4531                 6.5373
 IR Inten    --     23.0584                 0.9334                 7.1600

                    130                    131                    132
                      A                      A                      A
 Frequencies --   3197.5323              3217.6102              3229.5740
 Red. masses --      1.0963                 1.0938                 1.0929
 Frc consts  --      6.6042                 6.6722                 6.7160
 IR Inten    --      8.8767                 4.7009                 4.6908

 - Thermochemistry -
 -------------------
 Temperature   298.150 Kelvin.  Pressure   1.00000 Atm.
 Atom     1 has atomic number  6 and mass  12.00000

 Molecular mass:   434.99839 amu.
 Principal axes and moments of inertia in atomic units:
                           1         2         3
     Eigenvalues --  9989.02908********************
           X            0.99069  -0.13613   0.00297
           Y            0.13602   0.99039   0.02503
           Z           -0.00635  -0.02440   0.99968
 This molecule is an asymmetric top.
 Rotational symmetry number  1.
 Warning -- assumption of classical behavior for rotation
           may cause significant error
 Rotational temperatures (Kelvin)      0.00867     0.00776     0.00648
 Rotational constants (GHZ):           0.18067     0.16169     0.13499
 Zero-point vibrational energy     943565.7 (Joules/Mol)
                                  225.51762 (Kcal/Mol)
 Warning -- explicit consideration of  43 degrees of freedom as
           vibrations may cause significant error
 Vibrational temperatures:      6.00    16.52    29.78    51.22    61.25
          (Kelvin)             78.61    91.90    94.39   110.25   114.22
                              119.48   138.88   142.54   154.54   159.53
                              169.66   174.38   191.54   213.47   231.58
                              266.76   291.32   297.66   307.24   372.82
                              378.54   408.60   434.39   444.65   492.65
                              505.27   544.38   562.22   572.55   584.79
                              596.05   607.51   645.15   687.04   708.87
                              739.81   770.02   841.96   898.19   936.64
                             1000.45  1003.54  1082.91  1112.56  1142.82
                             1159.20  1192.87  1223.44  1226.09  1245.92
                             1299.09  1312.38  1378.10  1382.92  1401.03
                             1426.08  1432.50  1435.69  1443.81  1456.94
                             1471.20  1492.06  1507.20  1548.98  1573.54
                             1585.68  1606.40  1630.68  1640.48  1676.35
                             1683.39  1696.16  1733.45  1740.77  1767.59
                             1802.63  1829.46  1847.31  1907.37  1907.95
                             1922.04  1930.96  1966.56  1972.67  1986.43
                             1988.06  2020.75  2027.54  2037.35  2100.11
                             2109.63  2111.13  2121.34  2126.54  2132.48
                             2139.57  2140.32  2143.68  2165.85  2184.76
                             2235.73  2331.92  2360.95  2448.02  2545.16
                             4337.96  4351.15  4353.71  4376.75  4404.84
                             4413.89  4417.89  4425.30  4427.09  4440.15
                             4471.86  4487.02  4489.81  4491.29  4511.25
                             4513.86  4521.27  4568.60  4588.13  4600.54
                             4629.42  4646.64

 Zero-point correction=                           0.359385 (Hartree/Particle)
 Thermal correction to Energy=                    0.388099
 Thermal correction to Enthalpy=                  0.389043
 Thermal correction to Gibbs Free Energy=         0.291978
 Sum of electronic and zero-point Energies=          -3531.088964
 Sum of electronic and thermal Energies=             -3531.060250
 Sum of electronic and thermal Enthalpies=           -3531.059306
 Sum of electronic and thermal Free Energies=        -3531.156370

                     E (Thermal)             CV                S
                      KCal/Mol        Cal/Mol-Kelvin    Cal/Mol-Kelvin
 Total                  243.536             99.787            204.290
 Electronic               0.000              0.000              3.561
 Translational            0.889              2.981             44.100
 Rotational               0.889              2.981             35.654
 Vibrational            241.758             93.825            120.975
 Vibration     1          0.593              1.987              9.748
 Vibration     2          0.593              1.987              7.736
 Vibration     3          0.593              1.986              6.566
 Vibration     4          0.594              1.982              5.490
 Vibration     5          0.595              1.980              5.136
 Vibration     6          0.596              1.976              4.642
 Vibration     7          0.597              1.972              4.334
 Vibration     8          0.597              1.971              4.281
 Vibration     9          0.599              1.965              3.976
 Vibration    10          0.600              1.963              3.906
 Vibration    11          0.600              1.961              3.818
 Vibration    12          0.603              1.952              3.523
 Vibration    13          0.604              1.950              3.473
 Vibration    14          0.606              1.943              3.315
 Vibration    15          0.607              1.940              3.253
 Vibration    16          0.608              1.934              3.134
 Vibration    17          0.609              1.932              3.081
 Vibration    18          0.613              1.920              2.900
 Vibration    19          0.618              1.904              2.693
 Vibration    20          0.622              1.890              2.539
 Vibration    21          0.631              1.860              2.273
 Vibration    22          0.639              1.836              2.110
 Vibration    23          0.641              1.830              2.071
 Vibration    24          0.644              1.820              2.013
 Vibration    25          0.668              1.747              1.668
 Vibration    26          0.670              1.740              1.641
 Vibration    27          0.682              1.703              1.509
 Vibration    28          0.694              1.670              1.406
 Vibration    29          0.698              1.656              1.367
 Vibration    30          0.722              1.591              1.201
 Vibration    31          0.728              1.573              1.161
 Vibration    32          0.749              1.516              1.046
 Vibration    33          0.758              1.490              0.997
 Vibration    34          0.764              1.475              0.970
 Vibration    35          0.771              1.456              0.939
 Vibration    36          0.778              1.439              0.912
 Vibration    37          0.785              1.422              0.884
 Vibration    38          0.807              1.364              0.801
 Vibration    39          0.834              1.300              0.717
 Vibration    40          0.848              1.266              0.677
 Vibration    41          0.869              1.219              0.624
 Vibration    42          0.890              1.172              0.576
 Vibration    43          0.942              1.063              0.476

                           ! Non-Optimized Parameters !
 Normal termination of Gaussian 16 at Mon Jun 21 00:34:11 2021.

 ----------------------------------------------------------------------
 #p ub3lyp jul-cc-pvdz pop=cm5 scrf=(pcm,solvent=dichloroethane) guess=
 read geom=allcheck
 ----------------------------------------------------------------------

 Structure from the checkpoint file:  "checkpoint.chk"
 -----
 title
 -----
 Charge =  0 Multiplicity = 6

 SCF Done:  E(UB3LYP) =  -3531.46543345     A.U. after   18 cycles
 Normal termination of Gaussian 16 at Mon Jun 21 01:02:13 2021.
 Gaussian 16:  ES64L-G16RevA.03 25-Dec-2016

 ----------------------------------------------------------------------
 #p ub3lyp jul-cc-pvdz pop=cm5 scrf=(pcm,solvent=water) guess=read geom
 =allcheck
 ----------------------------------------------------------------------

 Structure from the checkpoint file:  "checkpoint.chk"
 -----
 title
 -----
 Charge =  0 Multiplicity = 6

                         Standard orientation:
 ---------------------------------------------------------------------
 Center     Atomic      Atomic             Coordinates (Angstroms)
 Number     Number       Type             X           Y           Z
 ---------------------------------------------------------------------
      1          6           0        2.833069    0.545667    1.213746
      2          6           0        1.654769   -0.178898    0.937230
      3          6           0        1.162109   -1.076955    1.908227
      4          6           0        1.835846   -1.254982    3.112643
      5          6           0        3.006379   -0.532849    3.375466
      6          6           0        3.497143    0.370736    2.427218
      7          6           0        0.883604    0.014705   -0.309577
      8          6           0        1.311849    0.974718   -1.431922
      9          6           0        2.624752    0.640844   -2.149899
     10          6           0        2.542593   -0.781193   -2.717189
     11          6           0        2.239043   -1.770984   -1.626432
     12          6           0        1.240972   -2.681166   -1.580378
     13          6           0        0.120613   -2.775396   -2.576634
     14          8           0       -0.298627   -0.404357   -0.377977
     15         26           0       -2.164451   -0.457720    0.275487
     16         17           0       -3.421799    0.121990   -1.429702
     17          6           0        1.166779   -3.683150   -0.460106
     18         17           0       -2.232391    0.954955    1.961634
     19         17           0       -2.488712   -2.548135    0.913366
     20          1           0        0.249943   -1.637184    1.713844
     21          1           0        1.442640   -1.952319    3.852845
     22          1           0        3.531104   -0.669033    4.322494
     23          1           0        4.398554    0.948150    2.634911
     24          1           0        3.219467    1.273576    0.505525
     25          1           0        0.486601    0.903177   -2.152544
     26          6           0        1.282051    2.424396   -0.911015
     27          1           0        2.779680    1.376519   -2.950837
     28          1           0        3.481900    0.737078   -1.473621
     29          1           0        1.786954   -0.818150   -3.512817
     30          1           0        3.506802   -1.035472   -3.186077
     31          1           0        3.000821   -1.831804   -0.843968
     32          1           0        1.973622   -3.547506    0.270784
     33          1           0        0.196753   -3.622151    0.057238
     34          1           0        1.238108   -4.705926   -0.864571
     35          1           0        0.062964   -3.796610   -2.984883
     36          1           0       -0.842993   -2.588055   -2.076811
     37          1           0        0.212608   -2.076550   -3.414374
     38          8           0        0.023280    2.821948   -0.706488
     39          8           0        2.266103    3.110798   -0.734839
     40          6           0       -0.166059    4.177595   -0.195440
     41          6           0       -1.656235    4.435753   -0.127729
     42          1           0        0.314492    4.233190    0.790640
     43          1           0        0.354148    4.869430   -0.870818
     44          1           0       -1.827351    5.448876    0.263917
     45          1           0       -2.113399    4.367283   -1.124240
     46          1           0       -2.150072    3.714267    0.535795
 ---------------------------------------------------------------------

 SCF Done:  E(UB3LYP) =  -3531.46850998     A.U. after   14 cycles

 The electronic state is 6-A.
 Alpha  occ. eigenvalues -- -256.21769-101.53001-101.52909-101.52822 -30.21156
 Alpha  occ. eigenvalues --  -26.06619 -26.06298 -26.06250 -19.21122 -19.19949
 Alpha  occ. eigenvalues --  -19.16229 -10.34192 -10.33613 -10.25224 -10.23322
 Alpha  occ. eigenvalues --  -10.22911 -10.21951 -10.21866 -10.21804 -10.21200
 Alpha  occ. eigenvalues --  -10.21187 -10.21152 -10.20332 -10.19528 -10.18957
 Alpha  occ. eigenvalues --  -10.18725 -10.18560 -10.18439  -9.44717  -9.44626
 Alpha  occ. eigenvalues --   -9.44558  -7.20585  -7.20497  -7.20426  -7.20282
 Alpha  occ. eigenvalues --   -7.20252  -7.20181  -7.20165  -7.20104  -7.20103
 Alpha  occ. eigenvalues --   -3.68805  -2.46584  -2.45966  -2.45879  -1.13068
 Alpha  occ. eigenvalues --   -1.10226  -1.04589  -0.88632  -0.85100  -0.82341
 Alpha  occ. eigenvalues --   -0.80951  -0.80214  -0.80138  -0.79004  -0.78702
 Alpha  occ. eigenvalues --   -0.77271  -0.75051  -0.70037  -0.69517  -0.67385
 Alpha  occ. eigenvalues --   -0.64711  -0.62972  -0.62008  -0.60013  -0.57836
 Alpha  occ. eigenvalues --   -0.56541  -0.53895  -0.53026  -0.52065  -0.50844
 Alpha  occ. eigenvalues --   -0.50183  -0.49457  -0.49122  -0.48870  -0.48709
 Alpha  occ. eigenvalues --   -0.48448  -0.47417  -0.46972  -0.46945  -0.45815
 Alpha  occ. eigenvalues --   -0.45364  -0.45001  -0.44256  -0.43296  -0.42945
 Alpha  occ. eigenvalues --   -0.42539  -0.41245  -0.40326  -0.39987  -0.39396
 Alpha  occ. eigenvalues --   -0.38881  -0.38439  -0.38021  -0.37818  -0.37622
 Alpha  occ. eigenvalues --   -0.37223  -0.36960  -0.36640  -0.36372  -0.35326
 Alpha  occ. eigenvalues --   -0.34999  -0.34726  -0.33578  -0.32617  -0.32298
 Alpha  occ. eigenvalues --   -0.31798  -0.31735  -0.31549  -0.31376  -0.30475
 Alpha  occ. eigenvalues --   -0.30288  -0.29880  -0.28752  -0.27910  -0.24963
 Alpha virt. eigenvalues --   -0.11170  -0.03615  -0.02295  -0.01726  -0.00857
 Alpha virt. eigenvalues --   -0.00138  -0.00019   0.00117   0.00864   0.01520
 Alpha virt. eigenvalues --    0.01737   0.01906   0.02341   0.02459   0.03208

  Beta  occ. eigenvalues -- -256.21584-101.52801-101.52715-101.52629 -30.12212
  Beta  occ. eigenvalues --  -25.99018 -25.98911 -25.98877 -19.21122 -19.19592
  Beta  occ. eigenvalues --  -19.16225 -10.34190 -10.33586 -10.25224 -10.23306
  Beta  occ. eigenvalues --  -10.22897 -10.21948 -10.21862 -10.21803 -10.21201
  Beta  occ. eigenvalues --  -10.21188 -10.21136 -10.20330 -10.19528 -10.18946
  Beta  occ. eigenvalues --  -10.18724 -10.18561 -10.18439  -9.44521  -9.44436
  Beta  occ. eigenvalues --   -9.44369  -7.20267  -7.20179  -7.20114  -7.19999
  Beta  occ. eigenvalues --   -7.19984  -7.19917  -7.19906  -7.19843  -7.19838
  Beta  occ. eigenvalues --   -3.47947  -2.24255  -2.24139  -2.24091  -1.13059
  Beta  occ. eigenvalues --   -1.09548  -1.04584  -0.88599  -0.85050  -0.82294
  Beta  occ. eigenvalues --   -0.79684  -0.78978  -0.78843  -0.78786  -0.78678
  Beta  occ. eigenvalues --   -0.77264  -0.75014  -0.70024  -0.69404  -0.67264
  Beta  occ. eigenvalues --   -0.64678  -0.62948  -0.61751  -0.59639  -0.57660
  Beta  occ. eigenvalues --   -0.55892  -0.53564  -0.52804  -0.51955  -0.50615
  Beta  occ. eigenvalues --   -0.49895  -0.49197  -0.47424  -0.47032  -0.46350
  Beta  occ. eigenvalues --   -0.45420  -0.45201  -0.44251  -0.43317  -0.42943
  Beta  occ. eigenvalues --   -0.42556  -0.41266  -0.40313  -0.39973  -0.39362
  Beta  occ. eigenvalues --   -0.38849  -0.38619  -0.38330  -0.37864  -0.37626
  Beta  occ. eigenvalues --   -0.37233  -0.36978  -0.36591  -0.36569  -0.36518
  Beta  occ. eigenvalues --   -0.36359  -0.35248  -0.33940  -0.33726  -0.33657
  Beta  occ. eigenvalues --   -0.33037  -0.32894  -0.32391  -0.31747  -0.30804
  Beta  occ. eigenvalues --   -0.30138  -0.29962  -0.28810  -0.27904  -0.24861
  Beta virt. eigenvalues --   -0.15889  -0.15334  -0.14299  -0.13972  -0.13915
  Beta virt. eigenvalues --   -0.10271  -0.03591  -0.02261  -0.01601  -0.00781
  Beta virt. eigenvalues --   -0.00097   0.00013   0.00159   0.00997   0.01545

 Mulliken charges and spin densities:
               1          2
     1  C   -0.064051   0.003379
     2  C    3.116601  -0.000677
     3  C   -0.686758  -0.009074
     4  C    0.074727   0.001911
     5  C    0.266334   0.005766
     6  C   -0.142697  -0.000227
     7  C   -1.842712  -0.010038
     8  C    0.360483   0.014483
     9  C    0.526213   0.001827
    10  C    0.654238  -0.000038
    11  C    0.207393   0.004242
    12  C   -0.030347   0.015170
    13  C    0.091650  -0.001792
    14  O   -0.320631   0.102759
    15  Fe   0.747089   4.073408
    16  Cl  -0.482345   0.264026
    17  C    0.163668  -0.001682
    18  Cl  -0.446491   0.266915
    19  Cl  -0.463379   0.261456
    20  H   -0.286133   0.000401
    21  H   -0.159180   0.000019
    22  H   -0.147020  -0.000071
    23  H   -0.155264   0.000108
    24  H   -0.186266  -0.000086
    25  H   -0.153610  -0.000519
    26  C    0.745007   0.002915
    27  H   -0.135655   0.000564
    28  H   -0.033719   0.000025
    29  H   -0.095075   0.000039
    30  H   -0.117182   0.000621
    31  H   -0.261307  -0.000352
    32  H   -0.011163   0.000084
    33  H    0.050379   0.000610
    34  H   -0.019328   0.000612
    35  H   -0.012701   0.000591
    36  H    0.025304   0.000959
    37  H   -0.007266   0.000016
    38  O   -0.660900   0.001161
    39  O   -0.557001   0.001537
    40  C    0.428284  -0.000330
    41  C    0.037223  -0.000367
    42  H   -0.031310   0.000039
    43  H   -0.035855   0.000006
    44  H   -0.004083   0.000033
    45  H    0.026402   0.000038
    46  H    0.028437  -0.000468
 Sum of Mulliken charges =  -0.00000   5.00000

 Dipole moment (field-independent basis, Debye):
    X=              9.9965    Y=              0.2331    Z=             -1.0382  Tot=             10.0530
 Quadrupole moment (field-independent basis, Debye-Ang):
   XX=           -190.0506   YY=           -169.4696   ZZ=           -164.7241
   XY=            -12.7835   XZ=              6.8227   YZ=              0.2899

 Normal termination of Gaussian 16 at Mon Jun 21 01:24:07 2021.
