 Gaussian 16, Revision A.03,

 -----------------------------------------------------------
 #p opt=modredundant freq=noraman ub3lyp jul-cc-pvdz pop=cm5
 -----------------------------------------------------------

 -----
 title
 -----
 Symbolic Z-matrix:
 Charge =  0 Multiplicity = 6

 SCF Done:  E(UB3LYP) =  -3531.40132303     A.U. after   25 cycles
 SCF Done:  E(UB3LYP) =  -3531.40028646     A.U. after   19 cycles
 SCF Done:  E(UB3LYP) =  -3531.39875441     A.U. after   19 cycles
 SCF Done:  E(UB3LYP) =  -3531.39737553     A.U. after   17 cycles
 SCF Done:  E(UB3LYP) =  -3531.40146442     A.U. after   14 cycles
 SCF Done:  E(UB3LYP) =  -3531.40107723     A.U. after   16 cycles
 SCF Done:  E(UB3LYP) =  -3531.40164546     A.U. after   16 cycles
 SCF Done:  E(UB3LYP) =  -3531.40151978     A.U. after   15 cycles
 SCF Done:  E(UB3LYP) =  -3531.40142041     A.U. after   15 cycles
 SCF Done:  E(UB3LYP) =  -3531.40127832     A.U. after   15 cycles
 SCF Done:  E(UB3LYP) =  -3531.40194482     A.U. after   12 cycles
 SCF Done:  E(UB3LYP) =  -3531.40194551     A.U. after   11 cycles
 SCF Done:  E(UB3LYP) =  -3531.40194567     A.U. after   11 cycles
 SCF Done:  E(UB3LYP) =  -3531.40194588     A.U. after   10 cycles
 SCF Done:  E(UB3LYP) =  -3531.40194586     A.U. after    9 cycles
 SCF Done:  E(UB3LYP) =  -3531.40194580     A.U. after    8 cycles
 SCF Done:  E(UB3LYP) =  -3531.40194573     A.U. after    9 cycles
 Optimization completed.
    -- Stationary point found.
 Normal termination of Gaussian 16 at Sun Jun 20 04:25:31 2021.

 ----------------------------------------------------------------------
 #P Geom=AllCheck Guess=TCheck SCRF=Check GenChk UB3LYP/Jul-CC-pVDZ Fre
 q
 ----------------------------------------------------------------------

 Structure from the checkpoint file:  "checkpoint.chk"
 -----
 title
 -----
 Charge =  0 Multiplicity = 6

 SCF Done:  E(UB3LYP) =  -3531.40194573     A.U. after    2 cycles

  Exact polarizability: 327.619  10.975 289.338  15.573  15.340 294.914
 Approx polarizability: 506.077  26.332 434.219  17.387  33.061 489.522

 ******    1 imaginary frequencies (negative Signs) ******

                      1                      2                      3
                      A                      A                      A
 Frequencies --   -629.4402                19.5264                23.4446
 Red. masses --     10.1960                 4.2553                 8.5799
 Frc consts  --      2.3801                 0.0010                 0.0028
 IR Inten    --    202.7000                 1.1696                 0.5861

                      4                      5                      6
                      A                      A                      A
 Frequencies --     39.4491                48.2091                51.9551
 Red. masses --      5.6680                 5.3393                 4.1588
 Frc consts  --      0.0052                 0.0073                 0.0066
 IR Inten    --      0.4111                 0.4698                 1.4511

                      7                      8                      9
                      A                      A                      A
 Frequencies --     55.1763                66.2887                70.4281
 Red. masses --      3.1566                 5.9368                 5.6684
 Frc consts  --      0.0057                 0.0154                 0.0166
 IR Inten    --      1.0353                 0.8442                 2.2523

                     10                     11                     12
                      A                      A                      A
 Frequencies --     84.5587                92.1523               102.8960
 Red. masses --     12.0472                 6.5716                 9.4834
 Frc consts  --      0.0508                 0.0329                 0.0592
 IR Inten    --      1.0490                 1.1184                 0.6508

                     13                     14                     15
                      A                      A                      A
 Frequencies --    111.1601               114.4586               120.8919
 Red. masses --      9.4404                 3.3149                16.5265
 Frc consts  --      0.0687                 0.0256                 0.1423
 IR Inten    --      6.9178                 0.3513                 0.9264

                     16                     17                     18
                      A                      A                      A
 Frequencies --    132.4514               149.5497               172.5384
 Red. masses --      7.2928                 4.1281                 2.0969
 Frc consts  --      0.0754                 0.0544                 0.0368
 IR Inten    --      2.8836                 1.1982                 2.2900

                     19                     20                     21
                      A                      A                      A
 Frequencies --    175.2123               186.3431               199.4506
 Red. masses --      1.3901                 2.8065                 2.3821
 Frc consts  --      0.0251                 0.0574                 0.0558
 IR Inten    --      4.6460                 5.7191                 2.1010

                     22                     23                     24
                      A                      A                      A
 Frequencies --    213.3419               217.6820               234.1311
 Red. masses --      2.7744                 1.6220                 2.6977
 Frc consts  --      0.0744                 0.0453                 0.0871
 IR Inten    --      1.4760                 2.4753                 8.2361

                     25                     26                     27
                      A                      A                      A
 Frequencies --    244.9466               260.7300               294.1792
 Red. masses --      3.0130                 1.8305                 4.3186
 Frc consts  --      0.1065                 0.0733                 0.2202
 IR Inten    --     21.8246                 6.2972                 1.8462

                     28                     29                     30
                      A                      A                      A
 Frequencies --    309.1374               319.7785               334.3898
 Red. masses --      4.0898                 2.7593                26.8226
 Frc consts  --      0.2303                 0.1662                 1.7671
 IR Inten    --     42.0723                21.3982                41.9849

                     31                     32                     33
                      A                      A                      A
 Frequencies --    356.9695               375.7005               377.3867
 Red. masses --      6.9861                 5.3744                 9.0304
 Frc consts  --      0.5245                 0.4470                 0.7578
 IR Inten    --      3.4376                31.5279                58.9398

                     34                     35                     36
                      A                      A                      A
 Frequencies --    392.2049               406.7448               411.5971
 Red. masses --     26.8098                 3.1473                 2.9179
 Frc consts  --      2.4298                 0.3068                 0.2912
 IR Inten    --     77.1066                10.4249                 4.7284

                     37                     38                     39
                      A                      A                      A
 Frequencies --    425.8690               448.5452               464.6453
 Red. masses --      3.4165                 4.3086                 3.5721
 Frc consts  --      0.3651                 0.5107                 0.4544
 IR Inten    --     28.8683                29.4612                 6.0082

                     40                     41                     42
                      A                      A                      A
 Frequencies --    504.0219               522.1183               575.4154
 Red. masses --      2.5766                 3.1911                 3.2344
 Frc consts  --      0.3856                 0.5125                 0.6310
 IR Inten    --      2.9099                 3.6132                44.4495

                     43                     44                     45
                      A                      A                      A
 Frequencies --    606.4200               627.6158               650.1386
 Red. masses --      3.4298                 6.0838                 4.9173
 Frc consts  --      0.7431                 1.4119                 1.2246
 IR Inten    --     27.8784                 2.7190                53.6756

                     46                     47                     48
                      A                      A                      A
 Frequencies --    697.9785               706.8777               763.3360
 Red. masses --      1.9592                 3.1864                 3.4008
 Frc consts  --      0.5624                 0.9381                 1.1675
 IR Inten    --     22.9177                59.1899                14.0236

                     49                     50                     51
                      A                      A                      A
 Frequencies --    765.6954               797.5737               804.6093
 Red. masses --      2.9690                 2.7622                 1.1976
 Frc consts  --      1.0256                 1.0353                 0.4568
 IR Inten    --      0.7303                 2.1683                 3.3698

                     52                     53                     54
                      A                      A                      A
 Frequencies --    829.7012               842.7155               859.0808
 Red. masses --      4.1944                 1.2636                 1.3155
 Frc consts  --      1.7012                 0.5287                 0.5720
 IR Inten    --     20.2966                 0.5949                 2.0776

                     55                     56                     57
                      A                      A                      A
 Frequencies --    860.8298               874.6953               913.9074
 Red. masses --      2.1880                 2.1372                 2.2293
 Frc consts  --      0.9553                 0.9634                 1.0970
 IR Inten    --     14.3513                16.5483                10.4361

                     58                     59                     60
                      A                      A                      A
 Frequencies --    933.6421               946.3859               967.6256
 Red. masses --      1.4502                 1.5588                 2.3270
 Frc consts  --      0.7448                 0.8226                 1.2837
 IR Inten    --      3.2024                 4.9088                35.8293

                     61                     62                     63
                      A                      A                      A
 Frequencies --    983.7006               987.3263              1000.0928
 Red. masses --      1.4093                 2.0336                 1.7365
 Frc consts  --      0.8035                 1.1680                 1.0233
 IR Inten    --      4.2711                26.0966                 2.6151

                     64                     65                     66
                      A                      A                      A
 Frequencies --   1002.6629              1006.8608              1013.8369
 Red. masses --      2.4492                 2.6864                 1.4245
 Frc consts  --      1.4507                 1.6046                 0.8627
 IR Inten    --      9.1155                 4.0826                 2.7963

                     67                     68                     69
                      A                      A                      A
 Frequencies --   1025.1740              1042.0372              1045.1352
 Red. masses --      2.0058                 2.8677                 2.4794
 Frc consts  --      1.2420                 1.8346                 1.5956
 IR Inten    --    126.5522                 8.9253                17.2327

                     70                     71                     72
                      A                      A                      A
 Frequencies --   1065.6712              1077.8632              1098.1774
 Red. masses --      2.2172                 2.0708                 1.9643
 Frc consts  --      1.4835                 1.4175                 1.3958
 IR Inten    --      6.0932                34.1555                55.7767

                     73                     74                     75
                      A                      A                      A
 Frequencies --   1119.6682              1133.0633              1134.1908
 Red. masses --      2.3237                 2.2104                 2.2700
 Frc consts  --      1.7164                 1.6720                 1.7205
 IR Inten    --     26.1623                 8.1228                24.1374

                     76                     77                     78
                      A                      A                      A
 Frequencies --   1161.1349              1170.5212              1174.7899
 Red. masses --      1.6360                 1.5729                 1.0886
 Frc consts  --      1.2996                 1.2698                 0.8852
 IR Inten    --     35.6118                 3.9477                 0.4863

                     79                     80                     81
                      A                      A                      A
 Frequencies --   1201.4913              1208.7264              1230.4551
 Red. masses --      1.2058                 1.5602                 2.2335
 Frc consts  --      1.0255                 1.3430                 1.9924
 IR Inten    --     17.8048                56.8198               196.8782

                     82                     83                     84
                      A                      A                      A
 Frequencies --   1248.0241              1256.7641              1285.8048
 Red. masses --      2.2439                 2.0649                 1.1154
 Frc consts  --      2.0592                 1.9216                 1.0865
 IR Inten    --     76.5278                77.5920                 1.8573

                     85                     86                     87
                      A                      A                      A
 Frequencies --   1317.3205              1319.6345              1328.9561
 Red. masses --      1.4183                 1.4327                 1.5247
 Frc consts  --      1.4501                 1.4700                 1.5866
 IR Inten    --     33.1893                19.9936                 8.2163

                     88                     89                     90
                      A                      A                      A
 Frequencies --   1330.7333              1348.0509              1358.7895
 Red. masses --      1.7641                 1.5995                 3.1811
 Frc consts  --      1.8406                 1.7126                 3.4604
 IR Inten    --     34.0471               105.4377                 2.2061

                     91                     92                     93
                      A                      A                      A
 Frequencies --   1364.5581              1383.2245              1387.2510
 Red. masses --      1.4292                 1.3362                 1.4574
 Frc consts  --      1.5679                 1.5063                 1.6525
 IR Inten    --     22.5377                42.0567                62.9958

                     94                     95                     96
                      A                      A                      A
 Frequencies --   1391.8474              1416.7025              1422.0275
 Red. masses --      1.3002                 1.4366                 1.2967
 Frc consts  --      1.4840                 1.6987                 1.5449
 IR Inten    --     47.5725                 6.9081                46.0600

                     97                     98                     99
                      A                      A                      A
 Frequencies --   1440.5715              1467.0613              1473.4050
 Red. masses --      1.1511                 1.9613                 1.0386
 Frc consts  --      1.4075                 2.4871                 1.3285
 IR Inten    --      1.1223                 9.4871                 5.5703

                    100                    101                    102
                      A                      A                      A
 Frequencies --   1474.8227              1482.1772              1488.3061
 Red. masses --      1.3010                 1.3634                 1.1615
 Frc consts  --      1.6673                 1.7647                 1.5159
 IR Inten    --     27.8483                48.1462                 2.0091

                    103                    104                    105
                      A                      A                      A
 Frequencies --   1488.7194              1499.5769              1507.4903
 Red. masses --      1.0555                 1.1348                 1.0846
 Frc consts  --      1.3783                 1.5035                 1.4523
 IR Inten    --      5.4329                 8.3591                 6.8257

                    106                    107                    108
                      A                      A                      A
 Frequencies --   1513.3424              1516.8678              1617.5805
 Red. masses --      1.1673                 1.9782                 5.5837
 Frc consts  --      1.5751                 2.6818                 8.6080
 IR Inten    --      5.7463                 0.9295                 0.3466

                    109                    110                    111
                      A                      A                      A
 Frequencies --   1640.0979              1762.5658              2995.3588
 Red. masses --      5.6626                11.6794                 1.0527
 Frc consts  --      8.9744                21.3777                 5.5649
 IR Inten    --     10.4546               238.5409                 4.2815

                    112                    113                    114
                      A                      A                      A
 Frequencies --   3005.3461              3041.3141              3056.2770
 Red. masses --      1.0517                 1.0362                 1.0622
 Frc consts  --      5.5967                 5.6470                 5.8460
 IR Inten    --      6.2773                19.9006                24.1012

                    115                    116                    117
                      A                      A                      A
 Frequencies --   3058.9491              3068.0756              3071.5017
 Red. masses --      1.0596                 1.0772                 1.0689
 Frc consts  --      5.8417                 5.9742                 5.9413
 IR Inten    --     16.3471                12.8635                14.3377

                    118                    119                    120
                      A                      A                      A
 Frequencies --   3097.8820              3099.3421              3107.7470
 Red. masses --      1.1021                 1.0799                 1.1053
 Frc consts  --      6.2317                 6.1121                 6.2898
 IR Inten    --      8.1632                 2.5268                10.1905

                    121                    122                    123
                      A                      A                      A
 Frequencies --   3115.8970              3116.7535              3119.5918
 Red. masses --      1.0822                 1.1020                 1.0984
 Frc consts  --      6.1905                 6.3074                 6.2980
 IR Inten    --      4.7659                17.6759                14.4499

                    124                    125                    126
                      A                      A                      A
 Frequencies --   3140.0894              3148.7399              3158.5999
 Red. masses --      1.1040                 1.0885                 1.1069
 Frc consts  --      6.4138                 6.3585                 6.5062
 IR Inten    --     13.5469                 6.6939                 0.5767

                    127                    128                    129
                      A                      A                      A
 Frequencies --   3171.5297              3174.6768              3183.3505
 Red. masses --      1.0856                 1.1050                 1.0908
 Frc consts  --      6.4339                 6.5619                 6.5127
 IR Inten    --      0.1654                 2.4228                 7.9331

                    130                    131                    132
                      A                      A                      A
 Frequencies --   3194.3261              3217.0529              3232.9665
 Red. masses --      1.0967                 1.0924                 1.0917
 Frc consts  --      6.5932                 6.6609                 6.7230
 IR Inten    --     16.5515                 2.8386                 2.0654

 - Thermochemistry -
 -------------------
 Temperature   298.150 Kelvin.  Pressure   1.00000 Atm.
 Atom     1 has atomic number  6 and mass  12.00000

 Molecular mass:   434.99839 amu.
 Principal axes and moments of inertia in atomic units:
                           1         2         3
     Eigenvalues --  8909.86093********************
           X            0.99806   0.05906   0.01990
           Y           -0.05945   0.99805   0.01918
           Z           -0.01873  -0.02033   0.99962
 This molecule is an asymmetric top.
 Rotational symmetry number  1.
 Warning -- assumption of classical behavior for rotation
           may cause significant error
 Rotational temperatures (Kelvin)      0.00972     0.00786     0.00688
 Rotational constants (GHZ):           0.20256     0.16383     0.14343
    1 imaginary frequencies ignored.
 Zero-point vibrational energy     939934.2 (Joules/Mol)
                                  224.64966 (Kcal/Mol)
 Warning -- explicit consideration of  42 degrees of freedom as
           vibrations may cause significant error
 Vibrational temperatures:     28.09    33.73    56.76    69.36    74.75
          (Kelvin)             79.39    95.37   101.33   121.66   132.59
                              148.04   159.93   164.68   173.94   190.57
                              215.17   248.24   252.09   268.11   286.96
                              306.95   313.20   336.86   352.42   375.13
                              423.26   444.78   460.09   481.11   513.60
                              540.55   542.98   564.30   585.21   592.20
                              612.73   645.36   668.52   725.18   751.21
                              827.89   872.50   903.00   935.40  1004.24
                             1017.04  1098.27  1101.66  1147.53  1157.65
                             1193.76  1212.48  1236.03  1238.54  1258.49
                             1314.91  1343.30  1361.64  1392.20  1415.33
                             1420.54  1438.91  1442.61  1448.65  1458.69
                             1475.00  1499.26  1503.72  1533.26  1550.80
                             1580.03  1610.95  1630.23  1631.85  1670.61
                             1684.12  1690.26  1728.68  1739.09  1770.35
                             1795.63  1808.20  1849.99  1895.33  1898.66
                             1912.07  1914.63  1939.54  1955.00  1963.29
                             1990.15  1995.94  2002.56  2038.32  2045.98
                             2072.66  2110.77  2119.90  2121.94  2132.52
                             2141.34  2141.94  2157.56  2168.94  2177.36
                             2182.43  2327.34  2359.74  2535.94  4309.65
                             4324.02  4375.77  4397.30  4401.15  4414.28
                             4419.21  4457.16  4459.26  4471.35  4483.08
                             4484.31  4488.40  4517.89  4530.33  4544.52
                             4563.12  4567.65  4580.13  4595.92  4628.62
                             4651.52

 Zero-point correction=                           0.358002 (Hartree/Particle)
 Thermal correction to Energy=                    0.385381
 Thermal correction to Enthalpy=                  0.386326
 Thermal correction to Gibbs Free Energy=         0.296037
 Sum of electronic and zero-point Energies=          -3531.043944
 Sum of electronic and thermal Energies=             -3531.016564
 Sum of electronic and thermal Enthalpies=           -3531.015620
 Sum of electronic and thermal Free Energies=        -3531.105909

                     E (Thermal)             CV                S
                      KCal/Mol        Cal/Mol-Kelvin    Cal/Mol-Kelvin
 Total                  241.830             97.935            190.028
 Electronic               0.000              0.000              3.561
 Translational            0.889              2.981             44.100
 Rotational               0.889              2.981             35.467
 Vibrational            240.053             91.973            106.901
 Vibration     1          0.593              1.986              6.682
 Vibration     2          0.593              1.985              6.319
 Vibration     3          0.594              1.981              5.287
 Vibration     4          0.595              1.978              4.890
 Vibration     5          0.596              1.977              4.742
 Vibration     6          0.596              1.976              4.623
 Vibration     7          0.598              1.970              4.261
 Vibration     8          0.598              1.968              4.141
 Vibration     9          0.601              1.960              3.782
 Vibration    10          0.602              1.955              3.614
 Vibration    11          0.605              1.947              3.399
 Vibration    12          0.607              1.940              3.249
 Vibration    13          0.607              1.937              3.192
 Vibration    14          0.609              1.932              3.086
 Vibration    15          0.613              1.921              2.910
 Vibration    16          0.618              1.903              2.678
 Vibration    17          0.626              1.876              2.408
 Vibration    18          0.627              1.873              2.379
 Vibration    19          0.632              1.859              2.264
 Vibration    20          0.638              1.841              2.138
 Vibration    21          0.644              1.821              2.015
 Vibration    22          0.646              1.814              1.978
 Vibration    23          0.654              1.789              1.847
 Vibration    24          0.660              1.771              1.767
 Vibration    25          0.669              1.745              1.657
 Vibration    26          0.689              1.685              1.450
 Vibration    27          0.698              1.656              1.367
 Vibration    28          0.706              1.636              1.311
 Vibration    29          0.716              1.607              1.239
 Vibration    30          0.732              1.561              1.135
 Vibration    31          0.747              1.522              1.056
 Vibration    32          0.748              1.518              1.050
 Vibration    33          0.760              1.487              0.992
 Vibration    34          0.772              1.456              0.938
 Vibration    35          0.776              1.445              0.921
 Vibration    36          0.788              1.414              0.872
 Vibration    37          0.808              1.364              0.800
 Vibration    38          0.822              1.328              0.753
 Vibration    39          0.859              1.241              0.648
 Vibration    40          0.877              1.201              0.605
 Vibration    41          0.932              1.084              0.494
 Vibration    42          0.965              1.018              0.439

 Optimization completed.
    -- Stationary point found.
 Normal termination of Gaussian 16 at Sun Jun 20 07:39:24 2021.

 ----------------------------------------------------------------------
 #p ub3lyp jul-cc-pvdz pop=cm5 scrf=(pcm,solvent=dichloroethane) guess=
 read geom=allcheck
 ----------------------------------------------------------------------

 Structure from the checkpoint file:  "checkpoint.chk"
 -----
 title
 -----
 Charge =  0 Multiplicity = 6

 SCF Done:  E(UB3LYP) =  -3531.42485586     A.U. after   19 cycles
 Normal termination of Gaussian 16 at Sun Jun 20 08:01:11 2021.
 Gaussian 16:  ES64L-G16RevA.03 25-Dec-2016

 ----------------------------------------------------------------------
 #p ub3lyp jul-cc-pvdz pop=cm5 scrf=(pcm,solvent=water) guess=read geom
 =allcheck
 ----------------------------------------------------------------------

 Structure from the checkpoint file:  "checkpoint.chk"
 -----
 title
 -----
 Charge =  0 Multiplicity = 6

                         Standard orientation:
 ---------------------------------------------------------------------
 Center     Atomic      Atomic             Coordinates (Angstroms)
 Number     Number       Type             X           Y           Z
 ---------------------------------------------------------------------
      1          6           0        3.065888   -1.054846    0.521335
      2          6           0        1.688459   -0.869194    0.759154
      3          6           0        1.252581   -0.697801    2.084954
      4          6           0        2.167568   -0.703994    3.141670
      5          6           0        3.528385   -0.894161    2.894444
      6          6           0        3.973790   -1.068778    1.577621
      7          6           0        0.694433   -0.864185   -0.364147
      8          6           0        1.044489   -0.095962   -1.677208
      9          6           0        1.651382   -1.068205   -2.700498
     10          6           0        0.850819   -2.378949   -2.587855
     11          6           0        0.585736   -2.608006   -1.110655
     12          6           0       -0.750426   -2.731028   -0.556279
     13          6           0       -1.976576   -2.610913   -1.385017
     14          8           0       -0.626776   -0.728813    0.064887
     15         26           0       -1.987090    0.589983    0.371093
     16         17           0       -2.525815    1.404240   -1.627723
     17          6           0       -0.900097   -3.340617    0.789909
     18         17           0       -1.355262    2.106700    1.847304
     19         17           0       -3.639141   -0.655447    1.222431
     20          1           0        0.197977   -0.529646    2.285454
     21          1           0        1.809592   -0.553402    4.160901
     22          1           0        4.242069   -0.901481    3.719750
     23          1           0        5.035803   -1.209593    1.372492
     24          1           0        3.439244   -1.178498   -0.492811
     25          1           0        0.078830    0.275047   -2.045697
     26          6           0        1.932513    1.127745   -1.454681
     27          1           0        1.610755   -0.644616   -3.712590
     28          1           0        2.712184   -1.233958   -2.475324
     29          1           0       -0.085224   -2.290955   -3.153078
     30          1           0        1.405848   -3.221495   -3.022952
     31          1           0        1.333555   -3.201615   -0.581022
     32          1           0       -1.034757   -4.425235    0.618419
     33          1           0       -0.003993   -3.212035    1.406678
     34          1           0       -1.791038   -2.965870    1.305732
     35          1           0       -2.116645   -3.600698   -1.860104
     36          1           0       -2.857129   -2.394404   -0.771788
     37          1           0       -1.889161   -1.870709   -2.184686
     38          8           0        1.238595    2.126938   -0.897057
     39          8           0        3.105424    1.190305   -1.763059
     40          6           0        1.966005    3.363352   -0.632469
     41          6           0        0.951336    4.437139   -0.299488
     42          1           0        2.658509    3.170571    0.198769
     43          1           0        2.560180    3.606081   -1.522549
     44          1           0        1.481528    5.375389   -0.079872
     45          1           0        0.273123    4.611007   -1.146026
     46          1           0        0.351167    4.156161    0.574794
 ---------------------------------------------------------------------

 SCF Done:  E(UB3LYP) =  -3531.42934652     A.U. after   15 cycles

 The electronic state is 6-A.
 Alpha  occ. eigenvalues -- -256.20046-101.51965-101.51916-101.51848 -30.19432
 Alpha  occ. eigenvalues --  -26.04738 -26.04667 -26.04590 -19.20360 -19.16746
 Alpha  occ. eigenvalues --  -19.15281 -10.33035 -10.31150 -10.30971 -10.24770
 Alpha  occ. eigenvalues --  -10.22609 -10.22122 -10.21700 -10.21007 -10.20962
 Alpha  occ. eigenvalues --  -10.20605 -10.20533 -10.20429 -10.20377 -10.20265
 Alpha  occ. eigenvalues --  -10.20241 -10.20024 -10.18442  -9.43698  -9.43631
 Alpha  occ. eigenvalues --   -9.43564  -7.19559  -7.19495  -7.19431  -7.19244
 Alpha  occ. eigenvalues --   -7.19240  -7.19180  -7.19170  -7.19107  -7.19102
 Alpha  occ. eigenvalues --   -3.67132  -2.44656  -2.44440  -2.44347  -1.12195
 Alpha  occ. eigenvalues --   -1.04012  -1.03669  -0.87630  -0.87078  -0.83978
 Alpha  occ. eigenvalues --   -0.79934  -0.79243  -0.79117  -0.78717  -0.77900
 Alpha  occ. eigenvalues --   -0.76161  -0.75068  -0.73460  -0.71187  -0.66442
 Alpha  occ. eigenvalues --   -0.64358  -0.62015  -0.61387  -0.59253  -0.56991
 Alpha  occ. eigenvalues --   -0.55976  -0.54359  -0.52635  -0.51303  -0.50633
 Alpha  occ. eigenvalues --   -0.50090  -0.49415  -0.48713  -0.47877  -0.47685
 Alpha  occ. eigenvalues --   -0.47454  -0.47200  -0.46681  -0.46452  -0.45960
 Alpha  occ. eigenvalues --   -0.44592  -0.44380  -0.43848  -0.43199  -0.42879
 Alpha  occ. eigenvalues --   -0.42467  -0.41687  -0.40931  -0.40021  -0.39995
 Alpha  occ. eigenvalues --   -0.39823  -0.38910  -0.38158  -0.37618  -0.37088
 Alpha  occ. eigenvalues --   -0.36734  -0.36592  -0.36144  -0.35830  -0.35603
 Alpha  occ. eigenvalues --   -0.34433  -0.34193  -0.33618  -0.32040  -0.31869
 Alpha  occ. eigenvalues --   -0.30865  -0.30797  -0.30490  -0.30315  -0.29759
 Alpha  occ. eigenvalues --   -0.29453  -0.29060  -0.28415  -0.26955  -0.25202
 Alpha virt. eigenvalues --   -0.11540  -0.03132  -0.02821  -0.01517  -0.01260
 Alpha virt. eigenvalues --   -0.00145  -0.00027   0.00040   0.01483   0.01630
 Alpha virt. eigenvalues --    0.01829   0.01945   0.02510   0.03361   0.03676

  Beta  occ. eigenvalues -- -256.19861-101.51788-101.51744-101.51680 -30.10511
  Beta  occ. eigenvalues --  -25.97281 -25.97209 -25.97196 -19.20360 -19.16100
  Beta  occ. eigenvalues --  -19.15278 -10.33036 -10.31162 -10.30959 -10.24770
  Beta  occ. eigenvalues --  -10.22547 -10.22109 -10.21685 -10.21004 -10.20961
  Beta  occ. eigenvalues --  -10.20603 -10.20532 -10.20430 -10.20377 -10.20266
  Beta  occ. eigenvalues --  -10.20243 -10.20021 -10.18441  -9.43525  -9.43462
  Beta  occ. eigenvalues --   -9.43400  -7.19272  -7.19207  -7.19142  -7.19007
  Beta  occ. eigenvalues --   -7.18998  -7.18949  -7.18946  -7.18888  -7.18884
  Beta  occ. eigenvalues --   -3.46325  -2.22643  -2.22553  -2.22459  -1.12192
  Beta  occ. eigenvalues --   -1.03665  -1.02770  -0.87504  -0.87011  -0.83936
  Beta  occ. eigenvalues --   -0.78822  -0.78732  -0.78032  -0.77937  -0.77792
  Beta  occ. eigenvalues --   -0.76155  -0.75024  -0.73449  -0.71035  -0.66335
  Beta  occ. eigenvalues --   -0.64313  -0.61976  -0.61353  -0.59000  -0.56806
  Beta  occ. eigenvalues --   -0.55622  -0.54262  -0.51769  -0.51239  -0.50222
  Beta  occ. eigenvalues --   -0.50055  -0.48790  -0.48022  -0.47779  -0.46830
  Beta  occ. eigenvalues --   -0.45673  -0.44599  -0.43812  -0.43233  -0.42901
  Beta  occ. eigenvalues --   -0.42422  -0.41689  -0.40899  -0.40024  -0.39972
  Beta  occ. eigenvalues --   -0.39808  -0.38893  -0.37923  -0.37707  -0.37401
  Beta  occ. eigenvalues --   -0.36826  -0.36538  -0.36082  -0.35875  -0.35695
  Beta  occ. eigenvalues --   -0.35502  -0.35455  -0.34394  -0.33019  -0.32775
  Beta  occ. eigenvalues --   -0.32307  -0.32093  -0.31782  -0.31108  -0.30168
  Beta  occ. eigenvalues --   -0.29406  -0.29040  -0.28630  -0.26946  -0.25355
  Beta virt. eigenvalues --   -0.14101  -0.13639  -0.12856  -0.12651  -0.11916
  Beta virt. eigenvalues --   -0.11162  -0.03046  -0.02804  -0.01440  -0.01208
  Beta virt. eigenvalues --   -0.00101   0.00008   0.00066   0.01503   0.01648

 Mulliken charges and spin densities:
               1          2
     1  C    0.155871   0.002833
     2  C    2.668667  -0.003299
     3  C   -0.356617  -0.009808
     4  C    0.030357   0.003794
     5  C    0.261078   0.001310
     6  C   -0.103072  -0.000196
     7  C   -2.108158  -0.000710
     8  C    0.381728   0.010834
     9  C    0.498640   0.003396
    10  C    0.617015  -0.001302
    11  C    0.746304   0.043835
    12  C   -0.610642  -0.011726
    13  C    0.340328   0.001124
    14  O   -0.507618   0.205517
    15  Fe   0.661956   4.053711
    16  Cl  -0.539997   0.226160
    17  C    0.359872  -0.001343
    18  Cl  -0.491531   0.241772
    19  Cl  -0.536007   0.227295
    20  H   -0.244865   0.002535
    21  H   -0.161686   0.000006
    22  H   -0.162507  -0.000019
    23  H   -0.158239   0.000172
    24  H   -0.242673  -0.000083
    25  H   -0.200179  -0.000211
    26  C    0.857471   0.000930
    27  H   -0.135219   0.000237
    28  H   -0.021904   0.000004
    29  H   -0.084607   0.000055
    30  H   -0.112105   0.001256
    31  H   -0.247290  -0.000214
    32  H    0.055088   0.000773
    33  H    0.057150  -0.000051
    34  H    0.043180  -0.000545
    35  H    0.048335  -0.000442
    36  H    0.035378  -0.000200
    37  H    0.085364  -0.000615
    38  O   -0.678687   0.002471
    39  O   -0.643585   0.001219
    40  C    0.432840   0.000815
    41  C    0.038956  -0.001150
    42  H   -0.035919   0.000051
    43  H   -0.037035   0.000042
    44  H   -0.007333   0.000032
    45  H    0.023705   0.000046
    46  H    0.028189  -0.000312
 Sum of Mulliken charges =  -0.00000   5.00000

 Dipole moment (field-independent basis, Debye):
    X=              7.0393    Y=            -10.8829    Z=             -2.8376  Tot=             13.2680
 Quadrupole moment (field-independent basis, Debye-Ang):
   XX=           -199.7153   YY=           -148.7542   ZZ=           -172.8328
   XY=              9.6976   XZ=             13.0961   YZ=              6.2842

 Normal termination of Gaussian 16 at Sun Jun 20 08:18:32 2021.
