 Gaussian 16, Revision A.03,

 -----------------------------------------------------------
 #p opt=modredundant freq=noraman ub3lyp jul-cc-pvdz pop=cm5
 -----------------------------------------------------------

 -----
 title
 -----
 Symbolic Z-matrix:
 Charge =  0 Multiplicity = 6

 SCF Done:  E(UB3LYP) =  -3531.40800069     A.U. after   26 cycles
 SCF Done:  E(UB3LYP) =  -3531.40805407     A.U. after   16 cycles
 SCF Done:  E(UB3LYP) =  -3531.40781264     A.U. after   16 cycles
 SCF Done:  E(UB3LYP) =  -3531.40848007     A.U. after   15 cycles
 SCF Done:  E(UB3LYP) =  -3531.40852346     A.U. after   16 cycles
 SCF Done:  E(UB3LYP) =  -3531.40856671     A.U. after   15 cycles
 SCF Done:  E(UB3LYP) =  -3531.40859937     A.U. after   15 cycles
 SCF Done:  E(UB3LYP) =  -3531.40860628     A.U. after   13 cycles
 SCF Done:  E(UB3LYP) =  -3531.40860936     A.U. after   13 cycles
 SCF Done:  E(UB3LYP) =  -3531.40860989     A.U. after   11 cycles
 SCF Done:  E(UB3LYP) =  -3531.40861038     A.U. after   11 cycles
 SCF Done:  E(UB3LYP) =  -3531.40861063     A.U. after   11 cycles
 SCF Done:  E(UB3LYP) =  -3531.40861122     A.U. after   11 cycles
 SCF Done:  E(UB3LYP) =  -3531.40861137     A.U. after   11 cycles
 SCF Done:  E(UB3LYP) =  -3531.40861149     A.U. after   10 cycles
 SCF Done:  E(UB3LYP) =  -3531.40861165     A.U. after    9 cycles
 SCF Done:  E(UB3LYP) =  -3531.40861167     A.U. after   10 cycles
 Optimization completed.
    -- Stationary point found.
 Normal termination of Gaussian 16 at Sun Jun 20 04:57:52 2021.

 ----------------------------------------------------------------------
 #P Geom=AllCheck Guess=TCheck SCRF=Check GenChk UB3LYP/Jul-CC-pVDZ Fre
 q
 ----------------------------------------------------------------------

 Structure from the checkpoint file:  "checkpoint.chk"
 -----
 title
 -----
 Charge =  0 Multiplicity = 6

 SCF Done:  E(UB3LYP) =  -3531.40861167     A.U. after    2 cycles

  Exact polarizability: 291.722  -2.204 309.449  23.252  10.831 282.131
 Approx polarizability: 427.887  -5.238 489.297  42.860  15.919 446.157

 ******    1 imaginary frequencies (negative Signs) ******

                      1                      2                      3
                      A                      A                      A
 Frequencies --   -278.3281                24.8363                28.9437
 Red. masses --      8.1184                 8.2285                 5.0662
 Frc consts  --      0.3705                 0.0030                 0.0025
 IR Inten    --    171.2113                 0.1210                 1.5430

                      4                      5                      6
                      A                      A                      A
 Frequencies --     32.2126                50.7065                57.2579
 Red. masses --      6.0824                 5.5925                 3.9124
 Frc consts  --      0.0037                 0.0085                 0.0076
 IR Inten    --      0.5122                 2.5918                 0.7230

                      7                      8                      9
                      A                      A                      A
 Frequencies --     65.4227                69.1431                76.7817
 Red. masses --      3.3022                 3.8159                 6.7759
 Frc consts  --      0.0083                 0.0107                 0.0235
 IR Inten    --      0.2447                 0.9566                 0.8669

                     10                     11                     12
                      A                      A                      A
 Frequencies --     84.4902                93.8699               102.9556
 Red. masses --      8.9890                10.4895                 7.1494
 Frc consts  --      0.0378                 0.0545                 0.0446
 IR Inten    --      1.4659                 0.5583                 1.0230

                     13                     14                     15
                      A                      A                      A
 Frequencies --    112.7936               119.0588               123.1624
 Red. masses --     10.5808                 4.1803                 5.8006
 Frc consts  --      0.0793                 0.0349                 0.0518
 IR Inten    --      0.9020                 4.4437                11.0655

                     16                     17                     18
                      A                      A                      A
 Frequencies --    131.0667               143.6641               159.6136
 Red. masses --      7.4061                 3.3748                 2.4039
 Frc consts  --      0.0750                 0.0410                 0.0361
 IR Inten    --      2.2134                 0.9368                 4.4902

                     19                     20                     21
                      A                      A                      A
 Frequencies --    168.2145               186.4251               196.1531
 Red. masses --      1.9978                 1.7221                 1.7409
 Frc consts  --      0.0333                 0.0353                 0.0395
 IR Inten    --      1.2653                 4.0581                 2.9269

                     22                     23                     24
                      A                      A                      A
 Frequencies --    203.4753               221.5708               234.5958
 Red. masses --      1.7433                 4.3806                 3.3603
 Frc consts  --      0.0425                 0.1267                 0.1090
 IR Inten    --      6.7402                11.3264                 3.8564

                     25                     26                     27
                      A                      A                      A
 Frequencies --    248.5641               261.6077               287.0263
 Red. masses --      2.4453                 1.9857                 3.7695
 Frc consts  --      0.0890                 0.0801                 0.1830
 IR Inten    --      0.8180                 0.9623                 4.8352

                     28                     29                     30
                      A                      A                      A
 Frequencies --    308.7740               334.2484               343.6945
 Red. masses --      2.7908                16.8318                 4.4552
 Frc consts  --      0.1568                 1.1079                 0.3101
 IR Inten    --      0.6953                36.1271                 8.1565

                     31                     32                     33
                      A                      A                      A
 Frequencies --    363.0243               371.2249               379.0590
 Red. masses --      3.5937                18.8934                 4.5328
 Frc consts  --      0.2790                 1.5340                 0.3837
 IR Inten    --      7.2226                59.6497                33.4342

                     34                     35                     36
                      A                      A                      A
 Frequencies --    389.0457               391.4002               407.7770
 Red. masses --     10.6519                 5.1616                 3.7242
 Frc consts  --      0.9499                 0.4659                 0.3649
 IR Inten    --     82.2903                18.3195                 4.6765

                     37                     38                     39
                      A                      A                      A
 Frequencies --    411.6209               462.5143               509.5669
 Red. masses --      2.9729                 3.6069                 2.8523
 Frc consts  --      0.2968                 0.4546                 0.4364
 IR Inten    --      1.5006                 2.7211                 1.3959

                     40                     41                     42
                      A                      A                      A
 Frequencies --    544.2448               560.5044               625.1254
 Red. masses --      3.7799                 2.4343                 5.3926
 Frc consts  --      0.6597                 0.4506                 1.2416
 IR Inten    --     25.3663                 2.4617                 6.8626

                     43                     44                     45
                      A                      A                      A
 Frequencies --    633.6873               668.3399               695.4726
 Red. masses --      4.7613                 3.4349                 4.6842
 Frc consts  --      1.1265                 0.9040                 1.3349
 IR Inten    --     19.3653                 9.0633                19.5632

                     46                     47                     48
                      A                      A                      A
 Frequencies --    706.7900               753.8364               776.2889
 Red. masses --      1.5792                 2.6211                 4.6586
 Frc consts  --      0.4648                 0.8776                 1.6541
 IR Inten    --     38.7842                24.5701                 1.5621

                     49                     50                     51
                      A                      A                      A
 Frequencies --    783.8248               791.8513               808.5878
 Red. masses --      3.1543                 3.2238                 1.1820
 Frc consts  --      1.1418                 1.1910                 0.4553
 IR Inten    --     26.3679                 8.3759                 0.1386

                     52                     53                     54
                      A                      A                      A
 Frequencies --    837.1902               843.4593               847.9836
 Red. masses --      1.3208                 1.3680                 1.7254
 Frc consts  --      0.5454                 0.5734                 0.7310
 IR Inten    --      5.9699                 6.7365                 9.8688

                     55                     56                     57
                      A                      A                      A
 Frequencies --    872.1988               912.2387               929.1294
 Red. masses --      2.6140                 2.0830                 1.7929
 Frc consts  --      1.1716                 1.0213                 0.9119
 IR Inten    --     11.0180                 6.0541                 1.3715

                     58                     59                     60
                      A                      A                      A
 Frequencies --    943.0632               957.9064               975.9987
 Red. masses --      2.2025                 3.4362                 2.3892
 Frc consts  --      1.1541                 1.8577                 1.3409
 IR Inten    --     10.8397                 5.2186                75.7357

                     61                     62                     63
                      A                      A                      A
 Frequencies --    980.7919               995.5720              1002.3712
 Red. masses --      1.3688                 1.4732                 1.3175
 Frc consts  --      0.7758                 0.8603                 0.7799
 IR Inten    --      0.7291                 1.8874                 4.3697

                     64                     65                     66
                      A                      A                      A
 Frequencies --   1003.6416              1010.3877              1019.5133
 Red. masses --      5.0328                 2.7305                 3.0275
 Frc consts  --      2.9869                 1.6423                 1.8540
 IR Inten    --      3.9303                71.8215                26.4583

                     67                     68                     69
                      A                      A                      A
 Frequencies --   1033.6788              1044.3657              1050.9012
 Red. masses --      2.9897                 2.7156                 2.6090
 Frc consts  --      1.8821                 1.7451                 1.6977
 IR Inten    --     77.8828                58.1549                 5.0860

                     70                     71                     72
                      A                      A                      A
 Frequencies --   1059.9007              1083.5675              1103.7310
 Red. masses --      2.1218                 2.2835                 2.2754
 Frc consts  --      1.4044                 1.5796                 1.6332
 IR Inten    --      2.1485                62.3273                 5.2759

                     73                     74                     75
                      A                      A                      A
 Frequencies --   1118.0562              1133.5263              1159.6215
 Red. masses --      1.7452                 2.1751                 1.6904
 Frc consts  --      1.2853                 1.6466                 1.3393
 IR Inten    --      8.3557                 6.9282                31.4627

                     76                     77                     78
                      A                      A                      A
 Frequencies --   1169.6849              1174.7071              1183.2435
 Red. masses --      1.5564                 1.0966                 1.5312
 Frc consts  --      1.2546                 0.8916                 1.2631
 IR Inten    --      2.6930                 0.5783                 6.9282

                     79                     80                     81
                      A                      A                      A
 Frequencies --   1196.6156              1208.7166              1226.6730
 Red. masses --      1.8589                 1.1513                 2.0936
 Frc consts  --      1.5683                 0.9910                 1.8561
 IR Inten    --    100.1136                 2.1382               152.5461

                     82                     83                     84
                      A                      A                      A
 Frequencies --   1250.9003              1263.1200              1282.9169
 Red. masses --      1.6922                 1.8111                 1.1054
 Frc consts  --      1.5601                 1.7025                 1.0719
 IR Inten    --     48.6453                37.6299                 1.4465

                     85                     86                     87
                      A                      A                      A
 Frequencies --   1292.7798              1307.2792              1315.6283
 Red. masses --      1.6057                 1.8675                 1.4268
 Frc consts  --      1.5811                 1.8804                 1.4551
 IR Inten    --     71.6668                22.3466                 4.0030

                     88                     89                     90
                      A                      A                      A
 Frequencies --   1321.4774              1335.0732              1356.5895
 Red. masses --      1.5978                 2.1569                 1.2536
 Frc consts  --      1.6440                 2.2651                 1.3593
 IR Inten    --     53.6247                13.6762                38.8088

                     91                     92                     93
                      A                      A                      A
 Frequencies --   1359.4356              1367.3580              1368.6809
 Red. masses --      2.0389                 1.2570                 1.2878
 Frc consts  --      2.2201                 1.3847                 1.4213
 IR Inten    --      6.0642                58.1525                 8.8685

                     94                     95                     96
                      A                      A                      A
 Frequencies --   1393.4687              1408.8511              1417.3763
 Red. masses --      1.5874                 1.2950                 1.5091
 Frc consts  --      1.8160                 1.5144                 1.7863
 IR Inten    --     62.3649                14.5559                 7.6300

                     97                     98                     99
                      A                      A                      A
 Frequencies --   1428.9611              1450.3919              1467.9275
 Red. masses --      1.2176                 1.1221                 2.2520
 Frc consts  --      1.4648                 1.3908                 2.8591
 IR Inten    --      7.9475                 1.9374                 8.7492

                    100                    101                    102
                      A                      A                      A
 Frequencies --   1474.1894              1482.0509              1487.3085
 Red. masses --      1.0388                 1.2908                 1.0967
 Frc consts  --      1.3301                 1.6704                 1.4293
 IR Inten    --      3.7014                 6.9526                 6.3498

                    103                    104                    105
                      A                      A                      A
 Frequencies --   1488.9237              1497.1379              1507.5808
 Red. masses --      1.0533                 1.1084                 1.0840
 Frc consts  --      1.3758                 1.4638                 1.4516
 IR Inten    --      0.6097                14.8133                 5.5851

                    106                    107                    108
                      A                      A                      A
 Frequencies --   1508.8295              1522.3392              1624.9183
 Red. masses --      1.1027                 2.2007                 5.6404
 Frc consts  --      1.4790                 3.0049                 8.7746
 IR Inten    --      3.0035                 4.2251                 0.7865

                    109                    110                    111
                      A                      A                      A
 Frequencies --   1646.0429              1771.2455              2976.6553
 Red. masses --      5.7769                11.6851                 1.0538
 Frc consts  --      9.2221                21.5993                 5.5013
 IR Inten    --      0.1295               217.9245                 8.9749

                    112                    113                    114
                      A                      A                      A
 Frequencies --   2998.9088              3038.6438              3058.2845
 Red. masses --      1.0465                 1.0355                 1.0583
 Frc consts  --      5.5451                 5.6332                 5.8319
 IR Inten    --     16.0173                21.8630                14.7452

                    115                    116                    117
                      A                      A                      A
 Frequencies --   3059.9024              3060.5299              3071.2337
 Red. masses --      1.0843                 1.0672                 1.0622
 Frc consts  --      5.9817                 5.8898                 5.9033
 IR Inten    --     13.9192                35.3349                22.2176

                    118                    119                    120
                      A                      A                      A
 Frequencies --   3076.2334              3093.6912              3095.7896
 Red. masses --      1.0842                 1.0996                 1.0748
 Frc consts  --      6.0448                 6.2008                 6.0693
 IR Inten    --      8.4821                 6.4484                 3.7979

                    121                    122                    123
                      A                      A                      A
 Frequencies --   3102.1319              3108.3408              3114.7632
 Red. masses --      1.1066                 1.0911                 1.1025
 Frc consts  --      6.2740                 6.2113                 6.3018
 IR Inten    --      8.6159                 5.7528                19.9858

                    124                    125                    126
                      A                      A                      A
 Frequencies --   3121.6033              3133.0822              3164.0204
 Red. masses --      1.1040                 1.1046                 1.1068
 Frc consts  --      6.3384                 6.3887                 6.5281
 IR Inten    --     23.2339                17.7713                 1.3285

                    127                    128                    129
                      A                      A                      A
 Frequencies --   3165.8235              3173.7016              3175.9518
 Red. masses --      1.0848                 1.0985                 1.0879
 Frc consts  --      6.4058                 6.5188                 6.4654
 IR Inten    --      3.2019                 5.0487                 5.2641

                    130                    131                    132
                      A                      A                      A
 Frequencies --   3184.7900              3195.0334              3204.1792
 Red. masses --      1.0927                 1.0965                 1.0949
 Frc consts  --      6.5299                 6.5950                 6.6234
 IR Inten    --     19.2524                10.0181                 6.3706

 - Thermochemistry -
 -------------------
 Temperature   298.150 Kelvin.  Pressure   1.00000 Atm.
 Atom     1 has atomic number  6 and mass  12.00000

 Molecular mass:   434.99839 amu.
 Principal axes and moments of inertia in atomic units:
                           1         2         3
     Eigenvalues --  9014.22257********************
           X            0.99742   0.06970   0.01697
           Y           -0.06982   0.99754   0.00667
           Z           -0.01646  -0.00784   0.99983
 This molecule is an asymmetric top.
 Rotational symmetry number  1.
 Warning -- assumption of classical behavior for rotation
           may cause significant error
 Rotational temperatures (Kelvin)      0.00961     0.00756     0.00687
 Rotational constants (GHZ):           0.20021     0.15750     0.14311
    1 imaginary frequencies ignored.
 Zero-point vibrational energy     941189.7 (Joules/Mol)
                                  224.94973 (Kcal/Mol)
 Warning -- explicit consideration of  40 degrees of freedom as
           vibrations may cause significant error
 Vibrational temperatures:     35.73    41.64    46.35    72.96    82.38
          (Kelvin)             94.13    99.48   110.47   121.56   135.06
                              148.13   162.28   171.30   177.20   188.58
                              206.70   229.65   242.02   268.22   282.22
                              292.76   318.79   337.53   357.63   376.40
                              412.97   444.26   480.91   494.50   522.31
                              534.11   545.38   559.75   563.14   586.70
                              592.23   665.45   733.15   783.05   806.44
                              899.42   911.73   961.59  1000.63  1016.91
                             1084.60  1116.91  1127.75  1139.30  1163.38
                             1204.53  1213.55  1220.06  1254.90  1312.51
                             1336.81  1356.86  1378.21  1404.24  1411.14
                             1432.41  1442.19  1444.02  1453.72  1466.85
                             1487.23  1502.61  1512.01  1524.96  1559.01
                             1588.02  1608.63  1630.89  1668.44  1682.92
                             1690.14  1702.42  1721.66  1739.07  1764.91
                             1799.77  1817.35  1845.83  1860.02  1880.88
                             1892.90  1901.31  1920.87  1951.83  1955.92
                             1967.32  1969.23  2004.89  2027.02  2039.29
                             2055.96  2086.79  2112.02  2121.03  2132.34
                             2139.91  2142.23  2154.05  2169.07  2170.87
                             2190.31  2337.89  2368.29  2548.43  4282.74
                             4314.76  4371.93  4400.19  4402.52  4403.42
                             4418.82  4426.01  4451.13  4454.15  4463.28
                             4472.21  4481.45  4491.29  4507.81  4552.32
                             4554.91  4566.25  4569.49  4582.20  4596.94
                             4610.10

 Zero-point correction=                           0.358480 (Hartree/Particle)
 Thermal correction to Energy=                    0.385613
 Thermal correction to Enthalpy=                  0.386557
 Thermal correction to Gibbs Free Energy=         0.297128
 Sum of electronic and zero-point Energies=          -3531.050131
 Sum of electronic and thermal Energies=             -3531.022999
 Sum of electronic and thermal Enthalpies=           -3531.022054
 Sum of electronic and thermal Free Energies=        -3531.111484

                     E (Thermal)             CV                S
                      KCal/Mol        Cal/Mol-Kelvin    Cal/Mol-Kelvin
 Total                  241.976             97.066            188.220
 Electronic               0.000              0.000              3.561
 Translational            0.889              2.981             44.100
 Rotational               0.889              2.981             35.520
 Vibrational            240.198             91.104            105.039
 Vibration     1          0.593              1.985              6.204
 Vibration     2          0.593              1.984              5.901
 Vibration     3          0.594              1.983              5.688
 Vibration     4          0.595              1.977              4.790
 Vibration     5          0.596              1.975              4.550
 Vibration     6          0.597              1.971              4.287
 Vibration     7          0.598              1.969              4.178
 Vibration     8          0.599              1.965              3.972
 Vibration     9          0.601              1.960              3.784
 Vibration    10          0.603              1.954              3.578
 Vibration    11          0.605              1.947              3.398
 Vibration    12          0.607              1.939              3.220
 Vibration    13          0.609              1.933              3.116
 Vibration    14          0.610              1.930              3.050
 Vibration    15          0.612              1.922              2.930
 Vibration    16          0.616              1.909              2.754
 Vibration    17          0.621              1.892              2.554
 Vibration    18          0.625              1.882              2.455
 Vibration    19          0.632              1.858              2.263
 Vibration    20          0.636              1.845              2.169
 Vibration    21          0.639              1.835              2.101
 Vibration    22          0.648              1.808              1.946
 Vibration    23          0.654              1.788              1.843
 Vibration    24          0.662              1.765              1.741
 Vibration    25          0.669              1.743              1.651
 Vibration    26          0.684              1.698              1.491
 Vibration    27          0.698              1.657              1.369
 Vibration    28          0.716              1.607              1.239
 Vibration    29          0.722              1.588              1.195
 Vibration    30          0.737              1.548              1.109
 Vibration    31          0.743              1.531              1.075
 Vibration    32          0.749              1.515              1.043
 Vibration    33          0.757              1.494              1.004
 Vibration    34          0.759              1.489              0.995
 Vibration    35          0.772              1.453              0.935
 Vibration    36          0.776              1.445              0.921
 Vibration    37          0.820              1.333              0.759
 Vibration    38          0.865              1.229              0.635
 Vibration    39          0.899              1.152              0.556
 Vibration    40          0.916              1.117              0.523

                           ! Non-Optimized Parameters !
 Normal termination of Gaussian 16 at Sun Jun 20 09:23:29 2021.

 ----------------------------------------------------------------------
 #p ub3lyp jul-cc-pvdz pop=cm5 scrf=(pcm,solvent=dichloroethane) guess=
 read geom=allcheck
 ----------------------------------------------------------------------

 Structure from the checkpoint file:  "checkpoint.chk"
 -----
 title
 -----
 Charge =  0 Multiplicity = 6

 SCF Done:  E(UB3LYP) =  -3531.43518624     A.U. after   19 cycles
 Normal termination of Gaussian 16 at Sun Jun 20 09:52:32 2021.
 Gaussian 16:  ES64L-G16RevA.03 25-Dec-2016

 ----------------------------------------------------------------------
 #p ub3lyp jul-cc-pvdz pop=cm5 scrf=(pcm,solvent=water) guess=read geom
 =allcheck
 ----------------------------------------------------------------------

 Structure from the checkpoint file:  "checkpoint.chk"
 -----
 title
 -----
 Charge =  0 Multiplicity = 6

                         Standard orientation:
 ---------------------------------------------------------------------
 Center     Atomic      Atomic             Coordinates (Angstroms)
 Number     Number       Type             X           Y           Z
 ---------------------------------------------------------------------
      1          6           0        2.119892   -1.804488    1.650995
      2          6           0        1.336850   -0.807322    1.049902
      3          6           0        1.249782    0.442602    1.680568
      4          6           0        1.910547    0.680354    2.887210
      5          6           0        2.680338   -0.322619    3.482414
      6          6           0        2.786485   -1.566156    2.856363
      7          6           0        0.650472   -1.029276   -0.292395
      8          6           0        1.577959   -0.672258   -1.518306
      9          6           0        2.333596   -1.968472   -1.826865
     10          6           0        1.293049   -3.094636   -1.635261
     11          6           0        0.285858   -2.558566   -0.589596
     12          6           0       -1.157059   -2.408857   -1.011874
     13          6           0       -1.573816   -2.165722   -2.405969
     14          8           0       -0.617335   -0.364145   -0.405369
     15         26           0       -1.973014    0.757765    0.327722
     16         17           0       -3.669734    0.463482   -1.111760
     17          6           0       -2.197649   -2.812537   -0.047536
     18         17           0       -1.377813    2.884861    0.443855
     19         17           0       -2.534326   -0.061100    2.318068
     20          1           0        0.664091    1.244732    1.235255
     21          1           0        1.814828    1.656244    3.364913
     22          1           0        3.192597   -0.136729    4.427438
     23          1           0        3.386846   -2.358513    3.305691
     24          1           0        2.229397   -2.785010    1.186756
     25          1           0        0.894292   -0.410360   -2.336283
     26          6           0        2.502051    0.516913   -1.303070
     27          1           0        2.765169   -1.961344   -2.835848
     28          1           0        3.168272   -2.075185   -1.122899
     29          1           0        0.796655   -3.330628   -2.585765
     30          1           0        1.755332   -4.027624   -1.288442
     31          1           0        0.306835   -3.135438    0.340175
     32          1           0       -2.210230   -3.920700   -0.096922
     33          1           0       -1.935771   -2.542532    0.982436
     34          1           0       -3.192861   -2.437560   -0.307808
     35          1           0       -1.997455   -3.113673   -2.787716
     36          1           0       -2.396382   -1.434195   -2.410279
     37          1           0       -0.765621   -1.846021   -3.067419
     38          8           0        1.864628    1.673055   -1.551061
     39          8           0        3.665547    0.432580   -0.970156
     40          6           0        2.632495    2.894284   -1.351688
     41          6           0        1.777598    4.054632   -1.817994
     42          1           0        2.884102    2.964723   -0.284616
     43          1           0        3.570227    2.806649   -1.916362
     44          1           0        2.324853    4.994896   -1.657618
     45          1           0        1.547140    3.967693   -2.889092
     46          1           0        0.834488    4.096348   -1.257861
 ---------------------------------------------------------------------

 SCF Done:  E(UB3LYP) =  -3531.44021318     A.U. after   14 cycles

 The electronic state is 6-A.
 Alpha  occ. eigenvalues -- -256.20343-101.52241-101.52037-101.52016 -30.19740
 Alpha  occ. eigenvalues --  -26.05032 -26.04998 -26.04885 -19.20263 -19.17159
 Alpha  occ. eigenvalues --  -19.15164 -10.33041 -10.32774 -10.29072 -10.24725
 Alpha  occ. eigenvalues --  -10.22945 -10.21928 -10.21899 -10.21727 -10.21374
 Alpha  occ. eigenvalues --  -10.20538 -10.20433 -10.20205 -10.20149 -10.20084
 Alpha  occ. eigenvalues --  -10.20054 -10.19807 -10.18520  -9.43966  -9.43750
 Alpha  occ. eigenvalues --   -9.43739  -7.19827  -7.19621  -7.19611  -7.19518
 Alpha  occ. eigenvalues --   -7.19503  -7.19293  -7.19287  -7.19284  -7.19271
 Alpha  occ. eigenvalues --   -3.67431  -2.44926  -2.44800  -2.44609  -1.11995
 Alpha  occ. eigenvalues --   -1.03546  -1.02750  -0.88395  -0.87234  -0.84475
 Alpha  occ. eigenvalues --   -0.80142  -0.79443  -0.79278  -0.78810  -0.77526
 Alpha  occ. eigenvalues --   -0.76059  -0.75323  -0.74410  -0.71872  -0.66463
 Alpha  occ. eigenvalues --   -0.64040  -0.62050  -0.61049  -0.59582  -0.57005
 Alpha  occ. eigenvalues --   -0.56396  -0.54736  -0.53015  -0.51335  -0.50366
 Alpha  occ. eigenvalues --   -0.49998  -0.49611  -0.48829  -0.47822  -0.47773
 Alpha  occ. eigenvalues --   -0.47631  -0.47397  -0.46963  -0.46666  -0.46274
 Alpha  occ. eigenvalues --   -0.45234  -0.44479  -0.44222  -0.43284  -0.42976
 Alpha  occ. eigenvalues --   -0.42661  -0.41757  -0.40883  -0.40729  -0.40582
 Alpha  occ. eigenvalues --   -0.39879  -0.38589  -0.38158  -0.37481  -0.37381
 Alpha  occ. eigenvalues --   -0.36861  -0.36154  -0.36007  -0.35803  -0.35685
 Alpha  occ. eigenvalues --   -0.34620  -0.34292  -0.33910  -0.32228  -0.31658
 Alpha  occ. eigenvalues --   -0.31018  -0.30937  -0.30725  -0.30525  -0.29995
 Alpha  occ. eigenvalues --   -0.29598  -0.29343  -0.28625  -0.26752  -0.26256
 Alpha virt. eigenvalues --   -0.12514  -0.03240  -0.02834  -0.01496  -0.01290
 Alpha virt. eigenvalues --   -0.00203  -0.00071   0.00101   0.01436   0.01656
 Alpha virt. eigenvalues --    0.01737   0.01827   0.02440   0.03265   0.03825

  Beta  occ. eigenvalues -- -256.20158-101.52066-101.51868-101.51839 -30.10810
  Beta  occ. eigenvalues --  -25.97585 -25.97513 -25.97488 -19.20263 -19.16476
  Beta  occ. eigenvalues --  -19.15161 -10.33047 -10.32774 -10.29042 -10.24725
  Beta  occ. eigenvalues --  -10.22924 -10.21928 -10.21895 -10.21708 -10.21364
  Beta  occ. eigenvalues --  -10.20536 -10.20431 -10.20204 -10.20148 -10.20084
  Beta  occ. eigenvalues --  -10.20055 -10.19804 -10.18519  -9.43795  -9.43584
  Beta  occ. eigenvalues --   -9.43564  -7.19542  -7.19326  -7.19308  -7.19280
  Beta  occ. eigenvalues --   -7.19270  -7.19076  -7.19065  -7.19049  -7.19045
  Beta  occ. eigenvalues --   -3.46613  -2.22945  -2.22831  -2.22743  -1.11993
  Beta  occ. eigenvalues --   -1.03542  -1.01446  -0.88163  -0.87221  -0.84419
  Beta  occ. eigenvalues --   -0.79024  -0.78823  -0.78220  -0.78079  -0.77444
  Beta  occ. eigenvalues --   -0.76048  -0.75291  -0.74402  -0.71693  -0.66381
  Beta  occ. eigenvalues --   -0.63997  -0.62020  -0.61015  -0.59388  -0.56971
  Beta  occ. eigenvalues --   -0.55894  -0.54665  -0.52024  -0.51240  -0.50295
  Beta  occ. eigenvalues --   -0.49804  -0.49111  -0.47988  -0.47558  -0.46704
  Beta  occ. eigenvalues --   -0.46272  -0.44640  -0.44245  -0.43330  -0.43022
  Beta  occ. eigenvalues --   -0.42769  -0.41710  -0.40792  -0.40748  -0.40566
  Beta  occ. eigenvalues --   -0.39872  -0.38486  -0.37972  -0.37687  -0.37330
  Beta  occ. eigenvalues --   -0.36839  -0.36528  -0.36001  -0.35869  -0.35780
  Beta  occ. eigenvalues --   -0.35609  -0.35464  -0.34586  -0.33136  -0.33029
  Beta  occ. eigenvalues --   -0.32563  -0.32081  -0.31912  -0.31559  -0.30111
  Beta  occ. eigenvalues --   -0.29628  -0.29597  -0.28569  -0.26746  -0.26210
  Beta virt. eigenvalues --   -0.14479  -0.13949  -0.13289  -0.12886  -0.12117
  Beta virt. eigenvalues --   -0.11675  -0.03167  -0.02807  -0.01398  -0.01248
  Beta virt. eigenvalues --   -0.00145  -0.00045   0.00128   0.01463   0.01676

 Mulliken charges and spin densities:
               1          2
     1  C   -0.355318   0.003724
     2  C    3.513129  -0.003003
     3  C   -0.452601  -0.011292
     4  C    0.039553   0.001727
     5  C    0.203992   0.000012
     6  C   -0.123278   0.001171
     7  C   -2.913852   0.016364
     8  C    0.427823   0.004863
     9  C    0.554307   0.001921
    10  C    0.606970   0.001111
    11  C    1.121191   0.012842
    12  C   -0.766480  -0.002869
    13  C    0.273791  -0.004366
    14  O   -0.331618   0.221157
    15  Fe   0.646561   4.047043
    16  Cl  -0.538068   0.228455
    17  C    0.430358   0.002585
    18  Cl  -0.481827   0.241400
    19  Cl  -0.504299   0.233401
    20  H   -0.306734   0.000785
    21  H   -0.165625  -0.000021
    22  H   -0.162093   0.000026
    23  H   -0.158354   0.000105
    24  H   -0.210044   0.000017
    25  H   -0.199969   0.000105
    26  C    0.926074   0.003881
    27  H   -0.146562   0.000562
    28  H   -0.056289   0.000027
    29  H   -0.084797   0.000015
    30  H   -0.101465   0.000387
    31  H   -0.196058   0.000548
    32  H    0.065858  -0.000912
    33  H    0.083629  -0.000546
    34  H    0.035833  -0.000577
    35  H    0.083885   0.001091
    36  H    0.095141  -0.000870
    37  H    0.062959  -0.000064
    38  O   -0.704190  -0.000786
    39  O   -0.651687   0.000969
    40  C    0.424921  -0.001207
    41  C    0.057207   0.000700
    42  H   -0.040910  -0.000002
    43  H   -0.048516   0.000004
    44  H   -0.005376   0.000053
    45  H    0.021829  -0.000016
    46  H    0.031003  -0.000521
 Sum of Mulliken charges =  -0.00000   5.00000

 Dipole moment (field-independent basis, Debye):
    X=              4.5083    Y=            -12.1616    Z=             -5.8159  Tot=             14.2146
 Quadrupole moment (field-independent basis, Debye-Ang):
   XX=           -204.5740   YY=           -143.9888   ZZ=           -168.0349
   XY=             19.1792   XZ=             10.7148   YZ=              8.9256

 Normal termination of Gaussian 16 at Sun Jun 20 10:13:59 2021.
