 Gaussian 16, Revision A.03,

 -----------------------------------------------------------
 #p opt=modredundant freq=noraman ub3lyp jul-cc-pvdz pop=cm5
 -----------------------------------------------------------

 -----
 title
 -----
 Symbolic Z-matrix:
 Charge =  0 Multiplicity = 6

 SCF Done:  E(UB3LYP) =  -3531.43828695     A.U. after   21 cycles
 SCF Done:  E(UB3LYP) =  -3531.43855343     A.U. after   15 cycles
 SCF Done:  E(UB3LYP) =  -3531.43804604     A.U. after   15 cycles
 SCF Done:  E(UB3LYP) =  -3531.43878361     A.U. after   15 cycles
 SCF Done:  E(UB3LYP) =  -3531.43880435     A.U. after   14 cycles
 SCF Done:  E(UB3LYP) =  -3531.43881159     A.U. after   13 cycles
 SCF Done:  E(UB3LYP) =  -3531.43881443     A.U. after   12 cycles
 SCF Done:  E(UB3LYP) =  -3531.43881510     A.U. after   11 cycles
 SCF Done:  E(UB3LYP) =  -3531.43881541     A.U. after   11 cycles
 SCF Done:  E(UB3LYP) =  -3531.43881586     A.U. after   11 cycles
 SCF Done:  E(UB3LYP) =  -3531.43881598     A.U. after   10 cycles
 Optimization completed.
    -- Stationary point found.
 Normal termination of Gaussian 16 at Sun Jun 20 02:20:47 2021.

 ----------------------------------------------------------------------
 #P Geom=AllCheck Guess=TCheck SCRF=Check GenChk UB3LYP/Jul-CC-pVDZ Fre
 q
 ----------------------------------------------------------------------

 Structure from the checkpoint file:  "checkpoint.chk"
 -----
 title
 -----
 Charge =  0 Multiplicity = 6

 SCF Done:  E(UB3LYP) =  -3531.43881598     A.U. after    1 cycles

  Exact polarizability: 278.952   4.128 290.792  23.513   0.474 283.744
 Approx polarizability: 408.249   2.764 457.066  43.813  -4.772 449.272

                      1                      2                      3
                      A                      A                      A
 Frequencies --     20.5799                23.6988                30.6325
 Red. masses --      6.9875                 5.2648                 5.7230
 Frc consts  --      0.0017                 0.0017                 0.0032
 IR Inten    --      0.2712                 0.5664                 0.1544

                      4                      5                      6
                      A                      A                      A
 Frequencies --     45.5908                48.7582                63.4688
 Red. masses --      5.0036                 4.3721                 2.4858
 Frc consts  --      0.0061                 0.0061                 0.0059
 IR Inten    --      0.7915                 1.2946                 0.4339

                      7                      8                      9
                      A                      A                      A
 Frequencies --     70.1972                76.9018                80.8372
 Red. masses --      5.0815                10.8421                 6.7528
 Frc consts  --      0.0148                 0.0378                 0.0260
 IR Inten    --      0.2233                 0.4841                 0.6269

                     10                     11                     12
                      A                      A                      A
 Frequencies --     86.7910                98.5590               114.4444
 Red. masses --     11.1681                 5.1020                15.6215
 Frc consts  --      0.0496                 0.0292                 0.1205
 IR Inten    --      1.4899                 0.6708                 1.3021

                     13                     14                     15
                      A                      A                      A
 Frequencies --    116.8455               118.0313               126.1696
 Red. masses --      8.8612                 5.1990                 4.9815
 Frc consts  --      0.0713                 0.0427                 0.0467
 IR Inten    --      4.4988                 0.1072                 2.2943

                     16                     17                     18
                      A                      A                      A
 Frequencies --    141.6867               165.1588               183.8795
 Red. masses --      3.9506                 2.7361                 4.5104
 Frc consts  --      0.0467                 0.0440                 0.0899
 IR Inten    --      3.2408                 0.7111                 9.9824

                     19                     20                     21
                      A                      A                      A
 Frequencies --    193.9191               218.5239               225.5069
 Red. masses --      3.4740                 1.9834                 1.7111
 Frc consts  --      0.0770                 0.0558                 0.0513
 IR Inten    --      2.9219                 2.8155                 3.9962

                     22                     23                     24
                      A                      A                      A
 Frequencies --    242.0792               256.7863               259.9904
 Red. masses --      2.3439                 1.8987                 1.9215
 Frc consts  --      0.0809                 0.0738                 0.0765
 IR Inten    --      0.8761                 0.6303                 0.8755

                     25                     26                     27
                      A                      A                      A
 Frequencies --    268.5492               298.0639               310.4604
 Red. masses --      1.4614                 3.2724                 2.9708
 Frc consts  --      0.0621                 0.1713                 0.1687
 IR Inten    --      1.1181                 3.5515                 0.5816

                     28                     29                     30
                      A                      A                      A
 Frequencies --    339.4608               347.9461               367.1362
 Red. masses --      4.2318                26.2199                 3.1093
 Frc consts  --      0.2873                 1.8703                 0.2469
 IR Inten    --      6.9276                33.7213                 9.0993

                     31                     32                     33
                      A                      A                      A
 Frequencies --    383.7809               397.7792               404.5969
 Red. masses --      3.3535                23.4002                 3.6950
 Frc consts  --      0.2910                 2.1815                 0.3564
 IR Inten    --      6.7920                75.2882                 5.4864

                     34                     35                     36
                      A                      A                      A
 Frequencies --    406.8245               411.3766               442.0373
 Red. masses --     33.3350                 2.9426                 4.5385
 Frc consts  --      3.2506                 0.2934                 0.5225
 IR Inten    --     80.2199                 0.1384                 8.8764

                     37                     38                     39
                      A                      A                      A
 Frequencies --    465.4080               515.8151               547.8188
 Red. masses --      3.7857                 3.2548                 3.4088
 Frc consts  --      0.4831                 0.5102                 0.6027
 IR Inten    --      9.6870                14.3587                11.8954

                     40                     41                     42
                      A                      A                      A
 Frequencies --    562.1964               590.4962               627.8222
 Red. masses --      2.6402                 5.5237                 6.2390
 Frc consts  --      0.4916                 1.1348                 1.4489
 IR Inten    --     24.7689               109.2922                 0.1158

                     43                     44                     45
                      A                      A                      A
 Frequencies --    649.2290               669.6296               706.8513
 Red. masses --      4.6068                 4.7877                 1.5521
 Frc consts  --      1.1441                 1.2649                 0.4569
 IR Inten    --     22.1602                18.8434                43.1415

                     46                     47                     48
                      A                      A                      A
 Frequencies --    715.1781               756.4661               782.5693
 Red. masses --      4.8565                 2.8331                 2.8771
 Frc consts  --      1.4635                 0.9552                 1.0381
 IR Inten    --     18.5121                19.1817                25.7396

                     49                     50                     51
                      A                      A                      A
 Frequencies --    793.9468               805.6107               813.0815
 Red. masses --      3.8246                 1.2977                 3.9368
 Frc consts  --      1.4204                 0.4962                 1.5334
 IR Inten    --     18.8894                 3.0096                51.5973

                     52                     53                     54
                      A                      A                      A
 Frequencies --    835.7438               845.8809               869.3341
 Red. masses --      2.0439                 1.2676                 2.7032
 Frc consts  --      0.8411                 0.5344                 1.2037
 IR Inten    --     28.6135                 1.0513                 9.3943

                     55                     56                     57
                      A                      A                      A
 Frequencies --    893.3829               923.8223               940.9902
 Red. masses --      2.6762                 1.6465                 1.6078
 Frc consts  --      1.2585                 0.8279                 0.8388
 IR Inten    --     83.3542                 5.0093                 6.5652

                     58                     59                     60
                      A                      A                      A
 Frequencies --    945.3091               959.3685               982.1036
 Red. masses --      1.9349                 2.2667                 1.5284
 Frc consts  --      1.0187                 1.2292                 0.8686
 IR Inten    --      5.7381                 2.2692                 1.5407

                     61                     62                     63
                      A                      A                      A
 Frequencies --    982.6891              1001.6245              1004.7680
 Red. masses --      1.7894                 1.5707                 2.8887
 Frc consts  --      1.0181                 0.9285                 1.7182
 IR Inten    --      8.0423                 3.0959                 2.0394

                     64                     65                     66
                      A                      A                      A
 Frequencies --   1008.3553              1009.6255              1028.6750
 Red. masses --      3.5687                 1.4046                 3.0270
 Frc consts  --      2.1379                 0.8436                 1.8872
 IR Inten    --      4.6590                 0.2053                 8.8920

                     67                     68                     69
                      A                      A                      A
 Frequencies --   1043.3061              1055.5792              1061.8460
 Red. masses --      2.3885                 2.0781                 2.0658
 Frc consts  --      1.5318                 1.3642                 1.3723
 IR Inten    --     41.2379                 2.8527                 4.2007

                     70                     71                     72
                      A                      A                      A
 Frequencies --   1090.8222              1105.0286              1127.3366
 Red. masses --      2.8786                 1.6392                 1.8368
 Frc consts  --      2.0181                 1.1793                 1.3754
 IR Inten    --     14.9235                 4.4980                27.5338

                     73                     74                     75
                      A                      A                      A
 Frequencies --   1132.5316              1146.1574              1168.7853
 Red. masses --      2.1612                 1.6397                 1.5669
 Frc consts  --      1.6332                 1.2692                 1.2611
 IR Inten    --      8.0158                16.8058                 7.2858

                     76                     77                     78
                      A                      A                      A
 Frequencies --   1175.6509              1189.8748              1199.6840
 Red. masses --      1.0891                 2.3307                 1.6188
 Frc consts  --      0.8869                 1.9442                 1.3727
 IR Inten    --      0.6166                61.1823                16.0932

                     79                     80                     81
                      A                      A                      A
 Frequencies --   1205.3490              1212.3636              1221.1578
 Red. masses --      2.1802                 1.2967                 1.7758
 Frc consts  --      1.8662                 1.1229                 1.5602
 IR Inten    --    112.0704                 3.9059                69.9492

                     82                     83                     84
                      A                      A                      A
 Frequencies --   1258.2352              1282.6299              1284.2628
 Red. masses --      1.8128                 1.2778                 2.0149
 Frc consts  --      1.6909                 1.2386                 1.9580
 IR Inten    --     41.6661                10.0407                37.3771

                     85                     86                     87
                      A                      A                      A
 Frequencies --   1292.3709              1305.2923              1320.8676
 Red. masses --      1.3964                 1.5480                 1.5418
 Frc consts  --      1.3741                 1.5540                 1.5849
 IR Inten    --     12.6777                18.2549                25.4232

                     88                     89                     90
                      A                      A                      A
 Frequencies --   1335.1966              1352.8320              1362.2663
 Red. masses --      1.7246                 2.2069                 1.8996
 Frc consts  --      1.8115                 2.3797                 2.0770
 IR Inten    --     15.4165                10.5455                 3.9130

                     91                     92                     93
                      A                      A                      A
 Frequencies --   1364.6454              1376.8011              1397.7439
 Red. masses --      1.4642                 1.6596                 1.7228
 Frc consts  --      1.6065                 1.8535                 1.9831
 IR Inten    --     15.0286                 2.9107                69.5728

                     94                     95                     96
                      A                      A                      A
 Frequencies --   1407.1458              1416.0760              1418.1356
 Red. masses --      1.4039                 1.2553                 1.5527
 Frc consts  --      1.6379                 1.4831                 1.8398
 IR Inten    --     25.7211                23.5060                 3.2362

                     97                     98                     99
                      A                      A                      A
 Frequencies --   1467.0729              1472.1557              1473.7650
 Red. masses --      1.0575                 2.3218                 1.0394
 Frc consts  --      1.3410                 2.9647                 1.3302
 IR Inten    --      0.8345                 8.9538                 3.8177

                    100                    101                    102
                      A                      A                      A
 Frequencies --   1482.0645              1487.4272              1487.5752
 Red. masses --      1.0575                 1.0531                 1.0718
 Frc consts  --      1.3686                 1.3728                 1.3974
 IR Inten    --      0.7303                 1.5355                 0.2760

                    103                    104                    105
                      A                      A                      A
 Frequencies --   1491.1694              1501.5477              1507.1912
 Red. masses --      1.0812                 1.0829                 1.0848
 Frc consts  --      1.4165                 1.4385                 1.4519
 IR Inten    --      8.5616                12.3271                 6.0307

                    106                    107                    108
                      A                      A                      A
 Frequencies --   1513.2185              1525.8797              1627.3656
 Red. masses --      1.0708                 2.2535                 5.7047
 Frc consts  --      1.4447                 3.0914                 8.9013
 IR Inten    --      2.3441                 2.6843                 0.4437

                    109                    110                    111
                      A                      A                      A
 Frequencies --   1648.7717              1773.4858              3033.8930
 Red. masses --      5.7260                11.5502                 1.0398
 Frc consts  --      9.1711                21.4041                 5.6388
 IR Inten    --      0.0718               198.5317                 4.4096

                    112                    113                    114
                      A                      A                      A
 Frequencies --   3040.2118              3043.5017              3058.3974
 Red. masses --      1.0355                 1.0406                 1.0584
 Frc consts  --      5.6390                 5.6789                 5.8331
 IR Inten    --     19.2457                11.8033                13.2669

                    115                    116                    117
                      A                      A                      A
 Frequencies --   3062.1997              3070.3693              3087.8287
 Red. masses --      1.0603                 1.0619                 1.0867
 Frc consts  --      5.8580                 5.8980                 6.1050
 IR Inten    --     10.6325                38.8870                 7.8505

                    118                    119                    120
                      A                      A                      A
 Frequencies --   3099.3722              3102.3503              3111.5475
 Red. masses --      1.0986                 1.1068                 1.0936
 Frc consts  --      6.2180                 6.2760                 6.2381
 IR Inten    --      4.8425                 6.5396                 4.0737

                    121                    122                    123
                      A                      A                      A
 Frequencies --   3113.5907              3115.8757              3120.8154
 Red. masses --      1.0958                 1.1021                 1.1018
 Frc consts  --      6.2587                 6.3041                 6.3226
 IR Inten    --      6.1178                20.3371                19.7459

                    124                    125                    126
                      A                      A                      A
 Frequencies --   3123.1706              3133.0993              3145.1987
 Red. masses --      1.0959                 1.1045                 1.1045
 Frc consts  --      6.2984                 6.3879                 6.4375
 IR Inten    --     13.0205                24.3817                 5.6793

                    127                    128                    129
                      A                      A                      A
 Frequencies --   3150.8332              3169.8241              3179.3572
 Red. masses --      1.1033                 1.0847                 1.0879
 Frc consts  --      6.4536                 6.4216                 6.4790
 IR Inten    --      7.2432                 0.3183                 5.7896

                    130                    131                    132
                      A                      A                      A
 Frequencies --   3187.3586              3193.7491              3199.6572
 Red. masses --      1.0915                 1.0944                 1.0990
 Frc consts  --      6.5331                 6.5772                 6.6289
 IR Inten    --     14.3196                 6.1934                10.6574

 - Thermochemistry -
 -------------------
 Temperature   298.150 Kelvin.  Pressure   1.00000 Atm.
 Atom     1 has atomic number  6 and mass  12.00000

 Molecular mass:   434.99839 amu.
 Principal axes and moments of inertia in atomic units:
                           1         2         3
     Eigenvalues --  8930.47709********************
           X            0.99625   0.08468   0.01795
           Y           -0.08516   0.99598   0.02767
           Z           -0.01554  -0.02910   0.99946
 This molecule is an asymmetric top.
 Rotational symmetry number  1.
 Warning -- assumption of classical behavior for rotation
           may cause significant error
 Rotational temperatures (Kelvin)      0.00970     0.00749     0.00691
 Rotational constants (GHZ):           0.20209     0.15614     0.14404
 Zero-point vibrational energy     950622.7 (Joules/Mol)
                                  227.20428 (Kcal/Mol)
 Warning -- explicit consideration of  41 degrees of freedom as
           vibrations may cause significant error
 Vibrational temperatures:     29.61    34.10    44.07    65.60    70.15
          (Kelvin)             91.32   101.00   110.64   116.31   124.87
                              141.80   164.66   168.11   169.82   181.53
                              203.86   237.63   264.56   279.01   314.41
                              324.45   348.30   369.46   374.07   386.38
                              428.85   446.68   488.41   500.62   528.23
                              552.18   572.32   582.12   585.33   591.88
                              635.99   669.62   742.14   788.19   808.88
                              849.59   903.30   934.10   963.45  1017.00
                             1028.98  1088.39  1125.94  1142.31  1159.09
                             1169.84  1202.45  1217.03  1250.78  1285.38
                             1329.17  1353.88  1360.09  1380.32  1413.03
                             1413.87  1441.11  1445.64  1450.80  1452.63
                             1480.03  1501.08  1518.74  1527.76  1569.45
                             1589.89  1621.99  1629.46  1649.06  1681.62
                             1691.50  1711.96  1726.08  1734.23  1744.32
                             1756.97  1810.32  1845.42  1847.77  1859.43
                             1878.02  1900.43  1921.05  1946.42  1960.00
                             1963.42  1980.91  2011.04  2024.57  2037.42
                             2040.38  2110.79  2118.10  2120.42  2132.36
                             2140.08  2140.29  2145.46  2160.39  2168.51
                             2177.18  2195.40  2341.42  2372.21  2551.65
                             4365.10  4374.19  4378.92  4400.35  4405.82
                             4417.58  4442.70  4459.31  4463.59  4476.82
                             4479.76  4483.05  4490.16  4493.55  4507.83
                             4525.24  4533.35  4560.67  4574.39  4585.90
                             4595.09  4603.59

 Zero-point correction=                           0.362073 (Hartree/Particle)
 Thermal correction to Energy=                    0.389069
 Thermal correction to Enthalpy=                  0.390013
 Thermal correction to Gibbs Free Energy=         0.300323
 Sum of electronic and zero-point Energies=          -3531.076743
 Sum of electronic and thermal Energies=             -3531.049747
 Sum of electronic and thermal Enthalpies=           -3531.048803
 Sum of electronic and thermal Free Energies=        -3531.138493

                     E (Thermal)             CV                S
                      KCal/Mol        Cal/Mol-Kelvin    Cal/Mol-Kelvin
 Total                  244.144             97.145            188.769
 Electronic               0.000              0.000              3.561
 Translational            0.889              2.981             44.100
 Rotational               0.889              2.981             35.513
 Vibrational            242.367             91.183            105.595
 Vibration     1          0.593              1.986              6.577
 Vibration     2          0.593              1.985              6.297
 Vibration     3          0.594              1.984              5.788
 Vibration     4          0.595              1.979              5.000
 Vibration     5          0.595              1.978              4.867
 Vibration     6          0.597              1.972              4.346
 Vibration     7          0.598              1.968              4.148
 Vibration     8          0.599              1.965              3.968
 Vibration     9          0.600              1.962              3.870
 Vibration    10          0.601              1.958              3.731
 Vibration    11          0.604              1.950              3.483
 Vibration    12          0.607              1.937              3.192
 Vibration    13          0.608              1.935              3.152
 Vibration    14          0.608              1.934              3.132
 Vibration    15          0.611              1.927              3.004
 Vibration    16          0.615              1.912              2.781
 Vibration    17          0.624              1.885              2.490
 Vibration    18          0.631              1.862              2.289
 Vibration    19          0.635              1.848              2.190
 Vibration    20          0.646              1.813              1.971
 Vibration    21          0.650              1.802              1.914
 Vibration    22          0.658              1.776              1.788
 Vibration    23          0.666              1.751              1.684
 Vibration    24          0.668              1.746              1.662
 Vibration    25          0.673              1.731              1.606
 Vibration    26          0.691              1.677              1.428
 Vibration    27          0.699              1.654              1.360
 Vibration    28          0.719              1.597              1.215
 Vibration    29          0.726              1.579              1.175
 Vibration    30          0.740              1.540              1.092
 Vibration    31          0.753              1.505              1.024
 Vibration    32          0.764              1.475              0.971
 Vibration    33          0.770              1.460              0.946
 Vibration    34          0.772              1.455              0.938
 Vibration    35          0.775              1.446              0.922
 Vibration    36          0.802              1.378              0.820
 Vibration    37          0.823              1.327              0.751
 Vibration    38          0.871              1.215              0.620
 Vibration    39          0.903              1.144              0.549
 Vibration    40          0.918              1.113              0.519
 Vibration    41          0.948              1.052              0.466

 Optimization completed.
    -- Stationary point found.
 Normal termination of Gaussian 16 at Sun Jun 20 06:58:00 2021.

 ----------------------------------------------------------------------
 #p ub3lyp jul-cc-pvdz pop=cm5 scrf=(pcm,solvent=dichloroethane) guess=
 read geom=allcheck
 ----------------------------------------------------------------------

 Structure from the checkpoint file:  "checkpoint.chk"
 -----
 title
 -----
 Charge =  0 Multiplicity = 6

 SCF Done:  E(UB3LYP) =  -3531.45658655     A.U. after   17 cycles
 Normal termination of Gaussian 16 at Sun Jun 20 07:25:42 2021.
 Gaussian 16:  ES64L-G16RevA.03 25-Dec-2016

 ----------------------------------------------------------------------
 #p ub3lyp jul-cc-pvdz pop=cm5 scrf=(pcm,solvent=water) guess=read geom
 =allcheck
 ----------------------------------------------------------------------

 Structure from the checkpoint file:  "checkpoint.chk"
 -----
 title
 -----
 Charge =  0 Multiplicity = 6

                         Standard orientation:
 ---------------------------------------------------------------------
 Center     Atomic      Atomic             Coordinates (Angstroms)
 Number     Number       Type             X           Y           Z
 ---------------------------------------------------------------------
      1          6           0        1.693927   -2.243196    1.614492
      2          6           0        1.161623   -1.103126    0.997216
      3          6           0        1.209826    0.117800    1.687629
      4          6           0        1.746102    0.188737    2.973087
      5          6           0        2.269143   -0.955370    3.583258
      6          6           0        2.249043   -2.170044    2.895990
      7          6           0        0.603457   -1.168163   -0.409052
      8          6           0        1.542046   -0.576709   -1.525752
      9          6           0        2.158754   -1.840494   -2.154934
     10          6           0        1.013791   -2.872513   -2.166580
     11          6           0        0.144323   -2.490186   -0.948924
     12          6           0       -1.297729   -1.953231   -1.143775
     13          6           0       -1.802762   -1.696727   -2.543925
     14          8           0       -0.785993   -0.576990   -0.508103
     15         26           0       -1.966904    0.868377    0.317140
     16         17           0       -3.780593    0.872861   -0.939220
     17          6           0       -2.329049   -2.581720   -0.233619
     18         17           0       -0.937036    2.806417    0.201986
     19         17           0       -2.435854    0.244853    2.369416
     20          1           0        0.825518    1.027072    1.227086
     21          1           0        1.753979    1.144023    3.499175
     22          1           0        2.691902   -0.898666    4.587295
     23          1           0        2.662442   -3.068732    3.355725
     24          1           0        1.698081   -3.203814    1.100214
     25          1           0        0.890216   -0.064331   -2.243577
     26          6           0        2.612454    0.408332   -1.077181
     27          1           0        2.570973   -1.638943   -3.151983
     28          1           0        2.989777   -2.177241   -1.521069
     29          1           0        0.444335   -2.814952   -3.102249
     30          1           0        1.387980   -3.901016   -2.088590
     31          1           0        0.134846   -3.286935   -0.199896
     32          1           0       -2.524437   -3.602509   -0.596757
     33          1           0       -1.969110   -2.644587    0.799628
     34          1           0       -3.274346   -2.026056   -0.251037
     35          1           0       -2.029636   -2.662225   -3.020376
     36          1           0       -2.725014   -1.106118   -2.510733
     37          1           0       -1.071451   -1.168566   -3.165307
     38          8           0        2.221760    1.679178   -1.275819
     39          8           0        3.694113    0.088886   -0.631287
     40          6           0        3.168289    2.714272   -0.886484
     41          6           0        2.596001    4.048633   -1.319157
     42          1           0        3.308617    2.653819    0.201491
     43          1           0        4.132515    2.495414   -1.364161
     44          1           0        3.286718    4.851728   -1.024012
     45          1           0        2.467679    4.086688   -2.409907
     46          1           0        1.622639    4.231548   -0.845753
 ---------------------------------------------------------------------

 SCF Done:  E(UB3LYP) =  -3531.46000666     A.U. after   14 cycles

 The electronic state is 6-A.
 Alpha  occ. eigenvalues -- -256.21939-101.53253-101.53210-101.53075 -30.21281
 Alpha  occ. eigenvalues --  -26.06714 -26.06468 -26.06381 -19.21315 -19.20335
 Alpha  occ. eigenvalues --  -19.15198 -10.32832 -10.28658 -10.28569 -10.24755
 Alpha  occ. eigenvalues --  -10.21995 -10.21613 -10.21028 -10.20610 -10.20362
 Alpha  occ. eigenvalues --  -10.20352 -10.20311 -10.20272 -10.19771 -10.19606
 Alpha  occ. eigenvalues --  -10.19541 -10.19458 -10.18605  -9.44968  -9.44937
 Alpha  occ. eigenvalues --   -9.44801  -7.20836  -7.20808  -7.20673  -7.20534
 Alpha  occ. eigenvalues --   -7.20509  -7.20502  -7.20462  -7.20358  -7.20342
 Alpha  occ. eigenvalues --   -3.68899  -2.46571  -2.46181  -2.45973  -1.12056
 Alpha  occ. eigenvalues --   -1.07223  -1.03594  -0.88129  -0.86067  -0.82442
 Alpha  occ. eigenvalues --   -0.81295  -0.80522  -0.80423  -0.78766  -0.77836
 Alpha  occ. eigenvalues --   -0.76250  -0.74733  -0.72350  -0.71458  -0.66305
 Alpha  occ. eigenvalues --   -0.64084  -0.62306  -0.61000  -0.59587  -0.57139
 Alpha  occ. eigenvalues --   -0.56220  -0.54156  -0.53421  -0.51461  -0.50638
 Alpha  occ. eigenvalues --   -0.50063  -0.49389  -0.49128  -0.49007  -0.48864
 Alpha  occ. eigenvalues --   -0.48379  -0.47891  -0.47140  -0.46336  -0.46106
 Alpha  occ. eigenvalues --   -0.45082  -0.44812  -0.43983  -0.43295  -0.42918
 Alpha  occ. eigenvalues --   -0.41886  -0.40761  -0.40244  -0.40182  -0.39861
 Alpha  occ. eigenvalues --   -0.39731  -0.38304  -0.37925  -0.37287  -0.37107
 Alpha  occ. eigenvalues --   -0.36906  -0.36552  -0.36048  -0.35598  -0.35204
 Alpha  occ. eigenvalues --   -0.34984  -0.34632  -0.34257  -0.33635  -0.32230
 Alpha  occ. eigenvalues --   -0.31894  -0.31665  -0.31592  -0.31416  -0.31386
 Alpha  occ. eigenvalues --   -0.30473  -0.30440  -0.29356  -0.26942  -0.26683
 Alpha virt. eigenvalues --   -0.03999  -0.03067  -0.01532  -0.01456  -0.00271
 Alpha virt. eigenvalues --   -0.00042   0.00037   0.00399   0.01527   0.01746
 Alpha virt. eigenvalues --    0.01831   0.01921   0.02372   0.03257   0.03754

  Beta  occ. eigenvalues -- -256.21753-101.53051-101.53007-101.52871 -30.12380
  Beta  occ. eigenvalues --  -25.99172 -25.99099 -25.99033 -19.20981 -19.20335
  Beta  occ. eigenvalues --  -19.15196 -10.32832 -10.28635 -10.28555 -10.24755
  Beta  occ. eigenvalues --  -10.21990 -10.21611 -10.21019 -10.20608 -10.20361
  Beta  occ. eigenvalues --  -10.20351 -10.20310 -10.20271 -10.19769 -10.19603
  Beta  occ. eigenvalues --  -10.19540 -10.19455 -10.18604  -9.44770  -9.44738
  Beta  occ. eigenvalues --   -9.44602  -7.20517  -7.20480  -7.20349  -7.20245
  Beta  occ. eigenvalues --   -7.20232  -7.20216  -7.20198  -7.20075  -7.20067
  Beta  occ. eigenvalues --   -3.48127  -2.24405  -2.24372  -2.24264  -1.12054
  Beta  occ. eigenvalues --   -1.06653  -1.03592  -0.88067  -0.85985  -0.82360
  Beta  occ. eigenvalues --   -0.79994  -0.79140  -0.79018  -0.78735  -0.77800
  Beta  occ. eigenvalues --   -0.76242  -0.74705  -0.72253  -0.71415  -0.66284
  Beta  occ. eigenvalues --   -0.64024  -0.62288  -0.60920  -0.59517  -0.57106
  Beta  occ. eigenvalues --   -0.55628  -0.54026  -0.52939  -0.51315  -0.50140
  Beta  occ. eigenvalues --   -0.49640  -0.49146  -0.47571  -0.46542  -0.46412
  Beta  occ. eigenvalues --   -0.45104  -0.44821  -0.43994  -0.43331  -0.42922
  Beta  occ. eigenvalues --   -0.41871  -0.40777  -0.40192  -0.40060  -0.39860
  Beta  occ. eigenvalues --   -0.39170  -0.38317  -0.38142  -0.37423  -0.37134
  Beta  occ. eigenvalues --   -0.37104  -0.36840  -0.36678  -0.36492  -0.35964
  Beta  occ. eigenvalues --   -0.35608  -0.34921  -0.34445  -0.34051  -0.33879
  Beta  occ. eigenvalues --   -0.33573  -0.33069  -0.32743  -0.31904  -0.31434
  Beta  occ. eigenvalues --   -0.30629  -0.30307  -0.29326  -0.26930  -0.26668
  Beta virt. eigenvalues --   -0.15968  -0.15512  -0.14427  -0.14315  -0.14081
  Beta virt. eigenvalues --   -0.03896  -0.03028  -0.01410  -0.01382  -0.00140
  Beta virt. eigenvalues --   -0.00018   0.00083   0.00654   0.01546   0.01763

 Mulliken charges and spin densities:
               1          2
     1  C   -0.326126   0.005396
     2  C    3.389181  -0.005088
     3  C   -0.399820  -0.017233
     4  C   -0.000748   0.001353
     5  C    0.269603   0.000244
     6  C   -0.191799   0.001414
     7  C   -2.430313   0.027224
     8  C    0.239903  -0.000819
     9  C    0.534520   0.000818
    10  C    0.631650   0.001639
    11  C    0.817866   0.000122
    12  C   -0.895107   0.010221
    13  C    0.419497  -0.002598
    14  O   -0.231388   0.081995
    15  Fe   0.543467   4.058408
    16  Cl  -0.459160   0.279772
    17  C    0.553508   0.002834
    18  Cl  -0.435411   0.278766
    19  Cl  -0.429908   0.272246
    20  H   -0.315864   0.000616
    21  H   -0.165063   0.000001
    22  H   -0.162114   0.000017
    23  H   -0.157359   0.000019
    24  H   -0.187105  -0.000033
    25  H   -0.219896  -0.000093
    26  C    1.038649   0.001478
    27  H   -0.140086   0.000236
    28  H   -0.061280  -0.000004
    29  H   -0.095789  -0.000026
    30  H   -0.124030   0.000349
    31  H   -0.216577   0.001051
    32  H    0.002919  -0.000067
    33  H    0.043333  -0.000769
    34  H    0.029560   0.000389
    35  H    0.025065   0.001503
    36  H    0.015468  -0.000157
    37  H    0.031835  -0.000314
    38  O   -0.699266  -0.001104
    39  O   -0.670596   0.000502
    40  C    0.413474  -0.000873
    41  C    0.060095   0.001192
    42  H   -0.040279   0.000028
    43  H   -0.049113   0.000000
    44  H   -0.003461   0.000065
    45  H    0.021532   0.000001
    46  H    0.026535  -0.000723
 Sum of Mulliken charges =  -0.00000   5.00000

 Dipole moment (field-independent basis, Debye):
    X=              4.1885    Y=             -7.2234    Z=             -4.4072  Tot=              9.4416
 Quadrupole moment (field-independent basis, Debye-Ang):
   XX=           -199.5461   YY=           -156.5720   ZZ=           -166.9060
   XY=             16.0895   XZ=              7.2957   YZ=              5.4151

 Normal termination of Gaussian 16 at Sun Jun 20 07:48:31 2021.
