 Gaussian 16, Revision A.03,

 -----------------------------------------------------------
 #p opt=modredundant freq=noraman ub3lyp jul-cc-pvdz pop=cm5
 -----------------------------------------------------------

 -----
 title
 -----
 Symbolic Z-matrix:
 Charge =  0 Multiplicity = 6

 SCF Done:  E(UB3LYP) =  -3531.44681238     A.U. after   24 cycles
 SCF Done:  E(UB3LYP) =  -3531.44688147     A.U. after   17 cycles
 SCF Done:  E(UB3LYP) =  -3531.44503719     A.U. after   21 cycles
 SCF Done:  E(UB3LYP) =  -3531.44546547     A.U. after   18 cycles
 SCF Done:  E(UB3LYP) =  -3531.44714727     A.U. after   12 cycles
 SCF Done:  E(UB3LYP) =  -3531.44736687     A.U. after   15 cycles
 SCF Done:  E(UB3LYP) =  -3531.44741375     A.U. after   14 cycles
 SCF Done:  E(UB3LYP) =  -3531.44745677     A.U. after   13 cycles
 SCF Done:  E(UB3LYP) =  -3531.44746497     A.U. after   13 cycles
 SCF Done:  E(UB3LYP) =  -3531.44747201     A.U. after   12 cycles
 SCF Done:  E(UB3LYP) =  -3531.44748579     A.U. after   12 cycles
 SCF Done:  E(UB3LYP) =  -3531.44748888     A.U. after   11 cycles
 SCF Done:  E(UB3LYP) =  -3531.44749123     A.U. after   11 cycles
 SCF Done:  E(UB3LYP) =  -3531.44749192     A.U. after    9 cycles
 SCF Done:  E(UB3LYP) =  -3531.44749251     A.U. after    9 cycles
 SCF Done:  E(UB3LYP) =  -3531.44749273     A.U. after    9 cycles
 SCF Done:  E(UB3LYP) =  -3531.44749294     A.U. after    8 cycles
 Optimization completed.
    -- Stationary point found.
 Normal termination of Gaussian 16 at Sun Jun 20 19:48:42 2021.

 ----------------------------------------------------------------------
 #P Geom=AllCheck Guess=TCheck SCRF=Check GenChk UB3LYP/Jul-CC-pVDZ Fre
 q
 ----------------------------------------------------------------------

 Structure from the checkpoint file:  "checkpoint.chk"
 -----
 title
 -----
 Charge =  0 Multiplicity = 6

 SCF Done:  E(UB3LYP) =  -3531.44749294     A.U. after    2 cycles

  Exact polarizability: 306.065   8.799 309.838  24.538   5.065 304.950
 Approx polarizability: 467.235  43.895 481.310  49.641   0.268 491.202

 ******    1 imaginary frequencies (negative Signs) ******

                      1                      2                      3
                      A                      A                      A
 Frequencies --     -7.8022                12.3765                20.6288
 Red. masses --      6.1034                 6.8861                 8.9935
 Frc consts  --      0.0002                 0.0006                 0.0023
 IR Inten    --      0.4539                 0.5097                 0.4119

                      4                      5                      6
                      A                      A                      A
 Frequencies --     33.5385                43.1569                54.4644
 Red. masses --      4.4915                 6.9697                 4.6688
 Frc consts  --      0.0030                 0.0076                 0.0082
 IR Inten    --      0.8693                 1.1696                 0.8809

                      7                      8                      9
                      A                      A                      A
 Frequencies --     62.5010                65.9308                76.2316
 Red. masses --      3.2659                 3.8488                 4.5610
 Frc consts  --      0.0075                 0.0099                 0.0156
 IR Inten    --      0.3535                 1.2762                 0.9189

                     10                     11                     12
                      A                      A                      A
 Frequencies --     79.8570                85.4006                97.1794
 Red. masses --      7.5403                 8.2882                 2.7977
 Frc consts  --      0.0283                 0.0356                 0.0156
 IR Inten    --      0.4976                 1.1817                 1.4327

                     13                     14                     15
                      A                      A                      A
 Frequencies --    101.1568               107.6608               109.8182
 Red. masses --      3.8663                 2.2126                 4.1861
 Frc consts  --      0.0233                 0.0151                 0.0297
 IR Inten    --      1.6969                 0.1547                 0.1031

                     16                     17                     18
                      A                      A                      A
 Frequencies --    116.8952               121.2053               135.1144
 Red. masses --      6.1024                10.7186                 2.2098
 Frc consts  --      0.0491                 0.0928                 0.0238
 IR Inten    --      0.6942                 2.0698                 0.9887

                     19                     20                     21
                      A                      A                      A
 Frequencies --    148.7072               160.0486               184.6936
 Red. masses --      3.4125                 8.1962                 3.1972
 Frc consts  --      0.0445                 0.1237                 0.0643
 IR Inten    --      3.0146                15.7114                 8.0447

                     22                     23                     24
                      A                      A                      A
 Frequencies --    204.3196               206.7849               212.7523
 Red. masses --      1.2853                 3.5463                 2.9487
 Frc consts  --      0.0316                 0.0893                 0.0786
 IR Inten    --      7.3362                 0.4278                 2.5576

                     25                     26                     27
                      A                      A                      A
 Frequencies --    258.2394               265.4592               284.7627
 Red. masses --      1.5156                 3.4478                 4.0628
 Frc consts  --      0.0596                 0.1431                 0.1941
 IR Inten    --      1.7982                32.2188                 2.8651

                     28                     29                     30
                      A                      A                      A
 Frequencies --    309.5582               313.6525               342.2413
 Red. masses --      3.3920                 4.0697                16.9163
 Frc consts  --      0.1915                 0.2359                 1.1674
 IR Inten    --      6.2692                 6.3350                32.2091

                     31                     32                     33
                      A                      A                      A
 Frequencies --    351.4440               378.3525               391.2843
 Red. masses --      6.3897                 3.8147                 2.9152
 Frc consts  --      0.4650                 0.3217                 0.2630
 IR Inten    --     25.2264                 3.0083                12.5842

                     34                     35                     36
                      A                      A                      A
 Frequencies --    397.8870               406.1128               414.9748
 Red. masses --     18.7895                29.8608                 3.0164
 Frc consts  --      1.7526                 2.9016                 0.3060
 IR Inten    --     68.2941                78.2519                 3.2061

                     37                     38                     39
                      A                      A                      A
 Frequencies --    421.8670               448.6901               476.5016
 Red. masses --      3.7758                 2.8935                 3.1547
 Frc consts  --      0.3959                 0.3432                 0.4220
 IR Inten    --     30.7243                 7.2717                 1.0808

                     40                     41                     42
                      A                      A                      A
 Frequencies --    495.6130               513.7892               539.0800
 Red. masses --      2.5808                 2.8661                 4.1736
 Frc consts  --      0.3735                 0.4458                 0.7146
 IR Inten    --     12.4743                 2.4866                19.3947

                     43                     44                     45
                      A                      A                      A
 Frequencies --    584.3284               624.3017               650.3191
 Red. masses --      4.7012                 6.3713                 4.4415
 Frc consts  --      0.9457                 1.4631                 1.1067
 IR Inten    --     64.2055                 3.6331                61.2917

                     46                     47                     48
                      A                      A                      A
 Frequencies --    697.6079               697.9180               753.0462
 Red. masses --      2.4187                 2.6486                 4.3327
 Frc consts  --      0.6935                 0.7601                 1.4476
 IR Inten    --     13.3746                51.7829                 4.5522

                     49                     50                     51
                      A                      A                      A
 Frequencies --    772.9045               791.5263               805.0933
 Red. masses --      2.3097                 2.2996                 1.1528
 Frc consts  --      0.8129                 0.8488                 0.4402
 IR Inten    --     29.0720                 4.5294                 1.6827

                     52                     53                     54
                      A                      A                      A
 Frequencies --    829.3938               848.8229               852.5189
 Red. masses --      4.5646                 1.4611                 1.2472
 Frc consts  --      1.8500                 0.6203                 0.5341
 IR Inten    --     11.8818                17.2812                 0.5371

                     55                     56                     57
                      A                      A                      A
 Frequencies --    865.7307               901.8949               911.5845
 Red. masses --      2.7566                 2.0868                 2.0654
 Frc consts  --      1.2173                 1.0001                 1.0112
 IR Inten    --     31.1732                 1.2963                15.1998

                     58                     59                     60
                      A                      A                      A
 Frequencies --    958.7226               961.1089               973.1679
 Red. masses --      1.4874                 1.4032                 3.1095
 Frc consts  --      0.8055                 0.7637                 1.7350
 IR Inten    --      3.0218                 1.8837                23.1919

                     61                     62                     63
                      A                      A                      A
 Frequencies --    990.0941               993.8883               997.8950
 Red. masses --      1.9559                 1.5009                 1.6053
 Frc consts  --      1.1297                 0.8735                 0.9418
 IR Inten    --     40.2243                 7.3631                 5.4980

                     64                     65                     66
                      A                      A                      A
 Frequencies --   1003.8100              1013.2475              1020.2367
 Red. masses --      3.2515                 1.3519                 2.0668
 Frc consts  --      1.9304                 0.8178                 1.2675
 IR Inten    --      0.3683                 0.9273                 0.5433

                     67                     68                     69
                      A                      A                      A
 Frequencies --   1036.6421              1047.4191              1076.9035
 Red. masses --      2.6162                 2.3858                 2.1509
 Frc consts  --      1.6565                 1.5422                 1.4697
 IR Inten    --     41.6723                 2.9895                 1.8176

                     70                     71                     72
                      A                      A                      A
 Frequencies --   1093.3492              1100.9836              1116.3260
 Red. masses --      1.7425                 2.0433                 1.5834
 Frc consts  --      1.2273                 1.4593                 1.1626
 IR Inten    --      0.5339                14.6807                 7.4295

                     73                     74                     75
                      A                      A                      A
 Frequencies --   1133.1531              1139.9185              1164.9050
 Red. masses --      2.1725                 2.2038                 1.6857
 Frc consts  --      1.6435                 1.6872                 1.3477
 IR Inten    --     15.4443                 7.8125                82.6040

                     76                     77                     78
                      A                      A                      A
 Frequencies --   1170.2306              1178.8418              1203.2989
 Red. masses --      1.6099                 1.0866                 1.5303
 Frc consts  --      1.2990                 0.8897                 1.3055
 IR Inten    --     19.8649                 1.2923                45.4460

                     79                     80                     81
                      A                      A                      A
 Frequencies --   1209.5761              1227.9256              1253.8401
 Red. masses --      1.2758                 2.0571                 1.9928
 Frc consts  --      1.0997                 1.8275                 1.8459
 IR Inten    --     47.2886               165.0984                20.5882

                     82                     83                     84
                      A                      A                      A
 Frequencies --   1272.0863              1284.5643              1324.7456
 Red. masses --      2.2466                 1.1222                 1.3968
 Frc consts  --      2.1420                 1.0910                 1.4443
 IR Inten    --    172.9282                 2.4405                 7.3610

                     85                     86                     87
                      A                      A                      A
 Frequencies --   1326.2016              1336.1788              1341.9771
 Red. masses --      1.7293                 1.5015                 1.7285
 Frc consts  --      1.7921                 1.5794                 1.8340
 IR Inten    --    131.6101                24.9267                20.2700

                     88                     89                     90
                      A                      A                      A
 Frequencies --   1366.9464              1371.0715              1379.7902
 Red. masses --      2.3542                 1.6625                 1.3140
 Frc consts  --      2.5917                 1.8413                 1.4739
 IR Inten    --      3.2963                11.3983                11.9067

                     91                     92                     93
                      A                      A                      A
 Frequencies --   1381.5794              1405.1186              1408.7739
 Red. masses --      1.3772                 1.3731                 1.3504
 Frc consts  --      1.5488                 1.5972                 1.5791
 IR Inten    --     17.9406                 6.4671                19.2506

                     94                     95                     96
                      A                      A                      A
 Frequencies --   1415.7676              1459.6008              1465.6201
 Red. masses --      1.4049                 1.0671                 1.2539
 Frc consts  --      1.6592                 1.3395                 1.5869
 IR Inten    --     13.1687                 5.4833                 9.8538

                     97                     98                     99
                      A                      A                      A
 Frequencies --   1466.3490              1474.0667              1478.7303
 Red. masses --      1.7655                 1.0385                 1.0738
 Frc consts  --      2.2366                 1.3296                 1.3834
 IR Inten    --     32.4552                 5.0926                 2.4792

                    100                    101                    102
                      A                      A                      A
 Frequencies --   1482.0840              1486.4233              1488.2300
 Red. masses --      1.0559                 1.0554                 1.1032
 Frc consts  --      1.3665                 1.3739                 1.4396
 IR Inten    --     20.0674                 2.3345                 6.6481

                    103                    104                    105
                      A                      A                      A
 Frequencies --   1489.9540              1504.8511              1518.1907
 Red. masses --      1.0962                 1.0832                 2.1521
 Frc consts  --      1.4338                 1.4453                 2.9226
 IR Inten    --      7.8682                 6.4501                10.7729

                    106                    107                    108
                      A                      A                      A
 Frequencies --   1548.5925              1620.1316              1640.8159
 Red. masses --      6.4471                 5.4753                 5.6347
 Frc consts  --      9.1094                 8.4676                 8.9380
 IR Inten    --    670.2307                32.0262                37.6873

                    109                    110                    111
                      A                      A                      A
 Frequencies --   1702.8617              1768.4802              3015.3186
 Red. masses --      6.2250                11.4863                 1.0384
 Frc consts  --     10.6353                21.1656                 5.5625
 IR Inten    --    104.1729               216.4855                11.7442

                    112                    113                    114
                      A                      A                      A
 Frequencies --   3026.1287              3029.1481              3041.8854
 Red. masses --      1.0425                 1.0642                 1.0356
 Frc consts  --      5.6247                 5.7534                 5.6457
 IR Inten    --     11.8318                28.3657                15.7688

                    115                    116                    117
                      A                      A                      A
 Frequencies --   3062.1461              3067.5487              3070.9196
 Red. masses --      1.0582                 1.0650                 1.0979
 Frc consts  --      5.8461                 5.9048                 6.1005
 IR Inten    --     13.5408                27.0042                 1.4238

                    118                    119                    120
                      A                      A                      A
 Frequencies --   3077.5623              3080.1661              3087.6751
 Red. masses --      1.0977                 1.0847                 1.0958
 Frc consts  --      6.1254                 6.0634                 6.1553
 IR Inten    --     22.3175                 0.9688                 5.0094

                    121                    122                    123
                      A                      A                      A
 Frequencies --   3108.7116              3118.6243              3122.1629
 Red. masses --      1.1072                 1.1020                 1.1010
 Frc consts  --      6.3041                 6.3148                 6.3236
 IR Inten    --      7.5155                15.8692                11.4547

                    124                    125                    126
                      A                      A                      A
 Frequencies --   3123.4571              3136.0467              3137.5751
 Red. masses --      1.0985                 1.0882                 1.1053
 Frc consts  --      6.3144                 6.3058                 6.4108
 IR Inten    --      7.7820                17.1614                16.8053

                    127                    128                    129
                      A                      A                      A
 Frequencies --   3142.1048              3175.2010              3188.7993
 Red. masses --      1.0967                 1.0863                 1.0912
 Frc consts  --      6.3796                 6.4527                 6.5372
 IR Inten    --     24.8892                 0.9490                 7.2198

                    130                    131                    132
                      A                      A                      A
 Frequencies --   3197.4567              3218.7552              3231.3951
 Red. masses --      1.0964                 1.0937                 1.0928
 Frc consts  --      6.6045                 6.6762                 6.7232
 IR Inten    --      9.1352                 4.7268                 5.5727

 - Thermochemistry -
 -------------------
 Temperature   298.150 Kelvin.  Pressure   1.00000 Atm.
 Atom     1 has atomic number  6 and mass  12.00000

 Molecular mass:   434.99839 amu.
 Principal axes and moments of inertia in atomic units:
                           1         2         3
     Eigenvalues --  9930.91693********************
           X            0.98797  -0.15466   0.00230
           Y            0.15454   0.98762   0.02697
           Z           -0.00644  -0.02629   0.99963
 This molecule is an asymmetric top.
 Rotational symmetry number  1.
 Warning -- assumption of classical behavior for rotation
           may cause significant error
 Rotational temperatures (Kelvin)      0.00872     0.00778     0.00656
 Rotational constants (GHZ):           0.18173     0.16209     0.13670
    1 imaginary frequencies ignored.
 Zero-point vibrational energy     943680.0 (Joules/Mol)
                                  225.54494 (Kcal/Mol)
 Warning -- explicit consideration of  42 degrees of freedom as
           vibrations may cause significant error
 Vibrational temperatures:     17.81    29.68    48.25    62.09    78.36
          (Kelvin)             89.92    94.86   109.68   114.90   122.87
                              139.82   145.54   154.90   158.00   168.19
                              174.39   194.40   213.96   230.27   265.73
                              293.97   297.52   306.10   371.55   381.94
                              409.71   445.39   451.28   492.41   505.65
                              544.36   562.97   572.47   584.31   597.06
                              606.97   645.57   685.58   713.08   739.23
                              775.62   840.72   898.23   935.66  1003.70
                             1004.15  1083.47  1112.04  1138.83  1158.35
                             1193.31  1221.27  1226.58  1245.59  1297.63
                             1311.57  1379.39  1382.82  1400.17  1424.52
                             1429.98  1435.75  1444.26  1457.84  1467.89
                             1491.50  1507.00  1549.42  1573.09  1584.07
                             1606.14  1630.35  1640.09  1676.04  1683.70
                             1696.09  1731.28  1740.31  1766.71  1804.00
                             1830.25  1848.20  1906.01  1908.11  1922.46
                             1930.81  1966.73  1972.67  1985.21  1987.78
                             2021.65  2026.91  2036.97  2100.04  2108.70
                             2109.75  2120.85  2127.56  2132.39  2138.63
                             2141.23  2143.71  2165.15  2184.34  2228.08
                             2331.01  2360.77  2450.04  2544.45  4338.37
                             4353.92  4358.27  4376.59  4405.75  4413.52
                             4418.37  4427.93  4431.67  4442.48  4472.74
                             4487.00  4492.10  4493.96  4512.07  4514.27
                             4520.79  4568.41  4587.97  4600.43  4631.07
                             4649.26

 Zero-point correction=                           0.359429 (Hartree/Particle)
 Thermal correction to Energy=                    0.387182
 Thermal correction to Enthalpy=                  0.388126
 Thermal correction to Gibbs Free Energy=         0.295800
 Sum of electronic and zero-point Energies=          -3531.088064
 Sum of electronic and thermal Energies=             -3531.060311
 Sum of electronic and thermal Enthalpies=           -3531.059367
 Sum of electronic and thermal Free Energies=        -3531.151693

                     E (Thermal)             CV                S
                      KCal/Mol        Cal/Mol-Kelvin    Cal/Mol-Kelvin
 Total                  242.960             97.772            194.317
 Electronic               0.000              0.000              3.561
 Translational            0.889              2.981             44.100
 Rotational               0.889              2.981             35.633
 Vibrational            241.183             91.810            111.023
 Vibration     1          0.593              1.987              7.587
 Vibration     2          0.593              1.986              6.573
 Vibration     3          0.594              1.983              5.608
 Vibration     4          0.595              1.980              5.109
 Vibration     5          0.596              1.976              4.648
 Vibration     6          0.597              1.972              4.377
 Vibration     7          0.597              1.971              4.271
 Vibration     8          0.599              1.965              3.986
 Vibration     9          0.600              1.963              3.894
 Vibration    10          0.601              1.959              3.763
 Vibration    11          0.603              1.951              3.510
 Vibration    12          0.604              1.948              3.432
 Vibration    13          0.606              1.943              3.311
 Vibration    14          0.606              1.941              3.272
 Vibration    15          0.608              1.935              3.151
 Vibration    16          0.609              1.932              3.081
 Vibration    17          0.613              1.918              2.872
 Vibration    18          0.618              1.904              2.689
 Vibration    19          0.622              1.891              2.549
 Vibration    20          0.631              1.861              2.280
 Vibration    21          0.640              1.834              2.094
 Vibration    22          0.641              1.830              2.072
 Vibration    23          0.644              1.821              2.020
 Vibration    24          0.667              1.749              1.674
 Vibration    25          0.671              1.736              1.626
 Vibration    26          0.683              1.702              1.505
 Vibration    27          0.699              1.656              1.365
 Vibration    28          0.702              1.648              1.343
 Vibration    29          0.721              1.591              1.202
 Vibration    30          0.728              1.572              1.160
 Vibration    31          0.749              1.516              1.046
 Vibration    32          0.759              1.489              0.995
 Vibration    33          0.764              1.475              0.970
 Vibration    34          0.771              1.457              0.940
 Vibration    35          0.778              1.438              0.909
 Vibration    36          0.784              1.423              0.886
 Vibration    37          0.808              1.364              0.800
 Vibration    38          0.833              1.302              0.720
 Vibration    39          0.851              1.260              0.669
 Vibration    40          0.869              1.219              0.625
 Vibration    41          0.894              1.164              0.567
 Vibration    42          0.941              1.065              0.477

                           ! Non-Optimized Parameters !
 Normal termination of Gaussian 16 at Sun Jun 20 23:48:58 2021.

 ----------------------------------------------------------------------
 #p ub3lyp jul-cc-pvdz pop=cm5 scrf=(pcm,solvent=dichloroethane) guess=
 read geom=allcheck
 ----------------------------------------------------------------------

 Structure from the checkpoint file:  "checkpoint.chk"
 -----
 title
 -----
 Charge =  0 Multiplicity = 6

 SCF Done:  E(UB3LYP) =  -3531.46484559     A.U. after   18 cycles
 Normal termination of Gaussian 16 at Mon Jun 21 00:13:48 2021.
 Gaussian 16:  ES64L-G16RevA.03 25-Dec-2016

 ----------------------------------------------------------------------
 #p ub3lyp jul-cc-pvdz pop=cm5 scrf=(pcm,solvent=water) guess=read geom
 =allcheck
 ----------------------------------------------------------------------

 Structure from the checkpoint file:  "checkpoint.chk"
 -----
 title
 -----
 Charge =  0 Multiplicity = 6

                         Standard orientation:
 ---------------------------------------------------------------------
 Center     Atomic      Atomic             Coordinates (Angstroms)
 Number     Number       Type             X           Y           Z
 ---------------------------------------------------------------------
      1          6           0        2.810354    0.676619    1.229449
      2          6           0        1.693481   -0.130723    0.927464
      3          6           0        1.285842   -1.107934    1.861383
      4          6           0        1.984779   -1.283749    3.051489
      5          6           0        3.095157   -0.480270    3.338322
      6          6           0        3.499190    0.502832    2.429154
      7          6           0        0.895304    0.050550   -0.303515
      8          6           0        1.233574    1.083379   -1.391057
      9          6           0        2.573588    0.894792   -2.114391
     10          6           0        2.609582   -0.496469   -2.761024
     11          6           0        2.343202   -1.564667   -1.736927
     12          6           0        1.349811   -2.480551   -1.730341
     13          6           0        0.227372   -2.536774   -2.726659
     14          8           0       -0.246474   -0.470095   -0.381291
     15         26           0       -2.096558   -0.605486    0.306333
     16         17           0       -3.408638   -0.082156   -1.376352
     17          6           0        1.294708   -3.545339   -0.669025
     18         17           0       -2.193541    0.802709    1.995429
     19         17           0       -2.322285   -2.707336    0.948067
     20          1           0        0.418459   -1.729473    1.649714
     21          1           0        1.657353   -2.042660    3.762555
     22          1           0        3.639390   -0.614799    4.274534
     23          1           0        4.351161    1.144017    2.657428
     24          1           0        3.124795    1.468121    0.554846
     25          1           0        0.418662    0.963234   -2.116496
     26          6           0        1.075310    2.505900   -0.820140
     27          1           0        2.673491    1.683084   -2.873052
     28          1           0        3.416263    1.021860   -1.425682
     29          1           0        1.880901   -0.539349   -3.581028
     30          1           0        3.601948   -0.655774   -3.211992
     31          1           0        3.109852   -1.657411   -0.962353
     32          1           0        2.107326   -3.445338    0.061111
     33          1           0        0.329001   -3.523638   -0.140753
     34          1           0        1.370593   -4.542267   -1.132686
     35          1           0        0.185029   -3.535453   -3.188913
     36          1           0       -0.737682   -2.391189   -2.216710
     37          1           0        0.305688   -1.792746   -3.525981
     38          8           0       -0.217089    2.807931   -0.671565
     39          8           0        1.998183    3.250148   -0.564668
     40          6           0       -0.527987    4.122995   -0.115434
     41          6           0       -2.033116    4.283637   -0.137318
     42          1           0       -0.117525    4.159858    0.902584
     43          1           0       -0.011731    4.877854   -0.722847
     44          1           0       -2.295067    5.265100    0.283646
     45          1           0       -2.419812    4.232299   -1.164277
     46          1           0       -2.519559    3.503396    0.461883
 ---------------------------------------------------------------------

 SCF Done:  E(UB3LYP) =  -3531.46802614     A.U. after   14 cycles

 The electronic state is 6-A.
 Alpha  occ. eigenvalues -- -256.21712-101.52942-101.52852-101.52777 -30.21099
 Alpha  occ. eigenvalues --  -26.06559 -26.06242 -26.06195 -19.21121 -19.19823
 Alpha  occ. eigenvalues --  -19.16218 -10.34188 -10.33597 -10.25212 -10.23326
 Alpha  occ. eigenvalues --  -10.22889 -10.21932 -10.21877 -10.21792 -10.21186
 Alpha  occ. eigenvalues --  -10.21175 -10.21172 -10.20374 -10.19535 -10.18984
 Alpha  occ. eigenvalues --  -10.18720 -10.18565 -10.18433  -9.44656  -9.44570
 Alpha  occ. eigenvalues --   -9.44512  -7.20525  -7.20441  -7.20380  -7.20221
 Alpha  occ. eigenvalues --   -7.20191  -7.20124  -7.20109  -7.20059  -7.20056
 Alpha  occ. eigenvalues --   -3.68748  -2.46519  -2.45913  -2.45826  -1.13060
 Alpha  occ. eigenvalues --   -1.10147  -1.04581  -0.88614  -0.85112  -0.82368
 Alpha  occ. eigenvalues --   -0.80896  -0.80157  -0.80089  -0.79003  -0.78681
 Alpha  occ. eigenvalues --   -0.77258  -0.75052  -0.70073  -0.69535  -0.67379
 Alpha  occ. eigenvalues --   -0.64723  -0.62950  -0.61960  -0.60000  -0.57815
 Alpha  occ. eigenvalues --   -0.56496  -0.53844  -0.53008  -0.52087  -0.50854
 Alpha  occ. eigenvalues --   -0.50164  -0.49453  -0.49099  -0.48818  -0.48667
 Alpha  occ. eigenvalues --   -0.48402  -0.47415  -0.47002  -0.46937  -0.45814
 Alpha  occ. eigenvalues --   -0.45376  -0.45092  -0.44237  -0.43252  -0.42818
 Alpha  occ. eigenvalues --   -0.42525  -0.41210  -0.40400  -0.39995  -0.39398
 Alpha  occ. eigenvalues --   -0.38880  -0.38407  -0.37991  -0.37791  -0.37650
 Alpha  occ. eigenvalues --   -0.37226  -0.37002  -0.36654  -0.36342  -0.35284
 Alpha  occ. eigenvalues --   -0.34960  -0.34674  -0.33563  -0.32585  -0.32242
 Alpha  occ. eigenvalues --   -0.31750  -0.31689  -0.31507  -0.31331  -0.30438
 Alpha  occ. eigenvalues --   -0.30238  -0.29865  -0.28740  -0.27899  -0.25004
 Alpha virt. eigenvalues --   -0.11189  -0.03567  -0.02291  -0.01699  -0.00807
 Alpha virt. eigenvalues --   -0.00127  -0.00005   0.00114   0.00795   0.01524
 Alpha virt. eigenvalues --    0.01733   0.01921   0.02336   0.02490   0.03224

  Beta  occ. eigenvalues -- -256.21526-101.52742-101.52659-101.52585 -30.12153
  Beta  occ. eigenvalues --  -25.98958 -25.98851 -25.98818 -19.21121 -19.19468
  Beta  occ. eigenvalues --  -19.16214 -10.34185 -10.33569 -10.25212 -10.23311
  Beta  occ. eigenvalues --  -10.22876 -10.21929 -10.21873 -10.21790 -10.21186
  Beta  occ. eigenvalues --  -10.21177 -10.21156 -10.20373 -10.19535 -10.18971
  Beta  occ. eigenvalues --  -10.18719 -10.18566 -10.18434  -9.44460  -9.44381
  Beta  occ. eigenvalues --   -9.44323  -7.20206  -7.20124  -7.20069  -7.19939
  Beta  occ. eigenvalues --   -7.19924  -7.19863  -7.19851  -7.19798  -7.19793
  Beta  occ. eigenvalues --   -3.47885  -2.24191  -2.24079  -2.24028  -1.13052
  Beta  occ. eigenvalues --   -1.09469  -1.04575  -0.88581  -0.85062  -0.82320
  Beta  occ. eigenvalues --   -0.79633  -0.78977  -0.78795  -0.78744  -0.78652
  Beta  occ. eigenvalues --   -0.77252  -0.75015  -0.70059  -0.69426  -0.67262
  Beta  occ. eigenvalues --   -0.64688  -0.62925  -0.61730  -0.59622  -0.57636
  Beta  occ. eigenvalues --   -0.55857  -0.53504  -0.52784  -0.51968  -0.50638
  Beta  occ. eigenvalues --   -0.49842  -0.49210  -0.47467  -0.47030  -0.46456
  Beta  occ. eigenvalues --   -0.45459  -0.45259  -0.44232  -0.43271  -0.42808
  Beta  occ. eigenvalues --   -0.42539  -0.41231  -0.40383  -0.39986  -0.39355
  Beta  occ. eigenvalues --   -0.38834  -0.38595  -0.38315  -0.37840  -0.37661
  Beta  occ. eigenvalues --   -0.37243  -0.37015  -0.36567  -0.36540  -0.36489
  Beta  occ. eigenvalues --   -0.36330  -0.35203  -0.33904  -0.33680  -0.33612
  Beta  occ. eigenvalues --   -0.32997  -0.32831  -0.32389  -0.31685  -0.30768
  Beta  occ. eigenvalues --   -0.30096  -0.29951  -0.28821  -0.27891  -0.24898
  Beta virt. eigenvalues --   -0.15795  -0.15267  -0.14281  -0.13926  -0.13854
  Beta virt. eigenvalues --   -0.10265  -0.03542  -0.02258  -0.01573  -0.00736
  Beta virt. eigenvalues --   -0.00087   0.00030   0.00159   0.00939   0.01550

 Mulliken charges and spin densities:
               1          2
     1  C   -0.079927   0.003497
     2  C    3.146667  -0.001227
     3  C   -0.698910  -0.007711
     4  C    0.081998   0.001731
     5  C    0.272406   0.005871
     6  C   -0.152430  -0.000419
     7  C   -1.862048  -0.010395
     8  C    0.335321   0.014481
     9  C    0.535075   0.002253
    10  C    0.614129  -0.000353
    11  C    0.214371   0.006320
    12  C   -0.017783   0.015694
    13  C    0.114267  -0.001679
    14  O   -0.301801   0.102714
    15  Fe   0.746814   4.073433
    16  Cl  -0.490493   0.262838
    17  C    0.155708  -0.002091
    18  Cl  -0.455380   0.265868
    19  Cl  -0.466434   0.260315
    20  H   -0.277808   0.000218
    21  H   -0.160087   0.000017
    22  H   -0.146458  -0.000074
    23  H   -0.155230   0.000104
    24  H   -0.184612  -0.000087
    25  H   -0.154037  -0.000617
    26  C    0.757642   0.003849
    27  H   -0.134195   0.000543
    28  H   -0.037293   0.000016
    29  H   -0.093032   0.000021
    30  H   -0.115012   0.000719
    31  H   -0.253900  -0.000410
    32  H   -0.011038   0.000084
    33  H    0.059480   0.000705
    34  H   -0.020916   0.000664
    35  H   -0.013689   0.000616
    36  H    0.025374   0.000925
    37  H   -0.008206   0.000020
    38  O   -0.661028   0.001319
    39  O   -0.554794   0.001446
    40  C    0.427157  -0.000265
    41  C    0.040082  -0.000568
    42  H   -0.031838   0.000013
    43  H   -0.037918   0.000001
    44  H   -0.004521   0.000040
    45  H    0.025793   0.000050
    46  H    0.028532  -0.000489
 Sum of Mulliken charges =  -0.00000   5.00000

 Dipole moment (field-independent basis, Debye):
    X=              9.8999    Y=              0.9175    Z=             -1.3591  Tot=             10.0348
 Quadrupole moment (field-independent basis, Debye-Ang):
   XX=           -187.2517   YY=           -171.6337   ZZ=           -164.9495
   XY=            -14.2534   XZ=              6.5782   YZ=             -0.0773

 Normal termination of Gaussian 16 at Mon Jun 21 00:33:12 2021.
