 Gaussian 16, Revision A.03,

 -----------------------------------------------------------
 #p opt=modredundant freq=noraman ub3lyp jul-cc-pvdz pop=cm5
 -----------------------------------------------------------

 -----
 title
 -----
 Symbolic Z-matrix:
 Charge =  0 Multiplicity = 6

 SCF Done:  E(UB3LYP) =  -3531.39982190     A.U. after   26 cycles
 SCF Done:  E(UB3LYP) =  -3531.39974557     A.U. after   15 cycles
 SCF Done:  E(UB3LYP) =  -3531.39972202     A.U. after   17 cycles
 SCF Done:  E(UB3LYP) =  -3531.39940283     A.U. after   15 cycles
 SCF Done:  E(UB3LYP) =  -3531.40005326     A.U. after   10 cycles
 SCF Done:  E(UB3LYP) =  -3531.40038764     A.U. after   15 cycles
 SCF Done:  E(UB3LYP) =  -3531.40044627     A.U. after   15 cycles
 SCF Done:  E(UB3LYP) =  -3531.40048017     A.U. after   15 cycles
 SCF Done:  E(UB3LYP) =  -3531.40050678     A.U. after   13 cycles
 SCF Done:  E(UB3LYP) =  -3531.40052207     A.U. after   13 cycles
 SCF Done:  E(UB3LYP) =  -3531.40071920     A.U. after   14 cycles
 SCF Done:  E(UB3LYP) =  -3531.40072223     A.U. after   12 cycles
 SCF Done:  E(UB3LYP) =  -3531.40072431     A.U. after   14 cycles
 SCF Done:  E(UB3LYP) =  -3531.40072418     A.U. after   14 cycles
 SCF Done:  E(UB3LYP) =  -3531.40072495     A.U. after   11 cycles
 SCF Done:  E(UB3LYP) =  -3531.40072515     A.U. after   11 cycles
 SCF Done:  E(UB3LYP) =  -3531.40072515     A.U. after   11 cycles
 Optimization completed.
    -- Stationary point found.
 Normal termination of Gaussian 16 at Sun Jun 20 07:46:17 2021.

 ----------------------------------------------------------------------
 #P Geom=AllCheck Guess=TCheck SCRF=Check GenChk UB3LYP/Jul-CC-pVDZ Fre
 q
 ----------------------------------------------------------------------

 Structure from the checkpoint file:  "checkpoint.chk"
 -----
 title
 -----
 Charge =  0 Multiplicity = 6

 SCF Done:  E(UB3LYP) =  -3531.40072515     A.U. after    1 cycles

  Exact polarizability: 303.898  -8.836 311.615  22.028  12.724 279.075
 Approx polarizability: 447.896 -22.632 491.211  35.842  23.675 450.102

 ******    1 imaginary frequencies (negative Signs) ******

                      1                      2                      3
                      A                      A                      A
 Frequencies --    -85.8886                18.0563                28.0841
 Red. masses --      5.0438                 9.6482                 4.3947
 Frc consts  --      0.0219                 0.0019                 0.0020
 IR Inten    --      6.3083                 0.7125                 1.5266

                      4                      5                      6
                      A                      A                      A
 Frequencies --     37.1188                46.8783                55.2293
 Red. masses --      7.7306                 4.4959                 4.6072
 Frc consts  --      0.0063                 0.0058                 0.0083
 IR Inten    --      0.6199                 2.6027                 1.0581

                      7                      8                      9
                      A                      A                      A
 Frequencies --     66.4713                70.5343                77.1932
 Red. masses --      4.3739                 3.8297                 3.9537
 Frc consts  --      0.0114                 0.0112                 0.0139
 IR Inten    --      0.2758                 0.5504                 0.9113

                     10                     11                     12
                      A                      A                      A
 Frequencies --     86.9019                92.0751               103.2508
 Red. masses --     12.4660                 6.3412                12.3710
 Frc consts  --      0.0555                 0.0317                 0.0777
 IR Inten    --      0.4080                 1.5468                 0.2280

                     13                     14                     15
                      A                      A                      A
 Frequencies --    110.1763               116.2428               128.5006
 Red. masses --      6.9116                 3.1933                 7.0478
 Frc consts  --      0.0494                 0.0254                 0.0686
 IR Inten    --      0.6702                 1.9403                 5.6809

                     16                     17                     18
                      A                      A                      A
 Frequencies --    136.1886               147.6868               164.6404
 Red. masses --      5.2415                 3.7313                 2.9267
 Frc consts  --      0.0573                 0.0479                 0.0467
 IR Inten    --     25.1641                 3.4477                 1.7347

                     19                     20                     21
                      A                      A                      A
 Frequencies --    185.7096               197.9125               221.9982
 Red. masses --      4.3826                 3.5904                 3.7423
 Frc consts  --      0.0891                 0.0829                 0.1087
 IR Inten    --      3.9779                 7.5753                 3.0332

                     22                     23                     24
                      A                      A                      A
 Frequencies --    225.2927               249.9478               255.8692
 Red. masses --      1.7282                 1.8472                 1.7346
 Frc consts  --      0.0517                 0.0680                 0.0669
 IR Inten    --     11.8546                 2.3280                 3.8876

                     25                     26                     27
                      A                      A                      A
 Frequencies --    263.3816               276.3021               291.0325
 Red. masses --      2.0671                 1.9883                 2.6737
 Frc consts  --      0.0845                 0.0894                 0.1334
 IR Inten    --      1.7198                16.6959                 1.8374

                     28                     29                     30
                      A                      A                      A
 Frequencies --    303.4010               325.1343               343.9794
 Red. masses --      3.3391                14.5367                 5.7354
 Frc consts  --      0.1811                 0.9054                 0.3998
 IR Inten    --      1.2044                36.6481                43.6154

                     31                     32                     33
                      A                      A                      A
 Frequencies --    347.9816               361.4262               378.7742
 Red. masses --      6.4237                 5.6588                 3.8429
 Frc consts  --      0.4583                 0.4355                 0.3248
 IR Inten    --     28.5997                21.7062                 7.1677

                     34                     35                     36
                      A                      A                      A
 Frequencies --    389.7557               409.4296               414.0753
 Red. masses --     27.2072                 3.5522                 2.9749
 Frc consts  --      2.4351                 0.3508                 0.3005
 IR Inten    --     85.9615                 5.0073                 0.9538

                     37                     38                     39
                      A                      A                      A
 Frequencies --    423.4174               468.8914               501.4682
 Red. masses --      3.1889                 3.3075                 2.5593
 Frc consts  --      0.3368                 0.4284                 0.3792
 IR Inten    --      5.3987                 1.0990                 2.2194

                     40                     41                     42
                      A                      A                      A
 Frequencies --    550.7434               587.5990               627.5346
 Red. masses --      3.6840                 2.5466                 6.2635
 Frc consts  --      0.6584                 0.5181                 1.4533
 IR Inten    --     23.7790                 0.9814                 0.4287

                     43                     44                     45
                      A                      A                      A
 Frequencies --    647.0214               679.5666               706.5289
 Red. masses --      4.9984                 3.1709                 1.9620
 Frc consts  --      1.2329                 0.8628                 0.5771
 IR Inten    --     15.0446                 8.4883                39.2252

                     46                     47                     48
                      A                      A                      A
 Frequencies --    715.0380               754.9311               778.5261
 Red. masses --      2.7701                 3.2969                 3.0892
 Frc consts  --      0.8345                 1.1070                 1.1032
 IR Inten    --     18.6849                23.9394                19.3040

                     49                     50                     51
                      A                      A                      A
 Frequencies --    785.9751               795.4902               807.4089
 Red. masses --      1.3766                 3.0525                 1.1627
 Frc consts  --      0.5010                 1.1381                 0.4466
 IR Inten    --     13.8378                12.4603                 0.6819

                     52                     53                     54
                      A                      A                      A
 Frequencies --    820.5281               838.9474               845.1069
 Red. masses --      3.4002                 2.0896                 1.2763
 Frc consts  --      1.3488                 0.8665                 0.5371
 IR Inten    --      9.3424                14.4706                 0.1662

                     55                     56                     57
                      A                      A                      A
 Frequencies --    872.6776               900.4736               918.3552
 Red. masses --      2.6614                 2.6942                 1.7802
 Frc consts  --      1.1942                 1.2871                 0.8846
 IR Inten    --      9.5366                 5.0162                14.5648

                     58                     59                     60
                      A                      A                      A
 Frequencies --    935.8865               980.6375               981.3131
 Red. masses --      1.8295                 1.8701                 1.4559
 Frc consts  --      0.9441                 1.0596                 0.8260
 IR Inten    --      2.6564                 6.6321                 5.3319

                     61                     62                     63
                      A                      A                      A
 Frequencies --    996.5090               999.7871              1003.0632
 Red. masses --      3.9396                 1.8804                 2.9608
 Frc consts  --      2.3050                 1.1074                 1.7551
 IR Inten    --      2.2176                 4.3987                 9.2719

                     64                     65                     66
                      A                      A                      A
 Frequencies --   1003.3623              1010.9573              1026.6581
 Red. masses --      1.3529                 2.4138                 2.0255
 Frc consts  --      0.8025                 1.4535                 1.2578
 IR Inten    --      0.8027                 3.9620                 2.7712

                     67                     68                     69
                      A                      A                      A
 Frequencies --   1038.4039              1047.1964              1056.3600
 Red. masses --      2.8298                 2.5049                 2.4684
 Frc consts  --      1.7978                 1.6185                 1.6229
 IR Inten    --     27.3978                19.2443                53.4425

                     70                     71                     72
                      A                      A                      A
 Frequencies --   1073.0837              1097.6539              1107.4574
 Red. masses --      4.0098                 2.2164                 1.6396
 Frc consts  --      2.7204                 1.5734                 1.1848
 IR Inten    --    209.8474                14.0295                 8.4311

                     73                     74                     75
                      A                      A                      A
 Frequencies --   1133.4708              1155.1261              1169.0026
 Red. masses --      2.1750                 2.0767                 1.5553
 Frc consts  --      1.6464                 1.6326                 1.2523
 IR Inten    --      7.2673                28.5824                 3.7713

                     76                     77                     78
                      A                      A                      A
 Frequencies --   1174.1628              1178.4305              1205.1865
 Red. masses --      1.1267                 2.2528                 1.6860
 Frc consts  --      0.9152                 1.8433                 1.4428
 IR Inten    --      1.3858                29.0799                24.3614

                     79                     80                     81
                      A                      A                      A
 Frequencies --   1208.3353              1214.0458              1221.7691
 Red. masses --      1.3464                 1.5289                 2.5235
 Frc consts  --      1.1582                 1.3277                 2.2194
 IR Inten    --     13.6908                 9.9212               205.1870

                     82                     83                     84
                      A                      A                      A
 Frequencies --   1262.1821              1276.4180              1281.6061
 Red. masses --      1.5813                 1.4146                 1.1568
 Frc consts  --      1.4842                 1.3579                 1.1195
 IR Inten    --     41.1895                11.4538                14.7747

                     85                     86                     87
                      A                      A                      A
 Frequencies --   1283.7151              1294.8879              1313.5697
 Red. masses --      1.7063                 1.2234                 1.4016
 Frc consts  --      1.6567                 1.2086                 1.4249
 IR Inten    --    120.7039                10.2602                23.3324

                     88                     89                     90
                      A                      A                      A
 Frequencies --   1322.0042              1329.8219              1333.0724
 Red. masses --      1.4411                 1.6302                 1.4123
 Frc consts  --      1.4839                 1.6985                 1.4787
 IR Inten    --     11.1710                49.2310                51.7101

                     91                     92                     93
                      A                      A                      A
 Frequencies --   1343.3958              1358.1174              1369.8561
 Red. masses --      1.6610                 2.4317                 1.3455
 Frc consts  --      1.7661                 2.6427                 1.4876
 IR Inten    --     36.2507                 0.4614                 8.1924

                     94                     95                     96
                      A                      A                      A
 Frequencies --   1393.3198              1396.2310              1418.4340
 Red. masses --      1.1049                 1.6412                 1.5106
 Frc consts  --      1.2638                 1.8851                 1.7907
 IR Inten    --     14.4486                56.2649                 7.1141

                     97                     98                     99
                      A                      A                      A
 Frequencies --   1422.7038              1435.0336              1468.1674
 Red. masses --      1.1175                 1.2851                 2.2791
 Frc consts  --      1.3326                 1.5593                 2.8944
 IR Inten    --      6.5835                23.2143                 8.3959

                    100                    101                    102
                      A                      A                      A
 Frequencies --   1474.9138              1488.0748              1488.5279
 Red. masses --      1.0388                 1.0881                 1.0543
 Frc consts  --      1.3314                 1.4196                 1.3764
 IR Inten    --      4.2277                 2.0053                 1.1151

                    103                    104                    105
                      A                      A                      A
 Frequencies --   1495.5871              1496.4293              1506.3595
 Red. masses --      1.2417                 1.3377                 1.1765
 Frc consts  --      1.6364                 1.7649                 1.5729
 IR Inten    --     10.2008                25.8639                12.3550

                    106                    107                    108
                      A                      A                      A
 Frequencies --   1507.9197              1520.5637              1624.7035
 Red. masses --      1.0906                 2.1281                 5.6780
 Frc consts  --      1.4611                 2.8991                 8.8306
 IR Inten    --      5.2083                 6.8901                 0.4194

                    109                    110                    111
                      A                      A                      A
 Frequencies --   1643.9553              1769.4827              2706.0517
 Red. masses --      5.7917                11.7668                 1.0683
 Frc consts  --      9.2222                21.7071                 4.6091
 IR Inten    --      0.1324               220.9233               371.8077

                    112                    113                    114
                      A                      A                      A
 Frequencies --   2825.1745              3038.1282              3053.7872
 Red. masses --      1.0676                 1.0353                 1.0688
 Frc consts  --      5.0204                 5.6303                 5.8726
 IR Inten    --    355.6480                18.5482                 3.5332

                    115                    116                    117
                      A                      A                      A
 Frequencies --   3056.8309              3059.6193              3066.7026
 Red. masses --      1.0581                 1.0626                 1.0622
 Frc consts  --      5.8255                 5.8605                 5.8858
 IR Inten    --     17.3187                20.3730                 2.6005

                    118                    119                    120
                      A                      A                      A
 Frequencies --   3074.4726              3077.6594              3092.8150
 Red. masses --      1.0623                 1.0839                 1.0912
 Frc consts  --      5.9163                 6.0489                 6.1498
 IR Inten    --     21.3894                 9.0764                 2.7784

                    121                    122                    123
                      A                      A                      A
 Frequencies --   3100.1986              3105.7214              3114.8179
 Red. masses --      1.1073                 1.0975                 1.1017
 Frc consts  --      6.2704                 6.2369                 6.2978
 IR Inten    --      7.0661                 9.0443                19.7023

                    124                    125                    126
                      A                      A                      A
 Frequencies --   3126.0086              3129.7548              3164.1672
 Red. masses --      1.1042                 1.1052                 1.1038
 Frc consts  --      6.3572                 6.3782                 6.5111
 IR Inten    --     18.4916                21.8863                 6.1508

                    127                    128                    129
                      A                      A                      A
 Frequencies --   3165.0403              3175.1794              3183.9656
 Red. masses --      1.0853                 1.0879                 1.0930
 Frc consts  --      6.4054                 6.4624                 6.5286
 IR Inten    --      2.5357                 4.7974                20.2258

                    130                    131                    132
                      A                      A                      A
 Frequencies --   3186.4698              3195.0398              3214.4680
 Red. masses --      1.0974                 1.0979                 1.0928
 Frc consts  --      6.5653                 6.6033                 6.6529
 IR Inten    --      4.7730                13.9351                 5.2932

 - Thermochemistry -
 -------------------
 Temperature   298.150 Kelvin.  Pressure   1.00000 Atm.
 Atom     1 has atomic number  6 and mass  12.00000

 Molecular mass:   434.99839 amu.
 Principal axes and moments of inertia in atomic units:
                           1         2         3
     Eigenvalues --  8895.06833********************
           X            0.99735   0.07046   0.01813
           Y           -0.07040   0.99751  -0.00393
           Z           -0.01836   0.00264   0.99983
 This molecule is an asymmetric top.
 Rotational symmetry number  1.
 Warning -- assumption of classical behavior for rotation
           may cause significant error
 Rotational temperatures (Kelvin)      0.00974     0.00757     0.00679
 Rotational constants (GHZ):           0.20289     0.15766     0.14142
    1 imaginary frequencies ignored.
 Zero-point vibrational energy     940275.8 (Joules/Mol)
                                  224.73132 (Kcal/Mol)
 Warning -- explicit consideration of  40 degrees of freedom as
           vibrations may cause significant error
 Vibrational temperatures:     25.98    40.41    53.41    67.45    79.46
          (Kelvin)             95.64   101.48   111.06   125.03   132.48
                              148.55   158.52   167.25   184.88   195.94
                              212.49   236.88   267.19   284.75   319.41
                              324.15   359.62   368.14   378.95   397.54
                              418.73   436.53   467.80   494.91   500.67
                              520.01   544.97   560.77   589.08   595.76
                              609.20   674.63   721.50   792.40   845.42
                              902.88   930.92   977.74  1016.54  1028.78
                             1086.18  1120.13  1130.84  1144.53  1161.68
                             1180.56  1207.06  1215.92  1255.59  1295.58
                             1321.31  1346.53  1410.92  1411.89  1433.75
                             1438.47  1443.18  1443.61  1454.54  1477.13
                             1494.03  1506.68  1519.87  1543.93  1579.28
                             1593.38  1630.81  1661.97  1681.93  1689.36
                             1695.50  1733.99  1738.53  1746.74  1757.85
                             1816.00  1836.48  1843.95  1846.98  1863.05
                             1889.93  1902.07  1913.32  1917.99  1932.85
                             1954.03  1970.92  2004.68  2008.86  2040.81
                             2046.95  2064.69  2112.37  2122.07  2141.01
                             2141.66  2151.82  2153.03  2167.32  2169.56
                             2187.75  2337.59  2365.29  2545.89  3893.40
                             4064.80  4371.19  4393.72  4398.10  4402.11
                             4412.30  4423.48  4428.07  4449.87  4460.49
                             4468.44  4481.53  4497.63  4503.02  4552.53
                             4553.79  4568.38  4581.02  4584.62  4596.95
                             4624.90

 Zero-point correction=                           0.358132 (Hartree/Particle)
 Thermal correction to Energy=                    0.384976
 Thermal correction to Enthalpy=                  0.385920
 Thermal correction to Gibbs Free Energy=         0.296982
 Sum of electronic and zero-point Energies=          -3531.042593
 Sum of electronic and thermal Energies=             -3531.015750
 Sum of electronic and thermal Enthalpies=           -3531.014805
 Sum of electronic and thermal Free Energies=        -3531.103744

                     E (Thermal)             CV                S
                      KCal/Mol        Cal/Mol-Kelvin    Cal/Mol-Kelvin
 Total                  241.576             96.568            187.186
 Electronic               0.000              0.000              3.561
 Translational            0.889              2.981             44.100
 Rotational               0.889              2.981             35.517
 Vibrational            239.798             90.607            104.008
 Vibration     1          0.593              1.986              6.837
 Vibration     2          0.593              1.984              5.960
 Vibration     3          0.594              1.982              5.407
 Vibration     4          0.595              1.979              4.945
 Vibration     5          0.596              1.975              4.621
 Vibration     6          0.598              1.970              4.255
 Vibration     7          0.598              1.968              4.138
 Vibration     8          0.599              1.964              3.961
 Vibration     9          0.601              1.958              3.729
 Vibration    10          0.602              1.955              3.615
 Vibration    11          0.605              1.947              3.392
 Vibration    12          0.606              1.941              3.266
 Vibration    13          0.608              1.936              3.162
 Vibration    14          0.611              1.925              2.968
 Vibration    15          0.614              1.917              2.857
 Vibration    16          0.617              1.905              2.702
 Vibration    17          0.623              1.886              2.496
 Vibration    18          0.632              1.859              2.270
 Vibration    19          0.637              1.843              2.152
 Vibration    20          0.648              1.808              1.943
 Vibration    21          0.650              1.803              1.916
 Vibration    22          0.663              1.763              1.731
 Vibration    23          0.666              1.753              1.690
 Vibration    24          0.670              1.740              1.639
 Vibration    25          0.678              1.717              1.556
 Vibration    26          0.687              1.690              1.468
 Vibration    27          0.695              1.667              1.398
 Vibration    28          0.709              1.625              1.284
 Vibration    29          0.723              1.588              1.194
 Vibration    30          0.726              1.579              1.175
 Vibration    31          0.736              1.552              1.116
 Vibration    32          0.749              1.515              1.044
 Vibration    33          0.758              1.492              1.001
 Vibration    34          0.774              1.450              0.929
 Vibration    35          0.778              1.440              0.912
 Vibration    36          0.786              1.419              0.880
 Vibration    37          0.826              1.319              0.741
 Vibration    38          0.857              1.247              0.654
 Vibration    39          0.906              1.138              0.543
 Vibration    40          0.945              1.058              0.471

                           ! Non-Optimized Parameters !
 Normal termination of Gaussian 16 at Sun Jun 20 12:04:36 2021.

 ----------------------------------------------------------------------
 #p ub3lyp jul-cc-pvdz pop=cm5 scrf=(pcm,solvent=dichloroethane) guess=
 read geom=allcheck
 ----------------------------------------------------------------------

 Structure from the checkpoint file:  "checkpoint.chk"
 -----
 title
 -----
 Charge =  0 Multiplicity = 6

 SCF Done:  E(UB3LYP) =  -3531.42947846     A.U. after   19 cycles
 Normal termination of Gaussian 16 at Sun Jun 20 12:31:35 2021.
 Gaussian 16:  ES64L-G16RevA.03 25-Dec-2016

 ----------------------------------------------------------------------
 #p ub3lyp jul-cc-pvdz pop=cm5 scrf=(pcm,solvent=water) guess=read geom
 =allcheck
 ----------------------------------------------------------------------

 Structure from the checkpoint file:  "checkpoint.chk"
 -----
 title
 -----
 Charge =  0 Multiplicity = 6

                         Standard orientation:
 ---------------------------------------------------------------------
 Center     Atomic      Atomic             Coordinates (Angstroms)
 Number     Number       Type             X           Y           Z
 ---------------------------------------------------------------------
      1          6           0        2.176997   -1.750652    1.611286
      2          6           0        1.396147   -0.746278    1.018225
      3          6           0        1.397930    0.528573    1.602678
      4          6           0        2.148123    0.786554    2.752073
      5          6           0        2.917762   -0.222009    3.337601
      6          6           0        2.931142   -1.493112    2.759889
      7          6           0        0.594592   -0.985367   -0.275168
      8          6           0        1.519425   -0.757510   -1.548523
      9          6           0        2.213464   -2.103364   -1.756879
     10          6           0        1.161724   -3.162940   -1.354609
     11          6           0        0.155177   -2.413652   -0.405255
     12          6           0       -1.244556   -2.477597   -0.937951
     13          6           0       -1.619880   -2.063495   -2.289015
     14          8           0       -0.537802   -0.152399   -0.351479
     15         26           0       -1.946566    0.817868    0.350523
     16         17           0       -3.535800    0.639651   -1.251433
     17          6           0       -2.288538   -2.975675   -0.055391
     18         17           0       -1.464629    2.924493    0.822268
     19         17           0       -2.668060   -0.340426    2.153270
     20          1           0        0.804409    1.328766    1.166026
     21          1           0        2.120624    1.783326    3.194436
     22          1           0        3.499541   -0.020362    4.238129
     23          1           0        3.527158   -2.292222    3.203138
     24          1           0        2.216339   -2.755774    1.190445
     25          1           0        0.830710   -0.527909   -2.371721
     26          6           0        2.482983    0.412987   -1.439840
     27          1           0        2.560750   -2.235782   -2.789169
     28          1           0        3.097595   -2.159157   -1.110947
     29          1           0        0.648872   -3.565713   -2.238158
     30          1           0        1.604171   -4.021994   -0.835716
     31          1           0        0.139171   -2.884281    0.582781
     32          1           0       -1.939625   -3.812454    0.566295
     33          1           0       -2.448894   -2.144083    0.689860
     34          1           0       -3.243145   -3.183939   -0.547985
     35          1           0       -2.241709   -2.839765   -2.762173
     36          1           0       -2.309781   -1.193806   -2.154030
     37          1           0       -0.790469   -1.770615   -2.934427
     38          8           0        1.846609    1.579026   -1.636697
     39          8           0        3.672161    0.309020   -1.221440
     40          6           0        2.647838    2.787313   -1.509257
     41          6           0        1.736468    3.968279   -1.774219
     42          1           0        3.074626    2.807560   -0.497347
     43          1           0        3.478352    2.726448   -2.225827
     44          1           0        2.310026    4.900398   -1.667176
     45          1           0        1.327920    3.929212   -2.793620
     46          1           0        0.899870    3.986853   -1.063109
 ---------------------------------------------------------------------

 SCF Done:  E(UB3LYP) =  -3531.43502464     A.U. after   14 cycles

 The electronic state is 6-A.
 Alpha  occ. eigenvalues -- -256.19700-101.51953-101.51899-101.51804 -30.19098
 Alpha  occ. eigenvalues --  -26.04435 -26.04343 -26.04208 -19.20161 -19.15949
 Alpha  occ. eigenvalues --  -19.15120 -10.32960 -10.32707 -10.28426 -10.24724
 Alpha  occ. eigenvalues --  -10.22945 -10.22301 -10.22190 -10.21657 -10.21436
 Alpha  occ. eigenvalues --  -10.21193 -10.20326 -10.20112 -10.20016 -10.19965
 Alpha  occ. eigenvalues --  -10.19927 -10.19790 -10.18552  -9.43653  -9.43632
 Alpha  occ. eigenvalues --   -9.43508  -7.19516  -7.19483  -7.19370  -7.19219
 Alpha  occ. eigenvalues --   -7.19189  -7.19168  -7.19164  -7.19057  -7.19037
 Alpha  occ. eigenvalues --   -3.66840  -2.44388  -2.44211  -2.43986  -1.11947
 Alpha  occ. eigenvalues --   -1.03486  -1.02950  -0.89651  -0.87173  -0.84775
 Alpha  occ. eigenvalues --   -0.79844  -0.79213  -0.79103  -0.78931  -0.77365
 Alpha  occ. eigenvalues --   -0.76082  -0.75583  -0.74880  -0.72312  -0.66615
 Alpha  occ. eigenvalues --   -0.64013  -0.62001  -0.61040  -0.59895  -0.57301
 Alpha  occ. eigenvalues --   -0.56719  -0.55036  -0.53577  -0.51428  -0.50675
 Alpha  occ. eigenvalues --   -0.49949  -0.49504  -0.48575  -0.48090  -0.47820
 Alpha  occ. eigenvalues --   -0.47265  -0.47127  -0.46857  -0.46606  -0.46068
 Alpha  occ. eigenvalues --   -0.44988  -0.44561  -0.44012  -0.43321  -0.42893
 Alpha  occ. eigenvalues --   -0.42590  -0.42087  -0.41493  -0.41056  -0.40636
 Alpha  occ. eigenvalues --   -0.39892  -0.38810  -0.37758  -0.37528  -0.37105
 Alpha  occ. eigenvalues --   -0.36997  -0.36158  -0.35834  -0.35753  -0.35451
 Alpha  occ. eigenvalues --   -0.34932  -0.34198  -0.33806  -0.31783  -0.31250
 Alpha  occ. eigenvalues --   -0.30873  -0.30646  -0.30554  -0.30489  -0.29801
 Alpha  occ. eigenvalues --   -0.29454  -0.28984  -0.28220  -0.26636  -0.26209
 Alpha virt. eigenvalues --   -0.14042  -0.02963  -0.02718  -0.01513  -0.01312
 Alpha virt. eigenvalues --   -0.00217  -0.00066   0.00082   0.01415   0.01682
 Alpha virt. eigenvalues --    0.01727   0.01829   0.02444   0.03252   0.03815

  Beta  occ. eigenvalues -- -256.19516-101.51798-101.51736-101.51653 -30.10170
  Beta  occ. eigenvalues --  -25.96960 -25.96911 -25.96792 -19.20161 -19.15116
  Beta  occ. eigenvalues --  -19.15057 -10.32962 -10.32708 -10.28398 -10.24724
  Beta  occ. eigenvalues --  -10.22924 -10.22303 -10.22186 -10.21629 -10.21435
  Beta  occ. eigenvalues --  -10.21174 -10.20323 -10.20111 -10.20016 -10.19965
  Beta  occ. eigenvalues --  -10.19923 -10.19793 -10.18551  -9.43500  -9.43472
  Beta  occ. eigenvalues --   -9.43359  -7.19231  -7.19220  -7.19094  -7.19026
  Beta  occ. eigenvalues --   -7.18976  -7.18957  -7.18954  -7.18872  -7.18843
  Beta  occ. eigenvalues --   -3.46032  -2.22357  -2.22316  -2.22135  -1.11944
  Beta  occ. eigenvalues --   -1.03480  -1.01262  -0.89389  -0.87120  -0.84691
  Beta  occ. eigenvalues --   -0.79017  -0.78793  -0.78107  -0.78016  -0.77248
  Beta  occ. eigenvalues --   -0.76058  -0.75562  -0.74858  -0.72116  -0.66516
  Beta  occ. eigenvalues --   -0.63954  -0.61951  -0.60994  -0.59724  -0.57227
  Beta  occ. eigenvalues --   -0.56178  -0.54935  -0.52358  -0.51299  -0.50639
  Beta  occ. eigenvalues --   -0.49797  -0.49150  -0.48121  -0.47745  -0.47442
  Beta  occ. eigenvalues --   -0.46084  -0.44641  -0.44337  -0.43377  -0.42969
  Beta  occ. eigenvalues --   -0.42830  -0.42073  -0.41512  -0.41120  -0.40622
  Beta  occ. eigenvalues --   -0.39883  -0.38694  -0.37706  -0.37482  -0.37473
  Beta  occ. eigenvalues --   -0.36983  -0.36286  -0.36028  -0.35810  -0.35506
  Beta  occ. eigenvalues --   -0.35382  -0.35237  -0.34880  -0.32811  -0.32714
  Beta  occ. eigenvalues --   -0.32370  -0.31931  -0.31564  -0.31501  -0.29595
  Beta  occ. eigenvalues --   -0.29542  -0.29181  -0.28357  -0.26636  -0.26178
  Beta virt. eigenvalues --   -0.14325  -0.13360  -0.13349  -0.12464  -0.12129
  Beta virt. eigenvalues --   -0.11212  -0.02900  -0.02692  -0.01412  -0.01266
  Beta virt. eigenvalues --   -0.00164  -0.00038   0.00112   0.01441   0.01696

 Mulliken charges and spin densities:
               1          2
     1  C   -0.337193   0.002356
     2  C    3.236711   0.006492
     3  C   -0.611289  -0.006448
     4  C    0.069000   0.004913
     5  C    0.171796   0.000812
     6  C   -0.127596   0.001286
     7  C   -2.600459  -0.016497
     8  C    0.580193   0.011621
     9  C    0.625521   0.002597
    10  C    0.557419   0.000514
    11  C    1.175861   0.021858
    12  C   -0.603596   0.000486
    13  C    0.128532  -0.004448
    14  O   -0.367689   0.310334
    15  Fe   0.673028   4.037350
    16  Cl  -0.570708   0.201989
    17  C    0.312409  -0.003015
    18  Cl  -0.498032   0.226093
    19  Cl  -0.558146   0.198051
    20  H   -0.278042   0.000204
    21  H   -0.167507  -0.000068
    22  H   -0.163061   0.000007
    23  H   -0.160638   0.000168
    24  H   -0.220688  -0.000005
    25  H   -0.195344  -0.000320
    26  C    0.886306   0.002043
    27  H   -0.148985   0.000765
    28  H   -0.063578   0.000051
    29  H   -0.094360   0.000077
    30  H   -0.095102   0.000186
    31  H   -0.191419   0.000197
    32  H    0.055081  -0.000187
    33  H    0.204900   0.001573
    34  H    0.006300   0.000021
    35  H    0.057821   0.000122
    36  H    0.171884  -0.000618
    37  H    0.074334   0.000085
    38  O   -0.721836  -0.001137
    39  O   -0.652552   0.001333
    40  C    0.430538  -0.000993
    41  C    0.051027   0.000495
    42  H   -0.035207   0.000006
    43  H   -0.049331   0.000009
    44  H   -0.005190   0.000024
    45  H    0.020432  -0.000014
    46  H    0.028454  -0.000369
 Sum of Mulliken charges =  -0.00000   5.00000

 Dipole moment (field-independent basis, Debye):
    X=              4.2060    Y=            -12.7729    Z=             -5.5817  Tot=             14.5600
 Quadrupole moment (field-independent basis, Debye-Ang):
   XX=           -204.5206   YY=           -144.8719   ZZ=           -170.1344
   XY=             21.5412   XZ=             12.2433   YZ=              7.4733

 Normal termination of Gaussian 16 at Sun Jun 20 12:51:43 2021.
