 Gaussian 16, Revision A.03,

 -----------------------------------------------------------
 #p opt=modredundant freq=noraman ub3lyp jul-cc-pvdz pop=cm5
 -----------------------------------------------------------

 -----
 title
 -----
 Symbolic Z-matrix:
 Charge =  0 Multiplicity = 6

 SCF Done:  E(UB3LYP) =  -3531.44999868     A.U. after   24 cycles
 SCF Done:  E(UB3LYP) =  -3531.45019250     A.U. after   16 cycles
 SCF Done:  E(UB3LYP) =  -3531.44878509     A.U. after   20 cycles
 SCF Done:  E(UB3LYP) =  -3531.45018201     A.U. after   16 cycles
 SCF Done:  E(UB3LYP) =  -3531.45043768     A.U. after   10 cycles
 SCF Done:  E(UB3LYP) =  -3531.45057392     A.U. after   15 cycles
 SCF Done:  E(UB3LYP) =  -3531.45060613     A.U. after   14 cycles
 SCF Done:  E(UB3LYP) =  -3531.45061488     A.U. after   14 cycles
 SCF Done:  E(UB3LYP) =  -3531.45064274     A.U. after   12 cycles
 SCF Done:  E(UB3LYP) =  -3531.45064295     A.U. after   11 cycles
 SCF Done:  E(UB3LYP) =  -3531.45064547     A.U. after   11 cycles
 SCF Done:  E(UB3LYP) =  -3531.45064538     A.U. after   11 cycles
 SCF Done:  E(UB3LYP) =  -3531.45064554     A.U. after   11 cycles
 SCF Done:  E(UB3LYP) =  -3531.45064563     A.U. after    9 cycles
 SCF Done:  E(UB3LYP) =  -3531.45064579     A.U. after    9 cycles
 SCF Done:  E(UB3LYP) =  -3531.45064599     A.U. after   10 cycles
 SCF Done:  E(UB3LYP) =  -3531.45064613     A.U. after    9 cycles
 Optimization completed.
    -- Stationary point found.
 Normal termination of Gaussian 16 at Sun Jun 20 15:53:20 2021.

 ----------------------------------------------------------------------
 #P Geom=AllCheck Guess=TCheck SCRF=Check GenChk UB3LYP/Jul-CC-pVDZ Fre
 q
 ----------------------------------------------------------------------

 Structure from the checkpoint file:  "checkpoint.chk"
 -----
 title
 -----
 Charge =  0 Multiplicity = 6

 SCF Done:  E(UB3LYP) =  -3531.45064613     A.U. after    1 cycles

  Exact polarizability: 305.853  10.228 308.765  25.101   1.730 303.705
 Approx polarizability: 471.578  46.121 471.873  49.502  -7.262 488.897

 ******    1 imaginary frequencies (negative Signs) ******

                      1                      2                      3
                      A                      A                      A
 Frequencies --     -4.1321                14.2715                22.3826
 Red. masses --      6.6923                 6.8154                 8.1489
 Frc consts  --      0.0001                 0.0008                 0.0024
 IR Inten    --      0.4317                 0.6381                 0.3741

                      4                      5                      6
                      A                      A                      A
 Frequencies --     34.2697                42.1888                53.6035
 Red. masses --      4.5588                 7.2902                 4.8912
 Frc consts  --      0.0032                 0.0076                 0.0083
 IR Inten    --      0.8508                 1.2435                 0.6916

                      7                      8                      9
                      A                      A                      A
 Frequencies --     64.0352                65.3094                75.8343
 Red. masses --      4.0369                 3.1855                 4.6673
 Frc consts  --      0.0098                 0.0080                 0.0158
 IR Inten    --      0.4967                 0.8984                 0.7648

                     10                     11                     12
                      A                      A                      A
 Frequencies --     78.3689                82.7135                94.0055
 Red. masses --      6.1167                 8.9430                 3.6002
 Frc consts  --      0.0221                 0.0360                 0.0187
 IR Inten    --      0.8203                 0.4689                 1.7073

                     13                     14                     15
                      A                      A                      A
 Frequencies --     97.8526               107.9844               109.8423
 Red. masses --      3.8190                 5.1231                 2.9484
 Frc consts  --      0.0215                 0.0352                 0.0210
 IR Inten    --      1.2893                 0.2187                 0.1247

                     16                     17                     18
                      A                      A                      A
 Frequencies --    117.0486               121.0153               133.5457
 Red. masses --      4.5693                11.4748                 1.6159
 Frc consts  --      0.0369                 0.0990                 0.0170
 IR Inten    --      0.8294                 1.8392                 0.9459

                     19                     20                     21
                      A                      A                      A
 Frequencies --    148.5460               157.6066               179.9683
 Red. masses --      3.3298                 7.4172                 3.7859
 Frc consts  --      0.0433                 0.1086                 0.0722
 IR Inten    --      2.8750                13.9408                 8.5911

                     22                     23                     24
                      A                      A                      A
 Frequencies --    204.6369               207.9527               213.0963
 Red. masses --      1.3366                 2.9769                 3.1557
 Frc consts  --      0.0330                 0.0758                 0.0844
 IR Inten    --      5.5482                 1.8761                 2.1230

                     25                     26                     27
                      A                      A                      A
 Frequencies --    259.1248               261.7924               282.2539
 Red. masses --      1.4584                 3.2166                 4.0746
 Frc consts  --      0.0577                 0.1299                 0.1913
 IR Inten    --      1.6154                25.3809                 1.3934

                     28                     29                     30
                      A                      A                      A
 Frequencies --    302.1435               311.3352               342.8592
 Red. masses --      8.1276                 2.3531                21.3584
 Frc consts  --      0.4372                 0.1344                 1.4793
 IR Inten    --     15.9530                 0.5455                33.7851

                     31                     32                     33
                      A                      A                      A
 Frequencies --    352.0290               379.1958               390.1177
 Red. masses --      5.5614                 3.8291                 2.8959
 Frc consts  --      0.4061                 0.3244                 0.2597
 IR Inten    --     19.8887                 2.1665                 8.5040

                     34                     35                     36
                      A                      A                      A
 Frequencies --    399.1204               407.2521               414.0162
 Red. masses --     24.7075                25.0546                 3.0740
 Frc consts  --      2.3189                 2.4483                 0.3104
 IR Inten    --     73.7672                77.7358                 4.5523

                     37                     38                     39
                      A                      A                      A
 Frequencies --    422.2619               445.9127               474.9646
 Red. masses --      3.7087                 2.7939                 3.2662
 Frc consts  --      0.3896                 0.3273                 0.4341
 IR Inten    --     24.1062                 8.0746                 0.3143

                     40                     41                     42
                      A                      A                      A
 Frequencies --    492.1360               513.5596               537.9621
 Red. masses --      2.5016                 2.8641                 4.2080
 Frc consts  --      0.3570                 0.4451                 0.7175
 IR Inten    --      8.5879                 2.2499                18.0098

                     43                     44                     45
                      A                      A                      A
 Frequencies --    581.6860               624.0622               654.9850
 Red. masses --      4.9479                 6.3917                 4.5683
 Frc consts  --      0.9864                 1.4666                 1.1547
 IR Inten    --     54.8182                 2.5656                49.6748

                     46                     47                     48
                      A                      A                      A
 Frequencies --    694.6046               697.4956               751.9014
 Red. masses --      5.7830                 1.6009                 4.2407
 Frc consts  --      1.6439                 0.4589                 1.4126
 IR Inten    --      6.6095                57.0757                 4.2841

                     49                     50                     51
                      A                      A                      A
 Frequencies --    773.9142               789.5360               805.9034
 Red. masses --      2.3009                 2.2530                 1.1391
 Frc consts  --      0.8120                 0.8275                 0.4359
 IR Inten    --     28.6823                 3.2846                 1.4109

                     52                     53                     54
                      A                      A                      A
 Frequencies --    831.8287               846.4046               853.0938
 Red. masses --      4.7561                 1.4625                 1.2500
 Frc consts  --      1.9390                 0.6173                 0.5360
 IR Inten    --      8.3971                18.4318                 0.9097

                     55                     56                     57
                      A                      A                      A
 Frequencies --    865.3279               900.7825               909.0222
 Red. masses --      2.7625                 2.1373                 2.1070
 Frc consts  --      1.2188                 1.0218                 1.0258
 IR Inten    --     28.0715                 1.0005                15.4815

                     58                     59                     60
                      A                      A                      A
 Frequencies --    959.9422               961.6300               975.2640
 Red. masses --      1.5025                 1.3991                 3.1094
 Frc consts  --      0.8158                 0.7623                 1.7425
 IR Inten    --      3.5870                 1.4451                20.4630

                     61                     62                     63
                      A                      A                      A
 Frequencies --    991.7705               996.2947               998.8464
 Red. masses --      2.2255                 1.4128                 1.5842
 Frc consts  --      1.2897                 0.8262                 0.9312
 IR Inten    --     36.1798                 6.4344                 5.5618

                     64                     65                     66
                      A                      A                      A
 Frequencies --   1003.3982              1013.7592              1022.3850
 Red. masses --      3.1565                 1.3479                 2.0938
 Frc consts  --      1.8724                 0.8162                 1.2895
 IR Inten    --      0.3232                 0.7987                 0.2638

                     67                     68                     69
                      A                      A                      A
 Frequencies --   1036.8798              1047.3713              1077.5572
 Red. masses --      2.6014                 2.3789                 2.1132
 Frc consts  --      1.6478                 1.5376                 1.4457
 IR Inten    --     43.9162                 2.7315                 1.1505

                     70                     71                     72
                      A                      A                      A
 Frequencies --   1094.6815              1101.3999              1116.9339
 Red. masses --      1.7258                 2.1365                 1.5865
 Frc consts  --      1.2184                 1.5270                 1.1661
 IR Inten    --      0.5907                16.0565                 6.5485

                     73                     74                     75
                      A                      A                      A
 Frequencies --   1133.3494              1139.4167              1165.1937
 Red. masses --      2.1724                 2.1623                 1.6974
 Frc consts  --      1.6440                 1.6540                 1.3578
 IR Inten    --     15.8622                 6.9733                84.6403

                     76                     77                     78
                      A                      A                      A
 Frequencies --   1169.8430              1179.2265              1206.0317
 Red. masses --      1.5963                 1.0861                 1.4595
 Frc consts  --      1.2871                 0.8899                 1.2507
 IR Inten    --     15.7707                 1.1392                47.7672

                     79                     80                     81
                      A                      A                      A
 Frequencies --   1209.9145              1228.5249              1253.0057
 Red. masses --      1.3350                 2.0266                 1.9973
 Frc consts  --      1.1514                 1.8022                 1.8475
 IR Inten    --     58.3329               166.4999                25.1696

                     82                     83                     84
                      A                      A                      A
 Frequencies --   1274.6120              1284.0400              1324.6980
 Red. masses --      2.0897                 1.1324                 1.4174
 Frc consts  --      2.0002                 1.1001                 1.4654
 IR Inten    --    166.8475                 4.5285                 8.1729

                     85                     86                     87
                      A                      A                      A
 Frequencies --   1326.8471              1337.6630              1343.1813
 Red. masses --      1.7487                 1.5130                 1.6924
 Frc consts  --      1.8138                 1.5951                 1.7990
 IR Inten    --    118.5913                24.0726                22.4267

                     88                     89                     90
                      A                      A                      A
 Frequencies --   1367.5669              1371.4060              1380.2563
 Red. masses --      2.2618                 1.7457                 1.3364
 Frc consts  --      2.4923                 1.9344                 1.5001
 IR Inten    --      3.7643                10.5451                16.2130

                     91                     92                     93
                      A                      A                      A
 Frequencies --   1381.2119              1405.1212              1410.0401
 Red. masses --      1.3597                 1.3986                 1.3227
 Frc consts  --      1.5283                 1.6269                 1.5495
 IR Inten    --      9.5090                 7.2603                15.3261

                     94                     95                     96
                      A                      A                      A
 Frequencies --   1416.0514              1460.3353              1466.6752
 Red. masses --      1.3976                 1.0603                 1.5069
 Frc consts  --      1.6512                 1.3323                 1.9099
 IR Inten    --     12.4141                 4.0954                15.6587

                     97                     98                     99
                      A                      A                      A
 Frequencies --   1467.8210              1474.4915              1479.1961
 Red. masses --      1.4250                 1.0385                 1.0719
 Frc consts  --      1.8089                 1.3302                 1.3819
 IR Inten    --     17.5712                 5.2751                 2.4263

                    100                    101                    102
                      A                      A                      A
 Frequencies --   1482.2756              1486.9061              1487.3739
 Red. masses --      1.0565                 1.0767                 1.0772
 Frc consts  --      1.3677                 1.4025                 1.4040
 IR Inten    --     16.7950                 6.7554                 3.3759

                    103                    104                    105
                      A                      A                      A
 Frequencies --   1490.6436              1505.3308              1518.6923
 Red. masses --      1.0906                 1.0828                 2.1513
 Frc consts  --      1.4277                 1.4457                 2.9235
 IR Inten    --      8.6899                 6.5098                 6.2838

                    106                    107                    108
                      A                      A                      A
 Frequencies --   1563.3079              1620.9284              1641.7481
 Red. masses --      7.0040                 5.5420                 5.6911
 Frc consts  --     10.0852                 8.5791                 9.0377
 IR Inten    --    670.5673                51.7535                37.9969

                    109                    110                    111
                      A                      A                      A
 Frequencies --   1709.4696              1769.2840              3014.8204
 Red. masses --      6.3419                11.5762                 1.0383
 Frc consts  --     10.9193                21.3507                 5.5603
 IR Inten    --     85.4919               216.2540                13.8396

                    112                    113                    114
                      A                      A                      A
 Frequencies --   3024.0660              3026.0266              3042.0539
 Red. masses --      1.0575                 1.0495                 1.0355
 Frc consts  --      5.6978                 5.6619                 5.6462
 IR Inten    --     22.6186                21.0001                15.2331

                    115                    116                    117
                      A                      A                      A
 Frequencies --   3061.6190              3067.2221              3070.8074
 Red. masses --      1.0582                 1.0639                 1.0978
 Frc consts  --      5.8442                 5.8974                 6.0995
 IR Inten    --     14.2527                24.3618                 1.3989

                    118                    119                    120
                      A                      A                      A
 Frequencies --   3076.2831              3077.4317              3084.5889
 Red. masses --      1.0976                 1.0847                 1.0955
 Frc consts  --      6.1200                 6.0523                 6.1410
 IR Inten    --     24.9743                 1.5776                 5.6815

                    121                    122                    123
                      A                      A                      A
 Frequencies --   3108.1683              3118.3466              3118.7690
 Red. masses --      1.1075                 1.1008                 1.1017
 Frc consts  --      6.3036                 6.3067                 6.3139
 IR Inten    --      7.2585                 9.8748                16.8771

                    124                    125                    126
                      A                      A                      A
 Frequencies --   3120.3412              3129.4514              3137.1276
 Red. masses --      1.0990                 1.0888                 1.1053
 Frc consts  --      6.3043                 6.2827                 6.4088
 IR Inten    --      5.1679                26.2568                16.3578

                    127                    128                    129
                      A                      A                      A
 Frequencies --   3139.9640              3175.6367              3189.3327
 Red. masses --      1.0968                 1.0863                 1.0911
 Frc consts  --      6.3713                 6.4547                 6.5389
 IR Inten    --     22.8697                 1.0181                 7.1498

                    130                    131                    132
                      A                      A                      A
 Frequencies --   3197.7902              3217.4845              3227.1921
 Red. masses --      1.0962                 1.0939                 1.0932
 Frc consts  --      6.6046                 6.6721                 6.7080
 IR Inten    --      8.2108                 5.1988                 5.5974

 - Thermochemistry -
 -------------------
 Temperature   298.150 Kelvin.  Pressure   1.00000 Atm.
 Atom     1 has atomic number  6 and mass  12.00000

 Molecular mass:   434.99839 amu.
 Principal axes and moments of inertia in atomic units:
                           1         2         3
     Eigenvalues --  ******************************
           X            0.99091  -0.13451   0.00339
           Y            0.13438   0.99061   0.02531
           Z           -0.00677  -0.02462   0.99967
 This molecule is an asymmetric top.
 Rotational symmetry number  1.
 Warning -- assumption of classical behavior for rotation
           may cause significant error
 Rotational temperatures (Kelvin)      0.00862     0.00774     0.00648
 Rotational constants (GHZ):           0.17954     0.16117     0.13511
    1 imaginary frequencies ignored.
 Zero-point vibrational energy     943548.5 (Joules/Mol)
                                  225.51349 (Kcal/Mol)
 Warning -- explicit consideration of  42 degrees of freedom as
           vibrations may cause significant error
 Vibrational temperatures:     20.53    32.20    49.31    60.70    77.12
          (Kelvin)             92.13    93.97   109.11   112.76   119.01
                              135.25   140.79   155.37   158.04   168.41
                              174.11   192.14   213.72   226.76   258.93
                              294.43   299.20   306.60   372.82   376.66
                              406.10   434.72   447.94   493.30   506.49
                              545.58   561.29   574.25   585.94   595.68
                              607.54   641.57   683.37   708.07   738.90
                              774.01   836.92   897.89   942.38   999.38
                             1003.54  1081.82  1113.49  1135.97  1159.52
                             1196.82  1217.79  1227.41  1245.01  1296.03
                             1307.88  1381.14  1383.57  1403.19  1426.94
                             1433.45  1437.12  1443.67  1458.57  1470.98
                             1491.84  1506.93  1550.36  1575.00  1584.67
                             1607.02  1630.64  1639.37  1676.45  1683.14
                             1696.64  1735.21  1740.80  1767.57  1802.80
                             1833.88  1847.45  1905.94  1909.04  1924.60
                             1932.54  1967.62  1973.15  1985.88  1987.26
                             2021.66  2028.73  2037.38  2101.10  2110.22
                             2111.87  2121.46  2128.23  2132.66  2139.33
                             2140.00  2144.70  2165.84  2185.06  2249.25
                             2332.15  2362.11  2459.55  2545.61  4337.65
                             4350.96  4353.78  4376.84  4404.99  4413.05
                             4418.21  4426.09  4427.74  4438.04  4471.96
                             4486.61  4487.21  4489.48  4502.58  4513.63
                             4517.71  4569.03  4588.74  4600.91  4629.24
                             4643.21

 Zero-point correction=                           0.359379 (Hartree/Particle)
 Thermal correction to Energy=                    0.387179
 Thermal correction to Enthalpy=                  0.388124
 Thermal correction to Gibbs Free Energy=         0.295795
 Sum of electronic and zero-point Energies=          -3531.091268
 Sum of electronic and thermal Energies=             -3531.063467
 Sum of electronic and thermal Enthalpies=           -3531.062523
 Sum of electronic and thermal Free Energies=        -3531.154852

                     E (Thermal)             CV                S
                      KCal/Mol        Cal/Mol-Kelvin    Cal/Mol-Kelvin
 Total                  242.959             97.813            194.323
 Electronic               0.000              0.000              3.561
 Translational            0.889              2.981             44.100
 Rotational               0.889              2.981             35.662
 Vibrational            241.181             91.851            111.000
 Vibration     1          0.593              1.986              7.304
 Vibration     2          0.593              1.985              6.411
 Vibration     3          0.594              1.983              5.566
 Vibration     4          0.595              1.980              5.154
 Vibration     5          0.596              1.976              4.680
 Vibration     6          0.597              1.971              4.329
 Vibration     7          0.597              1.971              4.290
 Vibration     8          0.599              1.965              3.996
 Vibration     9          0.600              1.964              3.931
 Vibration    10          0.600              1.961              3.825
 Vibration    11          0.603              1.953              3.575
 Vibration    12          0.603              1.951              3.497
 Vibration    13          0.606              1.943              3.305
 Vibration    14          0.606              1.941              3.272
 Vibration    15          0.608              1.935              3.149
 Vibration    16          0.609              1.932              3.084
 Vibration    17          0.613              1.920              2.894
 Vibration    18          0.618              1.904              2.691
 Vibration    19          0.621              1.894              2.578
 Vibration    20          0.629              1.867              2.329
 Vibration    21          0.640              1.833              2.091
 Vibration    22          0.641              1.829              2.062
 Vibration    23          0.644              1.821              2.017
 Vibration    24          0.668              1.747              1.668
 Vibration    25          0.669              1.743              1.650
 Vibration    26          0.681              1.707              1.520
 Vibration    27          0.694              1.670              1.405
 Vibration    28          0.700              1.652              1.355
 Vibration    29          0.722              1.590              1.199
 Vibration    30          0.729              1.571              1.157
 Vibration    31          0.749              1.515              1.042
 Vibration    32          0.758              1.491              1.000
 Vibration    33          0.765              1.472              0.966
 Vibration    34          0.772              1.454              0.936
 Vibration    35          0.778              1.440              0.913
 Vibration    36          0.785              1.422              0.884
 Vibration    37          0.805              1.370              0.808
 Vibration    38          0.832              1.306              0.724
 Vibration    39          0.848              1.267              0.678
 Vibration    40          0.869              1.220              0.625
 Vibration    41          0.893              1.166              0.570
 Vibration    42          0.938              1.071              0.482

                           ! Non-Optimized Parameters !
 Normal termination of Gaussian 16 at Sun Jun 20 18:56:10 2021.

 ----------------------------------------------------------------------
 #p ub3lyp jul-cc-pvdz pop=cm5 scrf=(pcm,solvent=dichloroethane) guess=
 read geom=allcheck
 ----------------------------------------------------------------------

 Structure from the checkpoint file:  "checkpoint.chk"
 -----
 title
 -----
 Charge =  0 Multiplicity = 6

 SCF Done:  E(UB3LYP) =  -3531.46760167     A.U. after   18 cycles
 Normal termination of Gaussian 16 at Sun Jun 20 19:15:52 2021.
 Gaussian 16:  ES64L-G16RevA.03 25-Dec-2016

 ----------------------------------------------------------------------
 #p ub3lyp jul-cc-pvdz pop=cm5 scrf=(pcm,solvent=water) guess=read geom
 =allcheck
 ----------------------------------------------------------------------

 Structure from the checkpoint file:  "checkpoint.chk"
 -----
 title
 -----
 Charge =  0 Multiplicity = 6

                         Standard orientation:
 ---------------------------------------------------------------------
 Center     Atomic      Atomic             Coordinates (Angstroms)
 Number     Number       Type             X           Y           Z
 ---------------------------------------------------------------------
      1          6           0        2.798333    0.523705    1.287800
      2          6           0        1.631684   -0.203732    0.970257
      3          6           0        1.137595   -1.143525    1.900768
      4          6           0        1.799696   -1.359865    3.104996
      5          6           0        2.958070   -0.633916    3.408952
      6          6           0        3.449409    0.310986    2.502130
      7          6           0        0.877227    0.025227   -0.277550
      8          6           0        1.352700    0.966029   -1.393552
      9          6           0        2.685757    0.609951   -2.067516
     10          6           0        2.599938   -0.784917   -2.702672
     11          6           0        2.254197   -1.828401   -1.676846
     12          6           0        1.196630   -2.666687   -1.662885
     13          6           0        0.080784   -2.660380   -2.670209
     14          8           0       -0.297571   -0.400942   -0.384701
     15         26           0       -2.167142   -0.437337    0.279698
     16         17           0       -3.418338    0.149738   -1.426187
     17          6           0        1.057168   -3.708842   -0.584914
     18         17           0       -2.205064    0.988642    1.955031
     19         17           0       -2.516672   -2.517986    0.930106
     20          1           0        0.235106   -1.707126    1.673386
     21          1           0        1.407476   -2.090289    3.813068
     22          1           0        3.473463   -0.800205    4.356319
     23          1           0        4.341277    0.890275    2.742994
     24          1           0        3.184500    1.281810    0.611489
     25          1           0        0.549688    0.902112   -2.139566
     26          6           0        1.327093    2.420733   -0.884838
     27          1           0        2.897737    1.372039   -2.829847
     28          1           0        3.514070    0.653957   -1.351060
     29          1           0        1.868500   -0.770934   -3.521585
     30          1           0        3.575147   -1.023997   -3.156762
     31          1           0        3.002202   -1.958038   -0.888438
     32          1           0        1.869493   -3.653023    0.150794
     33          1           0        0.092419   -3.609117   -0.063899
     34          1           0        1.065630   -4.717146   -1.029843
     35          1           0       -0.018197   -3.656873   -3.128920
     36          1           0       -0.879079   -2.453049   -2.172010
     37          1           0        0.213262   -1.927519   -3.472964
     38          8           0        0.067799    2.831707   -0.712077
     39          8           0        2.313425    3.098598   -0.690064
     40          6           0       -0.120465    4.192330   -0.213877
     41          6           0       -1.609785    4.460597   -0.171735
     42          1           0        0.344800    4.252207    0.779229
     43          1           0        0.414891    4.875690   -0.886070
     44          1           0       -1.780431    5.477650    0.209761
     45          1           0       -2.051695    4.387683   -1.174778
     46          1           0       -2.118726    3.747307    0.489283
 ---------------------------------------------------------------------

 SCF Done:  E(UB3LYP) =  -3531.47070333     A.U. after   14 cycles

 The electronic state is 6-A.
 Alpha  occ. eigenvalues -- -256.21828-101.53040-101.52960-101.52868 -30.21214
 Alpha  occ. eigenvalues --  -26.06683 -26.06351 -26.06307 -19.21159 -19.20147
 Alpha  occ. eigenvalues --  -19.16284 -10.34255 -10.33663 -10.25246 -10.23385
 Alpha  occ. eigenvalues --  -10.22980 -10.22081 -10.21987 -10.21913 -10.21270
 Alpha  occ. eigenvalues --  -10.21255 -10.20743 -10.20374 -10.19456 -10.18741
 Alpha  occ. eigenvalues --  -10.18708 -10.18416 -10.18289  -9.44754  -9.44678
 Alpha  occ. eigenvalues --   -9.44604  -7.20623  -7.20548  -7.20472  -7.20322
 Alpha  occ. eigenvalues --   -7.20289  -7.20236  -7.20215  -7.20151  -7.20149
 Alpha  occ. eigenvalues --   -3.68857  -2.46645  -2.46011  -2.45930  -1.13114
 Alpha  occ. eigenvalues --   -1.10427  -1.04641  -0.88716  -0.84976  -0.82202
 Alpha  occ. eigenvalues --   -0.80997  -0.80257  -0.80189  -0.79081  -0.78656
 Alpha  occ. eigenvalues --   -0.77356  -0.75048  -0.69858  -0.69375  -0.67446
 Alpha  occ. eigenvalues --   -0.64736  -0.63041  -0.61982  -0.60014  -0.57851
 Alpha  occ. eigenvalues --   -0.56587  -0.53869  -0.52907  -0.52069  -0.50917
 Alpha  occ. eigenvalues --   -0.50235  -0.49490  -0.49164  -0.48911  -0.48756
 Alpha  occ. eigenvalues --   -0.48489  -0.47424  -0.47006  -0.46894  -0.45803
 Alpha  occ. eigenvalues --   -0.45356  -0.44972  -0.44316  -0.43304  -0.42935
 Alpha  occ. eigenvalues --   -0.42532  -0.41132  -0.40366  -0.39959  -0.39379
 Alpha  occ. eigenvalues --   -0.38849  -0.38481  -0.38017  -0.37828  -0.37520
 Alpha  occ. eigenvalues --   -0.37247  -0.36934  -0.36627  -0.36411  -0.35266
 Alpha  occ. eigenvalues --   -0.35025  -0.34765  -0.33428  -0.32670  -0.32346
 Alpha  occ. eigenvalues --   -0.31828  -0.31771  -0.31600  -0.31414  -0.30505
 Alpha  occ. eigenvalues --   -0.30321  -0.29934  -0.28812  -0.27992  -0.24803
 Alpha virt. eigenvalues --   -0.11234  -0.03666  -0.02310  -0.01697  -0.00753
 Alpha virt. eigenvalues --   -0.00134  -0.00024   0.00132   0.00718   0.01524
 Alpha virt. eigenvalues --    0.01732   0.01893   0.02310   0.02494   0.03216

  Beta  occ. eigenvalues -- -256.21643-101.52839-101.52765-101.52674 -30.12271
  Beta  occ. eigenvalues --  -25.99081 -25.98966 -25.98934 -19.21158 -19.19802
  Beta  occ. eigenvalues --  -19.16280 -10.34252 -10.33635 -10.25246 -10.23370
  Beta  occ. eigenvalues --  -10.22967 -10.22077 -10.21981 -10.21910 -10.21270
  Beta  occ. eigenvalues --  -10.21257 -10.20731 -10.20372 -10.19456 -10.18740
  Beta  occ. eigenvalues --  -10.18699 -10.18416 -10.18289  -9.44557  -9.44487
  Beta  occ. eigenvalues --   -9.44414  -7.20303  -7.20230  -7.20160  -7.20036
  Beta  occ. eigenvalues --   -7.20020  -7.19968  -7.19955  -7.19888  -7.19882
  Beta  occ. eigenvalues --   -3.48002  -2.24315  -2.24192  -2.24142  -1.13104
  Beta  occ. eigenvalues --   -1.09773  -1.04635  -0.88683  -0.84926  -0.82160
  Beta  occ. eigenvalues --   -0.79723  -0.79053  -0.78880  -0.78827  -0.78639
  Beta  occ. eigenvalues --   -0.77348  -0.75011  -0.69846  -0.69263  -0.67334
  Beta  occ. eigenvalues --   -0.64706  -0.63015  -0.61719  -0.59661  -0.57691
  Beta  occ. eigenvalues --   -0.55928  -0.53472  -0.52764  -0.51959  -0.50679
  Beta  occ. eigenvalues --   -0.49947  -0.49226  -0.47401  -0.46971  -0.46328
  Beta  occ. eigenvalues --   -0.45400  -0.45197  -0.44311  -0.43322  -0.42932
  Beta  occ. eigenvalues --   -0.42540  -0.41150  -0.40354  -0.39945  -0.39320
  Beta  occ. eigenvalues --   -0.38862  -0.38604  -0.38385  -0.37857  -0.37520
  Beta  occ. eigenvalues --   -0.37256  -0.36946  -0.36629  -0.36603  -0.36520
  Beta  occ. eigenvalues --   -0.36399  -0.35195  -0.33949  -0.33752  -0.33578
  Beta  occ. eigenvalues --   -0.33053  -0.32881  -0.32413  -0.31764  -0.30869
  Beta  occ. eigenvalues --   -0.30170  -0.30044  -0.28867  -0.27982  -0.24717
  Beta virt. eigenvalues --   -0.15939  -0.15401  -0.14366  -0.14036  -0.13972
  Beta virt. eigenvalues --   -0.10323  -0.03638  -0.02277  -0.01565  -0.00677
  Beta virt. eigenvalues --   -0.00092   0.00011   0.00179   0.00845   0.01549

 Mulliken charges and spin densities:
               1          2
     1  C   -0.131141   0.003947
     2  C    3.185730  -0.001428
     3  C   -0.680993  -0.007554
     4  C    0.094726   0.001442
     5  C    0.266795   0.006878
     6  C   -0.144933  -0.000756
     7  C   -1.809634  -0.007362
     8  C    0.287953   0.012516
     9  C    0.550364   0.001857
    10  C    0.619480  -0.000076
    11  C    0.181997   0.004114
    12  C   -0.020285   0.012447
    13  C    0.099671  -0.001591
    14  O   -0.317898   0.098471
    15  Fe   0.752523   4.074066
    16  Cl  -0.480904   0.265502
    17  C    0.158248  -0.001643
    18  Cl  -0.445941   0.268284
    19  Cl  -0.459802   0.262895
    20  H   -0.288229   0.000294
    21  H   -0.159684   0.000017
    22  H   -0.144960  -0.000091
    23  H   -0.154570   0.000102
    24  H   -0.188650  -0.000090
    25  H   -0.148225  -0.000462
    26  C    0.765270   0.003458
    27  H   -0.136165   0.000531
    28  H   -0.039502   0.000027
    29  H   -0.094540   0.000024
    30  H   -0.118595   0.000567
    31  H   -0.249496  -0.000295
    32  H   -0.014371   0.000073
    33  H    0.050199   0.000438
    34  H   -0.021836   0.000476
    35  H   -0.016076   0.000468
    36  H    0.021840   0.000745
    37  H   -0.007831   0.000016
    38  O   -0.660587   0.001057
    39  O   -0.552662   0.001613
    40  C    0.432942  -0.000255
    41  C    0.036527  -0.000385
    42  H   -0.031387   0.000041
    43  H   -0.036076   0.000007
    44  H   -0.003935   0.000034
    45  H    0.026306   0.000038
    46  H    0.028337  -0.000457
 Sum of Mulliken charges =  -0.00000   5.00000

 Dipole moment (field-independent basis, Debye):
    X=              9.8009    Y=              0.4724    Z=             -0.6887  Tot=              9.8364
 Quadrupole moment (field-independent basis, Debye-Ang):
   XX=           -190.1470   YY=           -169.8972   ZZ=           -164.8022
   XY=            -12.0894   XZ=              7.4669   YZ=             -0.8893

 Normal termination of Gaussian 16 at Sun Jun 20 19:31:15 2021.
