 Gaussian 16, Revision A.03,

 -----------------------------------------------------------
 #p opt=modredundant freq=noraman ub3lyp jul-cc-pvdz pop=cm5
 -----------------------------------------------------------

 -----
 title
 -----
 Symbolic Z-matrix:
 Charge =  0 Multiplicity = 6

 SCF Done:  E(UB3LYP) =  -3531.43974626     A.U. after   22 cycles
 SCF Done:  E(UB3LYP) =  -3531.44005499     A.U. after   14 cycles
 SCF Done:  E(UB3LYP) =  -3531.43951692     A.U. after   15 cycles
 SCF Done:  E(UB3LYP) =  -3531.44023863     A.U. after   14 cycles
 SCF Done:  E(UB3LYP) =  -3531.44025480     A.U. after   13 cycles
 SCF Done:  E(UB3LYP) =  -3531.44026187     A.U. after   13 cycles
 SCF Done:  E(UB3LYP) =  -3531.44026302     A.U. after   12 cycles
 SCF Done:  E(UB3LYP) =  -3531.44026255     A.U. after   12 cycles
 SCF Done:  E(UB3LYP) =  -3531.44026191     A.U. after   11 cycles
 SCF Done:  E(UB3LYP) =  -3531.44026295     A.U. after   12 cycles
 SCF Done:  E(UB3LYP) =  -3531.44026221     A.U. after   12 cycles
 Optimization completed.
    -- Stationary point found.
 Normal termination of Gaussian 16 at Sun Jun 20 02:19:54 2021.

 ----------------------------------------------------------------------
 #P Geom=AllCheck Guess=TCheck SCRF=Check GenChk UB3LYP/Jul-CC-pVDZ Fre
 q
 ----------------------------------------------------------------------

 Structure from the checkpoint file:  "checkpoint.chk"
 -----
 title
 -----
 Charge =  0 Multiplicity = 6

 SCF Done:  E(UB3LYP) =  -3531.44026221     A.U. after    1 cycles

  Exact polarizability: 280.163   5.809 287.845  22.974  -1.567 284.819
 Approx polarizability: 409.179   5.434 453.559  42.148  -8.950 451.050

                      1                      2                      3
                      A                      A                      A
 Frequencies --     17.0263                27.3932                29.2496
 Red. masses --      4.9359                 6.9719                 4.6751
 Frc consts  --      0.0008                 0.0031                 0.0024
 IR Inten    --      0.5579                 0.4118                 0.1888

                      4                      5                      6
                      A                      A                      A
 Frequencies --     37.5412                45.9698                63.4855
 Red. masses --      5.2168                 5.0286                 3.0478
 Frc consts  --      0.0043                 0.0063                 0.0072
 IR Inten    --      0.1201                 1.5302                 0.4244

                      7                      8                      9
                      A                      A                      A
 Frequencies --     68.9086                75.4565                79.3090
 Red. masses --      3.9491                10.2996                 6.3913
 Frc consts  --      0.0110                 0.0346                 0.0237
 IR Inten    --      0.1449                 0.3594                 0.7674

                     10                     11                     12
                      A                      A                      A
 Frequencies --     86.2807                96.9887               113.6977
 Red. masses --     10.3803                 5.5141                10.4454
 Frc consts  --      0.0455                 0.0306                 0.0796
 IR Inten    --      1.2218                 0.5027                 3.8348

                     13                     14                     15
                      A                      A                      A
 Frequencies --    114.9435               119.5360               128.0688
 Red. masses --     13.0880                 7.5288                 3.7890
 Frc consts  --      0.1019                 0.0634                 0.0366
 IR Inten    --      1.8859                 0.2563                 2.2591

                     16                     17                     18
                      A                      A                      A
 Frequencies --    144.0269               164.4516               184.2554
 Red. masses --      3.9844                 2.6145                 6.1678
 Frc consts  --      0.0487                 0.0417                 0.1234
 IR Inten    --      3.4800                 0.6217                12.9505

                     19                     20                     21
                      A                      A                      A
 Frequencies --    192.4887               222.6757               229.2535
 Red. masses --      3.1367                 3.9493                 1.2197
 Frc consts  --      0.0685                 0.1154                 0.0378
 IR Inten    --      2.0879                 4.9175                 0.7733

                     22                     23                     24
                      A                      A                      A
 Frequencies --    242.5064               258.9331               260.0241
 Red. masses --      2.9761                 1.7150                 2.1690
 Frc consts  --      0.1031                 0.0677                 0.0864
 IR Inten    --      0.3740                 0.4612                 0.4353

                     25                     26                     27
                      A                      A                      A
 Frequencies --    272.9919               299.3521               311.7835
 Red. masses --      1.2490                 3.3057                 3.0487
 Frc consts  --      0.0548                 0.1745                 0.1746
 IR Inten    --      1.4574                 2.8413                 1.1294

                     28                     29                     30
                      A                      A                      A
 Frequencies --    338.3151               349.9695               365.8440
 Red. masses --      4.3908                26.1381                 2.9855
 Frc consts  --      0.2961                 1.8862                 0.2354
 IR Inten    --      7.9294                29.5169                 6.3995

                     31                     32                     33
                      A                      A                      A
 Frequencies --    384.7517               400.9172               402.8968
 Red. masses --      3.1617                15.0021                 3.9664
 Frc consts  --      0.2758                 1.4207                 0.3793
 IR Inten    --      7.3812                76.3962                 7.8740

                     34                     35                     36
                      A                      A                      A
 Frequencies --    409.3566               411.0894               446.9283
 Red. masses --     26.1611                 3.0708                 4.0639
 Frc consts  --      2.5829                 0.3058                 0.4783
 IR Inten    --     79.2901                 3.4399                12.0314

                     37                     38                     39
                      A                      A                      A
 Frequencies --    466.5750               514.9400               544.7242
 Red. masses --      3.9645                 3.3706                 2.9908
 Frc consts  --      0.5085                 0.5266                 0.5229
 IR Inten    --      6.2386                14.3552                 6.7269

                     40                     41                     42
                      A                      A                      A
 Frequencies --    556.6925               627.6344               643.3232
 Red. masses --      2.5448                 6.2313                 4.5243
 Frc consts  --      0.4647                 1.4462                 1.1032
 IR Inten    --      0.9004                 0.1527                 9.3620

                     43                     44                     45
                      A                      A                      A
 Frequencies --    664.1807               705.8360               710.6815
 Red. masses --      5.0999                 1.5962                 4.0979
 Frc consts  --      1.3255                 0.4685                 1.2194
 IR Inten    --     19.2201                34.4013                 7.1205

                     46                     47                     48
                      A                      A                      A
 Frequencies --    757.7585               758.7641               783.9565
 Red. masses --      2.7650                 4.7620                 3.4002
 Frc consts  --      0.9354                 1.6153                 1.2312
 IR Inten    --     73.3735                16.6429                28.2808

                     49                     50                     51
                      A                      A                      A
 Frequencies --    804.0104               806.6218               815.1650
 Red. masses --      2.5708                 1.4064                 3.3373
 Frc consts  --      0.9791                 0.5391                 1.3066
 IR Inten    --     54.3127                26.5261                36.4016

                     52                     53                     54
                      A                      A                      A
 Frequencies --    839.4532               846.1624               869.2852
 Red. masses --      2.6290                 1.2819                 2.6499
 Frc consts  --      1.0915                 0.5408                 1.1798
 IR Inten    --     43.5715                 2.6865                 9.8050

                     55                     56                     57
                      A                      A                      A
 Frequencies --    896.0807               923.8848               940.7255
 Red. masses --      2.4345                 1.7415                 2.0410
 Frc consts  --      1.1517                 0.8758                 1.0642
 IR Inten    --     56.5948                 5.5294                10.0020

                     58                     59                     60
                      A                      A                      A
 Frequencies --    942.0055               960.5535               965.4054
 Red. masses --      1.5492                 2.3087                 4.3274
 Frc consts  --      0.8099                 1.2550                 2.3763
 IR Inten    --      0.5134                 3.7267                 5.4633

                     61                     62                     63
                      A                      A                      A
 Frequencies --    982.5044               983.0209              1002.6027
 Red. masses --      1.6872                 1.6107                 1.3136
 Frc consts  --      0.9596                 0.9170                 0.7780
 IR Inten    --      3.9892                 6.3692                 0.9168

                     64                     65                     66
                      A                      A                      A
 Frequencies --   1006.9475              1010.6765              1022.3321
 Red. masses --      5.1878                 1.4239                 2.6462
 Frc consts  --      3.0992                 0.8569                 1.6295
 IR Inten    --      1.5224                 0.5924                17.9286

                     67                     68                     69
                      A                      A                      A
 Frequencies --   1039.6252              1053.7390              1061.4332
 Red. masses --      2.4436                 2.1792                 2.2252
 Frc consts  --      1.5561                 1.4257                 1.4771
 IR Inten    --     40.4574                 1.4709                12.0498

                     70                     71                     72
                      A                      A                      A
 Frequencies --   1068.9363              1099.1350              1116.6094
 Red. masses --      3.1483                 2.0817                 1.8492
 Frc consts  --      2.1195                 1.4818                 1.3584
 IR Inten    --      1.9633                 2.6759                 8.3609

                     73                     74                     75
                      A                      A                      A
 Frequencies --   1132.6052              1138.0487              1164.2776
 Red. masses --      2.1641                 1.6495                 1.8058
 Frc consts  --      1.6356                 1.2587                 1.4422
 IR Inten    --      6.9616                23.4220                22.3445

                     76                     77                     78
                      A                      A                      A
 Frequencies --   1169.3994              1175.0695              1183.0014
 Red. masses --      1.5864                 1.1268                 1.5895
 Frc consts  --      1.2782                 0.9167                 1.3106
 IR Inten    --      1.2725                 2.8997                10.8987

                     79                     80                     81
                      A                      A                      A
 Frequencies --   1199.2218              1209.3896              1217.2607
 Red. masses --      2.0071                 1.2038                 1.8598
 Frc consts  --      1.7006                 1.0374                 1.6236
 IR Inten    --    186.3291                 2.6169                58.5265

                     82                     83                     84
                      A                      A                      A
 Frequencies --   1252.4729              1274.0581              1282.1974
 Red. masses --      1.7433                 2.3267                 1.6301
 Frc consts  --      1.6113                 2.2252                 1.5790
 IR Inten    --     50.7171                42.9873                13.3380

                     85                     86                     87
                      A                      A                      A
 Frequencies --   1284.0321              1299.5593              1317.5162
 Red. masses --      1.3559                 1.6596                 1.4417
 Frc consts  --      1.3171                 1.6514                 1.4745
 IR Inten    --      2.4454                39.0371                 7.5115

                     88                     89                     90
                      A                      A                      A
 Frequencies --   1327.1768              1336.0360              1360.7550
 Red. masses --      1.4637                 2.1191                 1.9557
 Frc consts  --      1.5190                 2.2287                 2.1335
 IR Inten    --     27.9901                 6.6274                 0.5809

                     91                     92                     93
                      A                      A                      A
 Frequencies --   1361.7922              1364.7568              1391.2138
 Red. masses --      1.7585                 1.4221                 1.5636
 Frc consts  --      1.9214                 1.5606                 1.7831
 IR Inten    --      2.4053                30.3586                65.4933

                     94                     95                     96
                      A                      A                      A
 Frequencies --   1403.8295              1416.7872              1417.8369
 Red. masses --      1.3430                 1.4476                 1.2832
 Frc consts  --      1.5594                 1.7120                 1.5198
 IR Inten    --     22.2345                13.9261                 8.9386

                     97                     98                     99
                      A                      A                      A
 Frequencies --   1470.0576              1470.8542              1473.9400
 Red. masses --      2.2095                 1.0733                 1.0395
 Frc consts  --      2.8133                 1.3681                 1.3306
 IR Inten    --      8.8052                 0.5711                 4.0658

                    100                    101                    102
                      A                      A                      A
 Frequencies --   1482.9159              1487.0908              1488.5568
 Red. masses --      1.0588                 1.0520                 1.0686
 Frc consts  --      1.3718                 1.3706                 1.3950
 IR Inten    --      1.3193                 2.1558                 0.3551

                    103                    104                    105
                      A                      A                      A
 Frequencies --   1493.1101              1500.9070              1507.1819
 Red. masses --      1.0710                 1.0830                 1.0848
 Frc consts  --      1.4067                 1.4374                 1.4519
 IR Inten    --      7.8196                 9.8300                 5.9537

                    106                    107                    108
                      A                      A                      A
 Frequencies --   1513.2212              1525.2930              1626.1675
 Red. masses --      1.0668                 2.2573                 5.6668
 Frc consts  --      1.4392                 3.0942                 8.8292
 IR Inten    --      2.7269                 2.7678                 0.3825

                    109                    110                    111
                      A                      A                      A
 Frequencies --   1648.6210              1772.9891              3036.7711
 Red. masses --      5.7318                11.5144                 1.0369
 Frc consts  --      9.1788                21.3257                 5.6342
 IR Inten    --      0.1430               197.8666                 6.0207

                    112                    113                    114
                      A                      A                      A
 Frequencies --   3040.3409              3045.9599              3058.2894
 Red. masses --      1.0354                 1.0389                 1.0583
 Frc consts  --      5.6391                 5.6788                 5.8318
 IR Inten    --     18.1081                10.2231                11.5586

                    115                    116                    117
                      A                      A                      A
 Frequencies --   3059.2652              3069.1733              3088.6582
 Red. masses --      1.0604                 1.0618                 1.0880
 Frc consts  --      5.8471                 5.8928                 6.1156
 IR Inten    --     13.2585                41.0220                 7.5243

                    118                    119                    120
                      A                      A                      A
 Frequencies --   3100.8346              3101.8001              3114.9758
 Red. masses --      1.1019                 1.1071                 1.0996
 Frc consts  --      6.2422                 6.2760                 6.2862
 IR Inten    --      4.5242                 5.9240                 6.8667

                    121                    122                    123
                      A                      A                      A
 Frequencies --   3116.2036              3117.0504              3123.8563
 Red. masses --      1.1018                 1.1027                 1.0984
 Frc consts  --      6.3040                 6.3124                 6.3150
 IR Inten    --     18.5417                17.4488                11.7837

                    124                    125                    126
                      A                      A                      A
 Frequencies --   3130.6144              3132.2045              3136.9054
 Red. masses --      1.0915                 1.1047                 1.1022
 Frc consts  --      6.3028                 6.3853                 6.3903
 IR Inten    --     10.5353                26.6250                12.9557

                    127                    128                    129
                      A                      A                      A
 Frequencies --   3147.4665              3170.5776              3180.3181
 Red. masses --      1.1022                 1.0849                 1.0884
 Frc consts  --      6.4330                 6.4258                 6.4858
 IR Inten    --      6.9262                 0.0214                 6.5595

                    130                    131                    132
                      A                      A                      A
 Frequencies --   3188.6726              3195.7477              3200.4813
 Red. masses --      1.0919                 1.0942                 1.0982
 Frc consts  --      6.5413                 6.5842                 6.6279
 IR Inten    --      8.8766                10.1854                 9.9941

 - Thermochemistry -
 -------------------
 Temperature   298.150 Kelvin.  Pressure   1.00000 Atm.
 Atom     1 has atomic number  6 and mass  12.00000

 Molecular mass:   434.99839 amu.
 Principal axes and moments of inertia in atomic units:
                           1         2         3
     Eigenvalues --  8910.12599********************
           X            0.99569   0.09081   0.01884
           Y           -0.09139   0.99528   0.03269
           Z           -0.01578  -0.03428   0.99929
 This molecule is an asymmetric top.
 Rotational symmetry number  1.
 Warning -- assumption of classical behavior for rotation
           may cause significant error
 Rotational temperatures (Kelvin)      0.00972     0.00744     0.00690
 Rotational constants (GHZ):           0.20255     0.15498     0.14368
 Zero-point vibrational energy     950337.5 (Joules/Mol)
                                  227.13610 (Kcal/Mol)
 Warning -- explicit consideration of  40 degrees of freedom as
           vibrations may cause significant error
 Vibrational temperatures:     24.50    39.41    42.08    54.01    66.14
          (Kelvin)             91.34    99.14   108.57   114.11   124.14
                              139.55   163.59   165.38   171.99   184.26
                              207.22   236.61   265.10   276.95   320.38
                              329.84   348.91   372.55   374.12   392.77
                              430.70   448.59   486.76   503.53   526.37
                              553.57   576.83   579.68   588.97   591.47
                              643.03   671.30   740.88   783.74   800.96
                              903.03   925.60   955.61  1015.54  1022.51
                             1090.25  1091.69  1127.94  1156.79  1160.55
                             1172.84  1207.79  1217.44  1250.71  1289.26
                             1329.26  1353.49  1355.34  1382.02  1389.00
                             1413.60  1414.35  1442.52  1448.77  1454.14
                             1470.91  1495.79  1516.10  1527.17  1537.96
                             1581.41  1606.55  1629.57  1637.40  1675.14
                             1682.50  1690.66  1702.08  1725.41  1740.04
                             1751.37  1802.03  1833.09  1844.80  1847.44
                             1869.78  1895.61  1909.51  1922.26  1957.82
                             1959.32  1963.58  2001.65  2019.80  2038.44
                             2039.95  2115.09  2116.23  2120.67  2133.59
                             2139.59  2141.70  2148.25  2159.47  2168.50
                             2177.19  2194.56  2339.69  2372.00  2550.94
                             4369.24  4374.37  4382.46  4400.20  4401.60
                             4415.86  4443.89  4461.41  4462.80  4481.76
                             4483.52  4484.74  4494.53  4504.26  4506.54
                             4513.31  4528.50  4561.75  4575.77  4587.79
                             4597.97  4604.78

 Zero-point correction=                           0.361964 (Hartree/Particle)
 Thermal correction to Energy=                    0.388915
 Thermal correction to Enthalpy=                  0.389859
 Thermal correction to Gibbs Free Energy=         0.299924
 Sum of electronic and zero-point Energies=          -3531.078298
 Sum of electronic and thermal Energies=             -3531.051347
 Sum of electronic and thermal Enthalpies=           -3531.050403
 Sum of electronic and thermal Free Energies=        -3531.140338

                     E (Thermal)             CV                S
                      KCal/Mol        Cal/Mol-Kelvin    Cal/Mol-Kelvin
 Total                  244.048             96.959            189.284
 Electronic               0.000              0.000              3.561
 Translational            0.889              2.981             44.100
 Rotational               0.889              2.981             35.520
 Vibrational            242.270             90.998            106.103
 Vibration     1          0.593              1.986              6.954
 Vibration     2          0.593              1.984              6.010
 Vibration     3          0.593              1.984              5.880
 Vibration     4          0.594              1.982              5.385
 Vibration     5          0.595              1.979              4.984
 Vibration     6          0.597              1.972              4.346
 Vibration     7          0.598              1.969              4.184
 Vibration     8          0.599              1.965              4.006
 Vibration     9          0.600              1.963              3.908
 Vibration    10          0.601              1.959              3.743
 Vibration    11          0.603              1.951              3.514
 Vibration    12          0.607              1.938              3.205
 Vibration    13          0.608              1.937              3.184
 Vibration    14          0.609              1.933              3.108
 Vibration    15          0.611              1.925              2.975
 Vibration    16          0.616              1.909              2.750
 Vibration    17          0.623              1.886              2.498
 Vibration    18          0.631              1.861              2.285
 Vibration    19          0.634              1.850              2.204
 Vibration    20          0.648              1.807              1.937
 Vibration    21          0.652              1.796              1.885
 Vibration    22          0.659              1.775              1.784
 Vibration    23          0.668              1.748              1.669
 Vibration    24          0.668              1.746              1.662
 Vibration    25          0.676              1.723              1.577
 Vibration    26          0.692              1.675              1.421
 Vibration    27          0.700              1.651              1.353
 Vibration    28          0.719              1.599              1.220
 Vibration    29          0.727              1.575              1.166
 Vibration    30          0.739              1.543              1.097
 Vibration    31          0.754              1.503              1.020
 Vibration    32          0.767              1.468              0.959
 Vibration    33          0.768              1.464              0.952
 Vibration    34          0.774              1.450              0.929
 Vibration    35          0.775              1.446              0.923
 Vibration    36          0.806              1.368              0.805
 Vibration    37          0.824              1.324              0.747
 Vibration    38          0.870              1.217              0.622
 Vibration    39          0.900              1.151              0.555
 Vibration    40          0.912              1.125              0.530

                           ! Non-Optimized Parameters !
 Normal termination of Gaussian 16 at Sun Jun 20 08:05:47 2021.

 ----------------------------------------------------------------------
 #p ub3lyp jul-cc-pvdz pop=cm5 scrf=(pcm,solvent=dichloroethane) guess=
 read geom=allcheck
 ----------------------------------------------------------------------

 Structure from the checkpoint file:  "checkpoint.chk"
 -----
 title
 -----
 Charge =  0 Multiplicity = 6

 SCF Done:  E(UB3LYP) =  -3531.45707524     A.U. after   17 cycles
 Normal termination of Gaussian 16 at Sun Jun 20 08:33:09 2021.
 Gaussian 16:  ES64L-G16RevA.03 25-Dec-2016

 ----------------------------------------------------------------------
 #p ub3lyp jul-cc-pvdz pop=cm5 scrf=(pcm,solvent=water) guess=read geom
 =allcheck
 ----------------------------------------------------------------------

 Structure from the checkpoint file:  "checkpoint.chk"
 -----
 title
 -----
 Charge =  0 Multiplicity = 6

                         Standard orientation:
 ---------------------------------------------------------------------
 Center     Atomic      Atomic             Coordinates (Angstroms)
 Number     Number       Type             X           Y           Z
 ---------------------------------------------------------------------
      1          6           0        1.525759   -2.358249    1.586330
      2          6           0        1.091037   -1.169013    0.985486
      3          6           0        1.212735    0.031052    1.704422
      4          6           0        1.727998    0.035087    3.000324
      5          6           0        2.155170   -1.157064    3.592868
      6          6           0        2.059809   -2.352594    2.878516
      7          6           0        0.559614   -1.160957   -0.425436
      8          6           0        1.493780   -0.565551   -1.529981
      9          6           0        2.020139   -1.816184   -2.266897
     10          6           0        0.824485   -2.784982   -2.348111
     11          6           0        0.010540   -2.517723   -1.071734
     12          6           0       -1.391801   -1.851228   -1.128657
     13          6           0       -1.983336   -1.574615   -2.499785
     14          8           0       -0.845365   -0.591292   -0.525356
     15         26           0       -1.938017    0.946258    0.308613
     16         17           0       -3.798561    1.053886   -0.863220
     17          6           0       -2.398009   -2.491849   -0.184903
     18         17           0       -0.764635    2.789069    0.086254
     19         17           0       -2.357915    0.403219    2.391314
     20          1           0        0.902151    0.974703    1.257158
     21          1           0        1.795377    0.975547    3.548379
     22          1           0        2.562276   -1.152635    4.604966
     23          1           0        2.398138   -3.288393    3.325379
     24          1           0        1.469043   -3.303559    1.048424
     25          1           0        0.862469    0.037551   -2.193401
     26          6           0        2.646975    0.306778   -1.048457
     27          1           0        2.435273   -1.559308   -3.250323
     28          1           0        2.835988   -2.248946   -1.672443
     29          1           0        0.232962   -2.595612   -3.252004
     30          1           0        1.155338   -3.830074   -2.401745
     31          1           0        0.014515   -3.365529   -0.382756
     32          1           0       -2.672693   -3.479705   -0.582767
     33          1           0       -1.974656   -2.625014    0.817947
     34          1           0       -3.311898   -1.889822   -0.105726
     35          1           0       -2.216484   -2.530730   -2.990028
     36          1           0       -2.911811   -1.000567   -2.408529
     37          1           0       -1.294839   -1.014473   -3.143056
     38          8           0        2.378281    1.612922   -1.215075
     39          8           0        3.690530   -0.123266   -0.604628
     40          6           0        3.414897    2.543327   -0.793007
     41          6           0        2.952409    3.941010   -1.150778
     42          1           0        3.565534    2.417241    0.287856
     43          1           0        4.350265    2.267953   -1.298377
     44          1           0        3.714344    4.667314   -0.832881
     45          1           0        2.808897    4.042719   -2.235465
     46          1           0        2.006358    4.183254   -0.649186
 ---------------------------------------------------------------------

 SCF Done:  E(UB3LYP) =  -3531.46026772     A.U. after   13 cycles

 The electronic state is 6-A.
 Alpha  occ. eigenvalues -- -256.22063-101.53367-101.53359-101.53205 -30.21390
 Alpha  occ. eigenvalues --  -26.06839 -26.06568 -26.06489 -19.21782 -19.20355
 Alpha  occ. eigenvalues --  -19.15208 -10.32871 -10.29105 -10.27740 -10.24769
 Alpha  occ. eigenvalues --  -10.22134 -10.21711 -10.21393 -10.20657 -10.20447
 Alpha  occ. eigenvalues --  -10.20406 -10.20354 -10.20321 -10.19844 -10.19534
 Alpha  occ. eigenvalues --  -10.19162 -10.18988 -10.18630  -9.45089  -9.45076
 Alpha  occ. eigenvalues --   -9.44931  -7.20957  -7.20944  -7.20801  -7.20665
 Alpha  occ. eigenvalues --   -7.20647  -7.20612  -7.20610  -7.20491  -7.20470
 Alpha  occ. eigenvalues --   -3.69004  -2.46702  -2.46266  -2.46075  -1.12093
 Alpha  occ. eigenvalues --   -1.08836  -1.03615  -0.88051  -0.85629  -0.81978
 Alpha  occ. eigenvalues --   -0.81434  -0.80642  -0.80555  -0.78687  -0.77835
 Alpha  occ. eigenvalues --   -0.76270  -0.74442  -0.72036  -0.71016  -0.66411
 Alpha  occ. eigenvalues --   -0.64255  -0.62338  -0.61110  -0.59660  -0.57173
 Alpha  occ. eigenvalues --   -0.56179  -0.54481  -0.53296  -0.51489  -0.50641
 Alpha  occ. eigenvalues --   -0.50095  -0.49459  -0.49244  -0.49085  -0.48937
 Alpha  occ. eigenvalues --   -0.48454  -0.47982  -0.47196  -0.46406  -0.46125
 Alpha  occ. eigenvalues --   -0.44995  -0.44796  -0.44059  -0.43335  -0.42938
 Alpha  occ. eigenvalues --   -0.41776  -0.40740  -0.40243  -0.39994  -0.39908
 Alpha  occ. eigenvalues --   -0.39538  -0.38105  -0.38004  -0.37257  -0.36930
 Alpha  occ. eigenvalues --   -0.36893  -0.36517  -0.36115  -0.35624  -0.35268
 Alpha  occ. eigenvalues --   -0.35187  -0.34601  -0.34120  -0.32852  -0.32282
 Alpha  occ. eigenvalues --   -0.31937  -0.31765  -0.31672  -0.31468  -0.31450
 Alpha  occ. eigenvalues --   -0.30566  -0.30527  -0.29347  -0.26979  -0.26756
 Alpha virt. eigenvalues --   -0.04131  -0.03144  -0.01522  -0.01441  -0.00208
 Alpha virt. eigenvalues --   -0.00040   0.00085   0.01159   0.01550   0.01735
 Alpha virt. eigenvalues --    0.01841   0.02287   0.02352   0.03267   0.03839

  Beta  occ. eigenvalues -- -256.21877-101.53161-101.53152-101.52999 -30.12501
  Beta  occ. eigenvalues --  -25.99303 -25.99214 -25.99152 -19.21469 -19.20355
  Beta  occ. eigenvalues --  -19.15207 -10.32871 -10.29085 -10.27728 -10.24769
  Beta  occ. eigenvalues --  -10.22130 -10.21709 -10.21382 -10.20655 -10.20447
  Beta  occ. eigenvalues --  -10.20406 -10.20353 -10.20320 -10.19842 -10.19532
  Beta  occ. eigenvalues --  -10.19159 -10.18985 -10.18629  -9.44886  -9.44874
  Beta  occ. eigenvalues --   -9.44729  -7.20629  -7.20621  -7.20477  -7.20363
  Beta  occ. eigenvalues --   -7.20348  -7.20343  -7.20337  -7.20202  -7.20191
  Beta  occ. eigenvalues --   -3.48258  -2.24528  -2.24525  -2.24389  -1.12091
  Beta  occ. eigenvalues --   -1.08308  -1.03612  -0.88017  -0.85563  -0.81884
  Beta  occ. eigenvalues --   -0.80110  -0.79231  -0.79132  -0.78667  -0.77799
  Beta  occ. eigenvalues --   -0.76263  -0.74420  -0.71924  -0.70973  -0.66392
  Beta  occ. eigenvalues --   -0.64176  -0.62323  -0.61014  -0.59583  -0.57133
  Beta  occ. eigenvalues --   -0.55545  -0.54358  -0.52870  -0.51343  -0.50197
  Beta  occ. eigenvalues --   -0.49636  -0.49174  -0.47614  -0.46536  -0.46399
  Beta  occ. eigenvalues --   -0.45096  -0.44799  -0.44069  -0.43373  -0.42936
  Beta  occ. eigenvalues --   -0.41759  -0.40700  -0.40197  -0.39930  -0.39885
  Beta  occ. eigenvalues --   -0.39181  -0.38153  -0.38028  -0.37380  -0.37112
  Beta  occ. eigenvalues --   -0.36976  -0.36908  -0.36797  -0.36488  -0.36015
  Beta  occ. eigenvalues --   -0.35606  -0.34819  -0.34280  -0.34106  -0.33950
  Beta  occ. eigenvalues --   -0.33356  -0.32825  -0.32620  -0.31915  -0.31497
  Beta  occ. eigenvalues --   -0.30744  -0.30404  -0.29313  -0.26966  -0.26741
  Beta virt. eigenvalues --   -0.16138  -0.15685  -0.14564  -0.14440  -0.14254
  Beta virt. eigenvalues --   -0.04029  -0.03105  -0.01397  -0.01380  -0.00121
  Beta virt. eigenvalues --   -0.00018   0.00110   0.01336   0.01566   0.01752

 Mulliken charges and spin densities:
               1          2
     1  C   -0.254477   0.005827
     2  C    3.102991  -0.005481
     3  C   -0.398121  -0.021337
     4  C    0.019243   0.002980
     5  C    0.276500   0.001371
     6  C   -0.185098   0.001454
     7  C   -2.010108   0.027251
     8  C    0.176682  -0.000616
     9  C    0.493553   0.000990
    10  C    0.580714   0.001215
    11  C    0.698711   0.000792
    12  C   -0.762672   0.007881
    13  C    0.393527  -0.001163
    14  O   -0.252022   0.074468
    15  Fe   0.533106   4.055853
    16  Cl  -0.447039   0.285224
    17  C    0.524496   0.003662
    18  Cl  -0.432403   0.282931
    19  Cl  -0.423050   0.275841
    20  H   -0.311285   0.000372
    21  H   -0.163990   0.000018
    22  H   -0.162175   0.000011
    23  H   -0.158530   0.000012
    24  H   -0.189349  -0.000035
    25  H   -0.219884  -0.000294
    26  C    1.052242   0.000042
    27  H   -0.138629   0.000191
    28  H   -0.058407  -0.000017
    29  H   -0.095467   0.000004
    30  H   -0.126435   0.000366
    31  H   -0.227552   0.001123
    32  H   -0.003678  -0.000193
    33  H    0.036129  -0.000857
    34  H    0.026189   0.000501
    35  H    0.016666   0.001030
    36  H    0.006653  -0.000197
    37  H    0.029415  -0.000421
    38  O   -0.696630  -0.001338
    39  O   -0.671930   0.000480
    40  C    0.407813  -0.000357
    41  C    0.061667   0.000940
    42  H   -0.040851   0.000028
    43  H   -0.049215   0.000008
    44  H   -0.003360   0.000060
    45  H    0.021123   0.000015
    46  H    0.024935  -0.000637
 Sum of Mulliken charges =  -0.00000   5.00000

 Dipole moment (field-independent basis, Debye):
    X=              4.1005    Y=             -6.7109    Z=             -4.0861  Tot=              8.8626
 Quadrupole moment (field-independent basis, Debye-Ang):
   XX=           -197.4935   YY=           -159.1998   ZZ=           -166.7325
   XY=             17.6467   XZ=              7.0457   YZ=              4.6731

 Normal termination of Gaussian 16 at Sun Jun 20 08:54:16 2021.
