 Gaussian 16, Revision A.03,

 -----------------------------------------------------------
 #p opt=modredundant freq=noraman ub3lyp jul-cc-pvdz pop=cm5
 -----------------------------------------------------------

 -----
 title
 -----
 Symbolic Z-matrix:
 Charge =  0 Multiplicity = 6

 SCF Done:  E(UB3LYP) =  -3531.39954736     A.U. after   26 cycles
 SCF Done:  E(UB3LYP) =  -3531.39973506     A.U. after   16 cycles
 SCF Done:  E(UB3LYP) =  -3531.39919728     A.U. after   17 cycles
 SCF Done:  E(UB3LYP) =  -3531.40008245     A.U. after   15 cycles
 SCF Done:  E(UB3LYP) =  -3531.40023530     A.U. after   16 cycles
 SCF Done:  E(UB3LYP) =  -3531.40034007     A.U. after   17 cycles
 SCF Done:  E(UB3LYP) =  -3531.40035657     A.U. after   14 cycles
 SCF Done:  E(UB3LYP) =  -3531.40039595     A.U. after   14 cycles
 SCF Done:  E(UB3LYP) =  -3531.40041003     A.U. after   14 cycles
 SCF Done:  E(UB3LYP) =  -3531.40042242     A.U. after   12 cycles
 SCF Done:  E(UB3LYP) =  -3531.40043546     A.U. after   12 cycles
 SCF Done:  E(UB3LYP) =  -3531.40043709     A.U. after   12 cycles
 SCF Done:  E(UB3LYP) =  -3531.40043817     A.U. after   12 cycles
 SCF Done:  E(UB3LYP) =  -3531.40043968     A.U. after   13 cycles
 SCF Done:  E(UB3LYP) =  -3531.40044030     A.U. after   11 cycles
 SCF Done:  E(UB3LYP) =  -3531.40044059     A.U. after    9 cycles
 SCF Done:  E(UB3LYP) =  -3531.40044067     A.U. after    9 cycles
 Optimization completed.
    -- Stationary point found.
 Normal termination of Gaussian 16 at Sun Jun 20 03:25:53 2021.

 ----------------------------------------------------------------------
 #P Geom=AllCheck Guess=TCheck SCRF=Check GenChk UB3LYP/Jul-CC-pVDZ Fre
 q
 ----------------------------------------------------------------------

 Structure from the checkpoint file:  "checkpoint.chk"
 -----
 title
 -----
 Charge =  0 Multiplicity = 6

 SCF Done:  E(UB3LYP) =  -3531.40044067     A.U. after    2 cycles

  Exact polarizability: 302.619  -4.450 314.060  27.102   5.535 275.838
 Approx polarizability: 444.328 -17.291 500.495  45.116   4.072 441.696

 ******    1 imaginary frequencies (negative Signs) ******

                      1                      2                      3
                      A                      A                      A
 Frequencies --    -32.8319                24.1961                26.5323
 Red. masses --      4.6928                 4.0704                10.6587
 Frc consts  --      0.0030                 0.0014                 0.0044
 IR Inten    --      0.4245                 2.1127                 0.2945

                      4                      5                      6
                      A                      A                      A
 Frequencies --     39.7190                51.7424                57.8886
 Red. masses --      4.8385                 4.6032                 4.8545
 Frc consts  --      0.0045                 0.0073                 0.0096
 IR Inten    --      2.1290                 0.9854                 0.5339

                      7                      8                      9
                      A                      A                      A
 Frequencies --     65.5866                74.1098                77.0644
 Red. masses --      4.5615                 4.1120                 4.6329
 Frc consts  --      0.0116                 0.0133                 0.0162
 IR Inten    --      0.6812                 0.9994                 0.7682

                     10                     11                     12
                      A                      A                      A
 Frequencies --     85.3062                97.0316               106.7067
 Red. masses --      6.3978                 6.7920                12.8407
 Frc consts  --      0.0274                 0.0377                 0.0861
 IR Inten    --      0.5929                 0.9017                 0.1312

                     13                     14                     15
                      A                      A                      A
 Frequencies --    109.2137               114.9651               131.6327
 Red. masses --      6.8845                 3.7794                 8.7168
 Frc consts  --      0.0484                 0.0294                 0.0890
 IR Inten    --      1.4196                 3.3714                 2.0701

                     16                     17                     18
                      A                      A                      A
 Frequencies --    135.7114               151.6106               165.8516
 Red. masses --      5.0235                 3.4918                 3.2015
 Frc consts  --      0.0545                 0.0473                 0.0519
 IR Inten    --     23.3646                 3.6950                 1.0088

                     19                     20                     21
                      A                      A                      A
 Frequencies --    184.2661               209.3329               221.5635
 Red. masses --      4.4956                 3.4461                 2.3976
 Frc consts  --      0.0899                 0.0890                 0.0693
 IR Inten    --      0.6067                14.4656                 5.4568

                     22                     23                     24
                      A                      A                      A
 Frequencies --    242.0807               247.6901               256.4030
 Red. masses --      1.5313                 2.4387                 1.4665
 Frc consts  --      0.0529                 0.0881                 0.0568
 IR Inten    --      7.3896                 5.8487                 2.8567

                     25                     26                     27
                      A                      A                      A
 Frequencies --    275.3288               286.4718               297.7156
 Red. masses --      2.5833                 2.0804                 4.4390
 Frc consts  --      0.1154                 0.1006                 0.2318
 IR Inten    --      2.6613                 0.2246                 7.5659

                     28                     29                     30
                      A                      A                      A
 Frequencies --    310.4895               322.9361               337.9512
 Red. masses --      2.5204                11.5672                 3.3933
 Frc consts  --      0.1432                 0.7107                 0.2283
 IR Inten    --      1.7872                36.3445                25.7859

                     31                     32                     33
                      A                      A                      A
 Frequencies --    345.2551               367.8036               387.5941
 Red. masses --     15.2130                 5.2236                 8.1813
 Frc consts  --      1.0684                 0.4163                 0.7241
 IR Inten    --     53.1565                15.0990                41.6480

                     34                     35                     36
                      A                      A                      A
 Frequencies --    395.4683               415.3378               418.1423
 Red. masses --     10.6772                 2.9914                 3.9686
 Frc consts  --      0.9839                 0.3040                 0.4088
 IR Inten    --     53.1250                 0.4714                 5.7559

                     37                     38                     39
                      A                      A                      A
 Frequencies --    446.4904               482.2975               509.6586
 Red. masses --      3.3438                 2.8588                 2.3154
 Frc consts  --      0.3927                 0.3918                 0.3544
 IR Inten    --      4.0246                 1.6030                 4.3153

                     40                     41                     42
                      A                      A                      A
 Frequencies --    553.5491               593.3599               627.9031
 Red. masses --      3.7004                 2.6068                 6.3002
 Frc consts  --      0.6681                 0.5408                 1.4635
 IR Inten    --     26.3387                 2.7217                 0.4030

                     43                     44                     45
                      A                      A                      A
 Frequencies --    649.7623               679.7387               706.5205
 Red. masses --      5.3400                 3.3097                 2.0808
 Frc consts  --      1.3283                 0.9010                 0.6120
 IR Inten    --     15.5234                13.8527                48.5958

                     46                     47                     48
                      A                      A                      A
 Frequencies --    712.6180               738.9106               754.2263
 Red. masses --      2.8354                 1.4275                 2.8434
 Frc consts  --      0.8483                 0.4592                 0.9530
 IR Inten    --     12.6079                32.9767                20.2974

                     49                     50                     51
                      A                      A                      A
 Frequencies --    777.0433               796.0590               806.9554
 Red. masses --      3.1118                 2.9314                 1.1276
 Frc consts  --      1.1070                 1.0945                 0.4326
 IR Inten    --     20.3309                 6.2498                 0.1975

                     52                     53                     54
                      A                      A                      A
 Frequencies --    824.4918               836.4377               844.5756
 Red. masses --      2.7555                 3.2751                 1.2483
 Frc consts  --      1.1036                 1.3500                 0.5246
 IR Inten    --     23.1857                11.1392                 1.2144

                     55                     56                     57
                      A                      A                      A
 Frequencies --    869.4626               879.6162               917.8714
 Red. masses --      2.9471                 2.8003                 1.8207
 Frc consts  --      1.3126                 1.2766                 0.9038
 IR Inten    --      0.8739                20.9250                23.3275

                     58                     59                     60
                      A                      A                      A
 Frequencies --    932.1369               964.1919               980.9331
 Red. masses --      1.7182                 2.0953                 1.3945
 Frc consts  --      0.8796                 1.1477                 0.7906
 IR Inten    --      4.3726                19.3496                 1.5415

                     61                     62                     63
                      A                      A                      A
 Frequencies --    986.4188               997.1581              1003.3586
 Red. masses --      2.8813                 3.3232                 1.5622
 Frc consts  --      1.6518                 1.9468                 0.9266
 IR Inten    --      2.0380                 2.1884                 0.5610

                     64                     65                     66
                      A                      A                      A
 Frequencies --   1004.2569              1013.9693              1022.7498
 Red. masses --      3.7532                 1.3432                 2.0335
 Frc consts  --      2.2302                 0.8137                 1.2532
 IR Inten    --      3.4966                 0.8905                 3.5811

                     67                     68                     69
                      A                      A                      A
 Frequencies --   1039.3382              1050.9745              1063.6245
 Red. masses --      2.8351                 2.4592                 1.9782
 Frc consts  --      1.8044                 1.6004                 1.3185
 IR Inten    --     43.2413                15.0318                 3.9034

                     70                     71                     72
                      A                      A                      A
 Frequencies --   1085.6631              1091.9305              1107.9137
 Red. masses --      4.3248                 2.1550                 1.6638
 Frc consts  --      3.0033                 1.5138                 1.2032
 IR Inten    --    220.2015                15.5439                13.1428

                     73                     74                     75
                      A                      A                      A
 Frequencies --   1132.4062              1152.2425              1168.7552
 Red. masses --      2.1752                 2.1767                 1.5509
 Frc consts  --      1.6434                 1.7027                 1.2482
 IR Inten    --      8.1503                34.1493                 2.7695

                     76                     77                     78
                      A                      A                      A
 Frequencies --   1173.6850              1176.8020              1204.2715
 Red. masses --      1.2154                 1.8035                 1.7738
 Frc consts  --      0.9865                 1.4716                 1.5157
 IR Inten    --      4.7954                24.8012                54.5819

                     79                     80                     81
                      A                      A                      A
 Frequencies --   1207.5627              1216.6267              1220.6867
 Red. masses --      1.2097                 1.9454                 2.2465
 Frc consts  --      1.0393                 1.6966                 1.9722
 IR Inten    --      8.7990                57.4228               143.4271

                     82                     83                     84
                      A                      A                      A
 Frequencies --   1254.4131              1269.6090              1281.5474
 Red. masses --      1.6464                 1.4066                 1.1027
 Frc consts  --      1.5264                 1.3359                 1.0670
 IR Inten    --     50.3853                38.9123                 0.5680

                     85                     86                     87
                      A                      A                      A
 Frequencies --   1286.7352              1297.3136              1310.3976
 Red. masses --      1.3854                 1.4283                 1.3417
 Frc consts  --      1.3515                 1.4163                 1.3575
 IR Inten    --     60.8196                53.6097                11.5774

                     88                     89                     90
                      A                      A                      A
 Frequencies --   1320.8170              1322.5119              1335.1968
 Red. masses --      1.2716                 1.4155                 1.7518
 Frc consts  --      1.3070                 1.4586                 1.8400
 IR Inten    --     20.4214                50.9307                 2.6021

                     91                     92                     93
                      A                      A                      A
 Frequencies --   1347.3143              1357.7248              1368.4896
 Red. masses --      1.4836                 2.5429                 1.3584
 Frc consts  --      1.5867                 2.7618                 1.4989
 IR Inten    --     68.7206                 0.1925                13.9520

                     94                     95                     96
                      A                      A                      A
 Frequencies --   1387.9046              1396.5564              1413.9356
 Red. masses --      1.2419                 1.4709                 1.1999
 Frc consts  --      1.4094                 1.6903                 1.4133
 IR Inten    --     13.4342                52.9575                14.9335

                     97                     98                     99
                      A                      A                      A
 Frequencies --   1418.2679              1447.6142              1468.5104
 Red. masses --      1.5243                 1.4391                 2.2645
 Frc consts  --      1.8066                 1.7768                 2.8772
 IR Inten    --      4.4434                40.8560                 8.5535

                    100                    101                    102
                      A                      A                      A
 Frequencies --   1474.7035              1484.6625              1487.4892
 Red. masses --      1.0394                 1.0976                 1.0519
 Frc consts  --      1.3319                 1.4254                 1.3713
 IR Inten    --      4.5715                 2.5673                 1.5214

                    103                    104                    105
                      A                      A                      A
 Frequencies --   1494.3695              1499.5908              1507.7788
 Red. masses --      1.2292                 1.1589                 1.1106
 Frc consts  --      1.6173                 1.5355                 1.4875
 IR Inten    --     14.9878                16.8914                 7.5420

                    106                    107                    108
                      A                      A                      A
 Frequencies --   1508.6941              1519.8902              1624.4424
 Red. masses --      1.3501                 2.0857                 5.6955
 Frc consts  --      1.8105                 2.8388                 8.8551
 IR Inten    --     30.1133                 9.8719                 0.4129

                    109                    110                    111
                      A                      A                      A
 Frequencies --   1643.8158              1768.4340              2648.3318
 Red. masses --      5.7977                11.7977                 1.0697
 Frc consts  --      9.2303                21.7382                 4.4203
 IR Inten    --      0.0494               214.8411               641.4449

                    112                    113                    114
                      A                      A                      A
 Frequencies --   2831.6722              3038.8324              3050.2090
 Red. masses --      1.0660                 1.0352                 1.0656
 Frc consts  --      5.0360                 5.6324                 5.8414
 IR Inten    --    230.2410                15.7272                17.3195

                    115                    116                    117
                      A                      A                      A
 Frequencies --   3056.6506              3074.7374              3075.4185
 Red. masses --      1.0583                 1.0619                 1.0644
 Frc consts  --      5.8257                 5.9150                 5.9316
 IR Inten    --     17.4435                16.3147                 1.0734

                    118                    119                    120
                      A                      A                      A
 Frequencies --   3078.8665              3082.7140              3098.4996
 Red. masses --      1.0792                 1.0686                 1.0919
 Frc consts  --      6.0276                 5.9830                 6.1763
 IR Inten    --      7.3661                 6.0021                 3.8673

                    121                    122                    123
                      A                      A                      A
 Frequencies --   3100.2221              3110.1887              3115.6280
 Red. masses --      1.1073                 1.0936                 1.1014
 Frc consts  --      6.2702                 6.2328                 6.2993
 IR Inten    --      4.6257                 7.0828                20.3126

                    124                    125                    126
                      A                      A                      A
 Frequencies --   3127.7213              3128.5507              3165.4109
 Red. masses --      1.1042                 1.1054                 1.0923
 Frc consts  --      6.3646                 6.3745                 6.4486
 IR Inten    --     11.3320                32.2625                 7.0222

                    127                    128                    129
                      A                      A                      A
 Frequencies --   3165.6736              3175.6703              3184.3663
 Red. masses --      1.0973                 1.0880                 1.0930
 Frc consts  --      6.4789                 6.4647                 6.5300
 IR Inten    --      3.1480                 4.9222                21.7069

                    130                    131                    132
                      A                      A                      A
 Frequencies --   3195.0423              3197.7136              3217.7643
 Red. masses --      1.0980                 1.1003                 1.0926
 Frc consts  --      6.6039                 6.6286                 6.6652
 IR Inten    --     14.7560                 1.4977                 3.3666

 - Thermochemistry -
 -------------------
 Temperature   298.150 Kelvin.  Pressure   1.00000 Atm.
 Atom     1 has atomic number  6 and mass  12.00000

 Molecular mass:   434.99839 amu.
 Principal axes and moments of inertia in atomic units:
                           1         2         3
     Eigenvalues --  8857.66505********************
           X            0.99588   0.08976   0.01309
           Y           -0.08954   0.99585  -0.01612
           Z           -0.01448   0.01489   0.99978
 This molecule is an asymmetric top.
 Rotational symmetry number  1.
 Warning -- assumption of classical behavior for rotation
           may cause significant error
 Rotational temperatures (Kelvin)      0.00978     0.00747     0.00674
 Rotational constants (GHZ):           0.20375     0.15559     0.14041
    1 imaginary frequencies ignored.
 Zero-point vibrational energy     940626.8 (Joules/Mol)
                                  224.81520 (Kcal/Mol)
 Warning -- explicit consideration of  40 degrees of freedom as
           vibrations may cause significant error
 Vibrational temperatures:     34.81    38.17    57.15    74.45    83.29
          (Kelvin)             94.36   106.63   110.88   122.74   139.61
                              153.53   157.13   165.41   189.39   195.26
                              218.13   238.62   265.12   301.18   318.78
                              348.30   356.37   368.91   396.14   412.17
                              428.35   446.73   464.63   486.24   496.75
                              529.19   557.66   568.99   597.58   601.61
                              642.40   693.92   733.29   796.43   853.71
                              903.41   934.86   977.99  1016.53  1025.30
                             1063.13  1085.16  1117.99  1145.35  1161.03
                             1186.26  1203.45  1215.16  1250.96  1265.57
                             1320.61  1341.14  1387.26  1411.34  1419.24
                             1434.69  1443.61  1444.90  1458.88  1471.51
                             1495.38  1512.12  1530.32  1562.03  1571.04
                             1594.04  1629.28  1657.82  1681.58  1688.67
                             1693.16  1732.68  1737.41  1750.45  1756.30
                             1804.82  1826.68  1843.86  1851.32  1866.54
                             1885.37  1900.36  1902.80  1921.05  1938.48
                             1953.46  1968.95  1996.89  2009.33  2034.34
                             2040.57  2082.79  2112.86  2121.77  2136.10
                             2140.17  2150.06  2157.58  2169.36  2170.67
                             2186.78  2337.21  2365.08  2544.38  3810.36
                             4074.14  4372.20  4388.57  4397.84  4423.86
                             4424.84  4429.80  4435.34  4458.05  4460.53
                             4474.87  4482.69  4500.09  4501.29  4554.32
                             4554.70  4569.08  4581.59  4596.95  4600.80
                             4629.65

 Zero-point correction=                           0.358266 (Hartree/Particle)
 Thermal correction to Energy=                    0.384931
 Thermal correction to Enthalpy=                  0.385875
 Thermal correction to Gibbs Free Energy=         0.297744
 Sum of electronic and zero-point Energies=          -3531.042175
 Sum of electronic and thermal Energies=             -3531.015509
 Sum of electronic and thermal Enthalpies=           -3531.014565
 Sum of electronic and thermal Free Energies=        -3531.102697

                     E (Thermal)             CV                S
                      KCal/Mol        Cal/Mol-Kelvin    Cal/Mol-Kelvin
 Total                  241.548             96.439            185.489
 Electronic               0.000              0.000              3.561
 Translational            0.889              2.981             44.100
 Rotational               0.889              2.981             35.533
 Vibrational            239.771             90.477            102.294
 Vibration     1          0.593              1.985              6.256
 Vibration     2          0.593              1.984              6.073
 Vibration     3          0.594              1.981              5.273
 Vibration     4          0.596              1.977              4.750
 Vibration     5          0.596              1.974              4.528
 Vibration     6          0.597              1.971              4.282
 Vibration     7          0.599              1.966              4.041
 Vibration     8          0.599              1.964              3.964
 Vibration     9          0.601              1.959              3.765
 Vibration    10          0.603              1.951              3.513
 Vibration    11          0.606              1.944              3.328
 Vibration    12          0.606              1.942              3.283
 Vibration    13          0.608              1.937              3.183
 Vibration    14          0.612              1.922              2.922
 Vibration    15          0.614              1.918              2.863
 Vibration    16          0.619              1.901              2.652
 Vibration    17          0.624              1.884              2.482
 Vibration    18          0.631              1.861              2.285
 Vibration    19          0.642              1.827              2.049
 Vibration    20          0.648              1.808              1.946
 Vibration    21          0.658              1.776              1.788
 Vibration    22          0.661              1.767              1.747
 Vibration    23          0.666              1.752              1.686
 Vibration    24          0.677              1.719              1.563
 Vibration    25          0.684              1.699              1.495
 Vibration    26          0.691              1.678              1.430
 Vibration    27          0.699              1.654              1.360
 Vibration    28          0.708              1.630              1.295
 Vibration    29          0.718              1.600              1.222
 Vibration    30          0.724              1.585              1.188
 Vibration    31          0.740              1.538              1.089
 Vibration    32          0.756              1.497              1.009
 Vibration    33          0.762              1.480              0.979
 Vibration    34          0.779              1.437              0.908
 Vibration    35          0.781              1.431              0.898
 Vibration    36          0.806              1.369              0.806
 Vibration    37          0.839              1.289              0.704
 Vibration    38          0.865              1.229              0.634
 Vibration    39          0.909              1.132              0.537
 Vibration    40          0.951              1.046              0.461

 Optimization completed.
    -- Stationary point found.
 Normal termination of Gaussian 16 at Sun Jun 20 07:14:13 2021.

 ----------------------------------------------------------------------
 #p ub3lyp jul-cc-pvdz pop=cm5 scrf=(pcm,solvent=dichloroethane) guess=
 read geom=allcheck
 ----------------------------------------------------------------------

 Structure from the checkpoint file:  "checkpoint.chk"
 -----
 title
 -----
 Charge =  0 Multiplicity = 6

 SCF Done:  E(UB3LYP) =  -3531.43038816     A.U. after   18 cycles
 Normal termination of Gaussian 16 at Sun Jun 20 07:34:15 2021.
 Gaussian 16:  ES64L-G16RevA.03 25-Dec-2016

 ----------------------------------------------------------------------
 #p ub3lyp jul-cc-pvdz pop=cm5 scrf=(pcm,solvent=water) guess=read geom
 =allcheck
 ----------------------------------------------------------------------

 Structure from the checkpoint file:  "checkpoint.chk"
 -----
 title
 -----
 Charge =  0 Multiplicity = 6

                         Standard orientation:
 ---------------------------------------------------------------------
 Center     Atomic      Atomic             Coordinates (Angstroms)
 Number     Number       Type             X           Y           Z
 ---------------------------------------------------------------------
      1          6           0        1.796326   -1.768690    1.804717
      2          6           0        1.235717   -0.711323    1.071212
      3          6           0        1.435012    0.597194    1.535975
      4          6           0        2.161846    0.838777    2.703534
      5          6           0        2.711378   -0.221877    3.428535
      6          6           0        2.526760   -1.528448    2.972359
      7          6           0        0.463200   -0.927038   -0.249549
      8          6           0        1.491434   -1.000144   -1.461772
      9          6           0        1.957274   -2.455950   -1.478517
     10          6           0        0.732520   -3.291097   -1.039949
     11          6           0       -0.209427   -2.267711   -0.262592
     12          6           0       -1.513472   -2.344650   -0.962499
     13          6           0       -1.779453   -1.784326   -2.274842
     14          8           0       -0.464259    0.093991   -0.470389
     15         26           0       -1.872599    1.023994    0.293541
     16         17           0       -3.467314    0.977842   -1.330949
     17          6           0       -2.618011   -2.991159   -0.249725
     18         17           0       -1.344154    3.093868    0.862684
     19         17           0       -2.631955   -0.231323    2.006494
     20          1           0        1.007062    1.434489    0.989222
     21          1           0        2.288387    1.865015    3.051127
     22          1           0        3.274696   -0.032564    4.343375
     23          1           0        2.947742   -2.368690    3.526520
     24          1           0        1.676537   -2.804116    1.485465
     25          1           0        0.911465   -0.750558   -2.359391
     26          6           0        2.637708   -0.004244   -1.393532
     27          1           0        2.328187   -2.762897   -2.464239
     28          1           0        2.784219   -2.578520   -0.769285
     29          1           0        0.223733   -3.727808   -1.910830
     30          1           0        0.990569   -4.127849   -0.380266
     31          1           0       -0.369562   -2.614475    0.762752
     32          1           0       -2.280431   -3.824281    0.381734
     33          1           0       -2.935551   -2.200959    0.478455
     34          1           0       -3.470548   -3.262560   -0.879595
     35          1           0       -2.466799   -2.409563   -2.860009
     36          1           0       -2.370234   -0.846519   -2.044704
     37          1           0       -0.902541   -1.474931   -2.844273
     38          8           0        2.222147    1.231699   -1.714613
     39          8           0        3.781907   -0.288891   -1.105700
     40          6           0        3.213777    2.292593   -1.632158
     41          6           0        2.518407    3.593043   -1.980632
     42          1           0        3.624945    2.298126   -0.613785
     43          1           0        4.031730    2.054604   -2.326169
     44          1           0        3.240375    4.420036   -1.917401
     45          1           0        2.115231    3.563117   -3.002374
     46          1           0        1.692223    3.796397   -1.286073
 ---------------------------------------------------------------------

 SCF Done:  E(UB3LYP) =  -3531.43611115     A.U. after   14 cycles

 The electronic state is 6-A.
 Alpha  occ. eigenvalues -- -256.19552-101.51883-101.51814-101.51783 -30.18952
 Alpha  occ. eigenvalues --  -26.04322 -26.04198 -26.04029 -19.20149 -19.15559
 Alpha  occ. eigenvalues --  -19.15125 -10.32714 -10.32638 -10.28106 -10.24743
 Alpha  occ. eigenvalues --  -10.23234 -10.22446 -10.22403 -10.22096 -10.21712
 Alpha  occ. eigenvalues --  -10.21114 -10.20289 -10.20224 -10.20078 -10.19975
 Alpha  occ. eigenvalues --  -10.19926 -10.19706 -10.18650  -9.43578  -9.43523
 Alpha  occ. eigenvalues --   -9.43517  -7.19443  -7.19373  -7.19373  -7.19134
 Alpha  occ. eigenvalues --   -7.19106  -7.19082  -7.19072  -7.19049  -7.19039
 Alpha  occ. eigenvalues --   -3.66683  -2.44298  -2.44054  -2.43759  -1.11959
 Alpha  occ. eigenvalues --   -1.03490  -1.02831  -0.90071  -0.87111  -0.84726
 Alpha  occ. eigenvalues --   -0.79766  -0.79150  -0.79093  -0.78951  -0.77291
 Alpha  occ. eigenvalues --   -0.76157  -0.75626  -0.74846  -0.72394  -0.66763
 Alpha  occ. eigenvalues --   -0.64031  -0.62036  -0.61049  -0.59933  -0.57467
 Alpha  occ. eigenvalues --   -0.56613  -0.55021  -0.53355  -0.51431  -0.50756
 Alpha  occ. eigenvalues --   -0.49924  -0.49400  -0.48473  -0.48187  -0.48148
 Alpha  occ. eigenvalues --   -0.47185  -0.47013  -0.46783  -0.46510  -0.45979
 Alpha  occ. eigenvalues --   -0.44936  -0.44704  -0.43833  -0.43236  -0.42830
 Alpha  occ. eigenvalues --   -0.42646  -0.42294  -0.41650  -0.41018  -0.40423
 Alpha  occ. eigenvalues --   -0.39950  -0.39002  -0.37702  -0.37626  -0.37311
 Alpha  occ. eigenvalues --   -0.37104  -0.36367  -0.35905  -0.35778  -0.35341
 Alpha  occ. eigenvalues --   -0.35140  -0.34174  -0.33721  -0.31724  -0.31433
 Alpha  occ. eigenvalues --   -0.30842  -0.30603  -0.30438  -0.30395  -0.29697
 Alpha  occ. eigenvalues --   -0.29440  -0.28787  -0.27958  -0.26591  -0.26151
 Alpha virt. eigenvalues --   -0.13728  -0.02871  -0.02713  -0.01557  -0.01331
 Alpha virt. eigenvalues --   -0.00258  -0.00083   0.00092   0.01438   0.01642
 Alpha virt. eigenvalues --    0.01702   0.01807   0.02343   0.03216   0.03797

  Beta  occ. eigenvalues -- -256.19366-101.51723-101.51670-101.51624 -30.10036
  Beta  occ. eigenvalues --  -25.96838 -25.96775 -25.96640 -19.20148 -19.15121
  Beta  occ. eigenvalues --  -19.14664 -10.32715 -10.32633 -10.28087 -10.24743
  Beta  occ. eigenvalues --  -10.23214 -10.22446 -10.22403 -10.22095 -10.21684
  Beta  occ. eigenvalues --  -10.21094 -10.20287 -10.20221 -10.20076 -10.19975
  Beta  occ. eigenvalues --  -10.19926 -10.19709 -10.18650  -9.43420  -9.43375
  Beta  occ. eigenvalues --   -9.43366  -7.19157  -7.19115  -7.19103  -7.18930
  Beta  occ. eigenvalues --   -7.18905  -7.18903  -7.18854  -7.18853  -7.18847
  Beta  occ. eigenvalues --   -3.45896  -2.22250  -2.22188  -2.21962  -1.11956
  Beta  occ. eigenvalues --   -1.03484  -1.01134  -0.89846  -0.87048  -0.84639
  Beta  occ. eigenvalues --   -0.79061  -0.78736  -0.78059  -0.77990  -0.77172
  Beta  occ. eigenvalues --   -0.76126  -0.75611  -0.74821  -0.72217  -0.66670
  Beta  occ. eigenvalues --   -0.63968  -0.61980  -0.60998  -0.59803  -0.57371
  Beta  occ. eigenvalues --   -0.56184  -0.54925  -0.52032  -0.51306  -0.50715
  Beta  occ. eigenvalues --   -0.49819  -0.49079  -0.48212  -0.47991  -0.47465
  Beta  occ. eigenvalues --   -0.46019  -0.44705  -0.44295  -0.43286  -0.42931
  Beta  occ. eigenvalues --   -0.42807  -0.42309  -0.41671  -0.41080  -0.40429
  Beta  occ. eigenvalues --   -0.39936  -0.38835  -0.37690  -0.37604  -0.37430
  Beta  occ. eigenvalues --   -0.37263  -0.36349  -0.36251  -0.35864  -0.35430
  Beta  occ. eigenvalues --   -0.35317  -0.35175  -0.35102  -0.32786  -0.32616
  Beta  occ. eigenvalues --   -0.32242  -0.31903  -0.31618  -0.31331  -0.29542
  Beta  occ. eigenvalues --   -0.29488  -0.28901  -0.28484  -0.26596  -0.26127
  Beta virt. eigenvalues --   -0.14001  -0.13404  -0.13228  -0.12414  -0.11872
  Beta virt. eigenvalues --   -0.10989  -0.02822  -0.02682  -0.01456  -0.01278
  Beta virt. eigenvalues --   -0.00213  -0.00046   0.00121   0.01464   0.01655

 Mulliken charges and spin densities:
               1          2
     1  C   -0.305914   0.000328
     2  C    2.750287   0.009695
     3  C   -0.644307  -0.001216
     4  C    0.079569   0.007174
     5  C    0.189463   0.001126
     6  C   -0.166972   0.001400
     7  C   -1.696957  -0.017497
     8  C    0.527892   0.015040
     9  C    0.624523   0.002808
    10  C    0.483335  -0.001335
    11  C    1.469546   0.012631
    12  C   -0.822091   0.009369
    13  C    0.052885  -0.005448
    14  O   -0.518440   0.312250
    15  Fe   0.626244   4.043540
    16  Cl  -0.578267   0.189845
    17  C    0.281386  -0.004453
    18  Cl  -0.510928   0.221961
    19  Cl  -0.563671   0.203371
    20  H   -0.252570  -0.000625
    21  H   -0.168587  -0.000060
    22  H   -0.163729   0.000002
    23  H   -0.160955   0.000141
    24  H   -0.229066   0.000003
    25  H   -0.197147  -0.000359
    26  C    0.904362  -0.001706
    27  H   -0.146105   0.000704
    28  H   -0.060009   0.000065
    29  H   -0.098408   0.000186
    30  H   -0.089740   0.000017
    31  H   -0.201514   0.000042
    32  H    0.052526   0.000174
    33  H    0.163352   0.000985
    34  H    0.004576   0.000032
    35  H    0.029597  -0.000043
    36  H    0.207676   0.000703
    37  H    0.057575   0.000107
    38  O   -0.717001  -0.002399
    39  O   -0.652994   0.001450
    40  C    0.439389  -0.000281
    41  C    0.051795   0.000407
    42  H   -0.037740   0.000011
    43  H   -0.050924   0.000009
    44  H   -0.004549   0.000006
    45  H    0.020308  -0.000009
    46  H    0.022299  -0.000153
 Sum of Mulliken charges =  -0.00000   5.00000

 Dipole moment (field-independent basis, Debye):
    X=              3.1072    Y=            -13.4281    Z=             -5.5232  Tot=             14.8484
 Quadrupole moment (field-independent basis, Debye-Ang):
   XX=           -199.1957   YY=           -149.5763   ZZ=           -169.6646
   XY=             29.9294   XZ=             11.0016   YZ=              5.8935

 Normal termination of Gaussian 16 at Sun Jun 20 07:50:19 2021.
