 Gaussian 16, Revision A.03,

 -----------------------------------------------------------
 #p opt=modredundant freq=noraman ub3lyp jul-cc-pvdz pop=cm5
 -----------------------------------------------------------

 -----
 title
 -----
 Symbolic Z-matrix:
 Charge =  0 Multiplicity = 6

 SCF Done:  E(UB3LYP) =  -3531.40393736     A.U. after   26 cycles
 SCF Done:  E(UB3LYP) =  -3531.40400608     A.U. after   16 cycles
 SCF Done:  E(UB3LYP) =  -3531.40386683     A.U. after   16 cycles
 SCF Done:  E(UB3LYP) =  -3531.40449635     A.U. after   16 cycles
 SCF Done:  E(UB3LYP) =  -3531.40459677     A.U. after   15 cycles
 SCF Done:  E(UB3LYP) =  -3531.40466205     A.U. after   15 cycles
 SCF Done:  E(UB3LYP) =  -3531.40468571     A.U. after   14 cycles
 SCF Done:  E(UB3LYP) =  -3531.40472538     A.U. after   13 cycles
 SCF Done:  E(UB3LYP) =  -3531.40476472     A.U. after   15 cycles
 SCF Done:  E(UB3LYP) =  -3531.40479504     A.U. after   13 cycles
 SCF Done:  E(UB3LYP) =  -3531.40489586     A.U. after   14 cycles
 SCF Done:  E(UB3LYP) =  -3531.40489933     A.U. after   14 cycles
 SCF Done:  E(UB3LYP) =  -3531.40490181     A.U. after   12 cycles
 SCF Done:  E(UB3LYP) =  -3531.40490356     A.U. after   14 cycles
 SCF Done:  E(UB3LYP) =  -3531.40490413     A.U. after   14 cycles
 SCF Done:  E(UB3LYP) =  -3531.40490441     A.U. after   11 cycles
 SCF Done:  E(UB3LYP) =  -3531.40490450     A.U. after   10 cycles
 Optimization completed.
    -- Stationary point found.
 Normal termination of Gaussian 16 at Sun Jun 20 06:37:08 2021.

 ----------------------------------------------------------------------
 #P Geom=AllCheck Guess=TCheck SCRF=Check GenChk UB3LYP/Jul-CC-pVDZ Fre
 q
 ----------------------------------------------------------------------

 Structure from the checkpoint file:  "checkpoint.chk"
 -----
 title
 -----
 Charge =  0 Multiplicity = 6

 SCF Done:  E(UB3LYP) =  -3531.40490450     A.U. after    1 cycles

  Exact polarizability: 310.677  -5.426 312.932  27.091  12.456 281.342
 Approx polarizability: 461.172 -16.950 495.048  45.273  23.061 453.930

                      1                      2                      3
                      A                      A                      A
 Frequencies --     16.6446                26.5700                28.1285
 Red. masses --      6.9996                10.9834                 4.4977
 Frc consts  --      0.0011                 0.0046                 0.0021
 IR Inten    --      0.6547                 0.0410                 1.5982

                      4                      5                      6
                      A                      A                      A
 Frequencies --     45.0458                51.5498                62.3856
 Red. masses --      4.2752                 4.9122                 4.7144
 Frc consts  --      0.0051                 0.0077                 0.0108
 IR Inten    --      1.6498                 0.7596                 0.6022

                      7                      8                      9
                      A                      A                      A
 Frequencies --     71.7650                74.5980                77.0664
 Red. masses --      6.3909                 3.3326                 4.3078
 Frc consts  --      0.0194                 0.0109                 0.0151
 IR Inten    --      0.9258                 0.3615                 0.9879

                     10                     11                     12
                      A                      A                      A
 Frequencies --     86.1703                99.3319               107.4684
 Red. masses --      7.1383                 6.1031                 9.6990
 Frc consts  --      0.0312                 0.0355                 0.0660
 IR Inten    --      0.6934                 1.2630                 0.0806

                     13                     14                     15
                      A                      A                      A
 Frequencies --    109.4560               116.7278               127.2125
 Red. masses --      7.4386                 3.3616                 6.5069
 Frc consts  --      0.0525                 0.0270                 0.0620
 IR Inten    --      0.3314                 3.1115                15.0823

                     16                     17                     18
                      A                      A                      A
 Frequencies --    133.5385               151.5053               168.2056
 Red. masses --      6.5601                 4.3176                 2.7710
 Frc consts  --      0.0689                 0.0584                 0.0462
 IR Inten    --     11.1191                 3.9325                 1.4170

                     19                     20                     21
                      A                      A                      A
 Frequencies --    186.8691               206.7383               226.6671
 Red. masses --      4.3327                 5.1216                 2.9740
 Frc consts  --      0.0891                 0.1290                 0.0900
 IR Inten    --      0.8540                 8.0872                 4.4389

                     22                     23                     24
                      A                      A                      A
 Frequencies --    236.6034               248.6578               252.9019
 Red. masses --      1.4336                 1.4982                 1.4714
 Frc consts  --      0.0473                 0.0546                 0.0554
 IR Inten    --      5.6979                 4.2097                 4.3347

                     25                     26                     27
                      A                      A                      A
 Frequencies --    262.7414               282.1415               290.1171
 Red. masses --      1.9472                 3.1891                 3.6204
 Frc consts  --      0.0792                 0.1496                 0.1795
 IR Inten    --      0.6055                 1.5099                 3.0350

                     28                     29                     30
                      A                      A                      A
 Frequencies --    304.5294               326.6973               340.6339
 Red. masses --      4.4701                14.9841                 4.5024
 Frc consts  --      0.2442                 0.9423                 0.3078
 IR Inten    --      2.6516                38.7846                33.9404

                     31                     32                     33
                      A                      A                      A
 Frequencies --    349.8745               359.5433               382.6608
 Red. masses --      6.1084                 5.0175                 5.8322
 Frc consts  --      0.4406                 0.3822                 0.5032
 IR Inten    --     30.0156                21.0304                27.0957

                     34                     35                     36
                      A                      A                      A
 Frequencies --    389.9067               414.2167               418.8217
 Red. masses --     19.7925                 3.1146                 3.7476
 Frc consts  --      1.7729                 0.3149                 0.3873
 IR Inten    --     73.4890                 0.6895                 4.6272

                     37                     38                     39
                      A                      A                      A
 Frequencies --    428.6521               477.5156               513.1165
 Red. masses --      3.3873                 2.9375                 2.4573
 Frc consts  --      0.3667                 0.3946                 0.3812
 IR Inten    --      1.6141                 0.1909                 5.5187

                     40                     41                     42
                      A                      A                      A
 Frequencies --    551.8488               577.0059               627.1137
 Red. masses --      3.7307                 2.3947                 6.2801
 Frc consts  --      0.6694                 0.4698                 1.4552
 IR Inten    --     22.0443                 4.3310                 0.5670

                     43                     44                     45
                      A                      A                      A
 Frequencies --    645.9017               666.6549               706.7726
 Red. masses --      5.4709                 2.9342                 2.0182
 Frc consts  --      1.3448                 0.7683                 0.5940
 IR Inten    --     13.9056                 3.6056                39.2362

                     46                     47                     48
                      A                      A                      A
 Frequencies --    717.0098               752.1404               757.9830
 Red. masses --      2.8106                 2.4131                 1.5348
 Frc consts  --      0.8513                 0.8043                 0.5195
 IR Inten    --     10.2249                35.0707                26.7560

                     49                     50                     51
                      A                      A                      A
 Frequencies --    774.5042               779.0508               807.5887
 Red. masses --      3.2256                 4.1209                 1.1320
 Frc consts  --      1.1400                 1.4736                 0.4350
 IR Inten    --      7.6327                48.0674                 0.2521

                     52                     53                     54
                      A                      A                      A
 Frequencies --    819.9389               842.4884               846.6346
 Red. masses --      2.7688                 1.9763                 1.3751
 Frc consts  --      1.0968                 0.8265                 0.5807
 IR Inten    --     10.8767                10.5033                 2.7832

                     55                     56                     57
                      A                      A                      A
 Frequencies --    872.1198               878.1828               917.4671
 Red. masses --      2.9099                 2.9406                 2.0611
 Frc consts  --      1.3040                 1.3361                 1.0222
 IR Inten    --     31.7689                23.6909                24.8211

                     58                     59                     60
                      A                      A                      A
 Frequencies --    938.3702               940.9165               976.9860
 Red. masses --      1.8010                 3.4621                 2.2657
 Frc consts  --      0.9344                 1.8059                 1.2742
 IR Inten    --      6.1316                44.4092                29.8713

                     61                     62                     63
                      A                      A                      A
 Frequencies --    982.6334              1001.0701              1001.4266
 Red. masses --      1.3579                 2.6196                 3.6392
 Frc consts  --      0.7725                 1.5467                 2.1503
 IR Inten    --      0.7807                11.8913                 0.6670

                     64                     65                     66
                      A                      A                      A
 Frequencies --   1004.0219              1007.9869              1019.5092
 Red. masses --      1.5802                 1.4873                 2.6423
 Frc consts  --      0.9385                 0.8903                 1.6181
 IR Inten    --      1.0781                12.2629                 4.6123

                     67                     68                     69
                      A                      A                      A
 Frequencies --   1028.9098              1043.5037              1053.5223
 Red. masses --      2.2695                 2.8698                 2.3056
 Frc consts  --      1.4156                 1.8412                 1.5077
 IR Inten    --      4.4465                31.1027                 2.0022

                     70                     71                     72
                      A                      A                      A
 Frequencies --   1071.4982              1102.0392              1106.5333
 Red. masses --      2.1513                 2.0245                 2.2142
 Frc consts  --      1.4553                 1.4487                 1.5973
 IR Inten    --     21.8340                34.5151                59.7531

                     73                     74                     75
                      A                      A                      A
 Frequencies --   1127.2557              1133.5240              1160.4772
 Red. masses --      2.7979                 2.2067                 2.2022
 Frc consts  --      2.0947                 1.6705                 1.7474
 IR Inten    --    129.7931                 5.2343                22.9099

                     76                     77                     78
                      A                      A                      A
 Frequencies --   1169.0172              1174.6886              1183.2221
 Red. masses --      1.5490                 1.0885                 1.9504
 Frc consts  --      1.2472                 0.8849                 1.6088
 IR Inten    --      2.2268                 0.2623                64.8460

                     79                     80                     81
                      A                      A                      A
 Frequencies --   1204.9650              1208.6168              1223.8179
 Red. masses --      1.3028                 1.1470                 2.5064
 Frc consts  --      1.1145                 0.9872                 2.2117
 IR Inten    --     13.1692                 4.3544               210.7591

                     82                     83                     84
                      A                      A                      A
 Frequencies --   1257.0096              1267.0278              1281.4388
 Red. masses --      1.4742                 1.5325                 1.1064
 Frc consts  --      1.3724                 1.4495                 1.0705
 IR Inten    --     26.8671                41.8303                 1.8796

                     85                     86                     87
                      A                      A                      A
 Frequencies --   1289.9133              1302.6270              1310.8651
 Red. masses --      1.5605                 1.4316                 1.3494
 Frc consts  --      1.5298                 1.4312                 1.3662
 IR Inten    --    101.5688                82.1334                38.8373

                     88                     89                     90
                      A                      A                      A
 Frequencies --   1315.6773              1325.6380              1329.5404
 Red. masses --      1.3721                 1.1686                 1.7104
 Frc consts  --      1.3994                 1.2100                 1.7813
 IR Inten    --     30.8554                38.9323                13.3200

                     91                     92                     93
                      A                      A                      A
 Frequencies --   1345.4309              1357.8323              1369.2412
 Red. masses --      1.6716                 2.3679                 1.3520
 Frc consts  --      1.7828                 2.5722                 1.4935
 IR Inten    --     83.7129                 0.6817                 9.7695

                     94                     95                     96
                      A                      A                      A
 Frequencies --   1389.0821              1393.3564              1415.0997
 Red. masses --      1.0903                 1.6040                 1.2076
 Frc consts  --      1.2395                 1.8348                 1.4248
 IR Inten    --     10.9690                61.0483                10.9273

                     97                     98                     99
                      A                      A                      A
 Frequencies --   1418.2805              1433.4159              1467.0986
 Red. masses --      1.4480                 1.4118                 2.2750
 Frc consts  --      1.7161                 1.7091                 2.8850
 IR Inten    --      5.7928                45.3900                13.1117

                    100                    101                    102
                      A                      A                      A
 Frequencies --   1474.8989              1488.3303              1488.4688
 Red. masses --      1.0389                 1.0708                 1.0710
 Frc consts  --      1.3315                 1.3976                 1.3980
 IR Inten    --      4.2335                 1.7756                 1.0764

                    103                    104                    105
                      A                      A                      A
 Frequencies --   1496.7046              1502.5193              1506.1862
 Red. masses --      1.2840                 1.2739                 1.1883
 Frc consts  --      1.6947                 1.6944                 1.5883
 IR Inten    --     21.3316                19.0266                11.2340

                    106                    107                    108
                      A                      A                      A
 Frequencies --   1507.8878              1518.6736              1622.7594
 Red. masses --      1.0905                 2.1025                 5.6110
 Frc consts  --      1.4609                 2.8571                 8.7056
 IR Inten    --      6.0334                 6.6232                 0.3312

                    109                    110                    111
                      A                      A                      A
 Frequencies --   1641.7775              1768.1797              2708.6011
 Red. masses --      5.7882                11.7745                 1.0664
 Frc consts  --      9.1923                21.6893                 4.6095
 IR Inten    --      0.6328               223.7820               126.9220

                    112                    113                    114
                      A                      A                      A
 Frequencies --   2757.2699              3038.1053              3056.5267
 Red. masses --      1.0701                 1.0353                 1.0582
 Frc consts  --      4.7934                 5.6300                 5.8248
 IR Inten    --    694.9161                17.9488                17.6913

                    115                    116                    117
                      A                      A                      A
 Frequencies --   3061.0108              3070.7022              3073.1889
 Red. masses --      1.0612                 1.0823                 1.0634
 Frc consts  --      5.8586                 6.0129                 5.9176
 IR Inten    --     19.8098                 8.2692                 1.3800

                    118                    119                    120
                      A                      A                      A
 Frequencies --   3075.1346              3077.2317              3099.4715
 Red. masses --      1.0627                 1.0649                 1.1032
 Frc consts  --      5.9208                 5.9412                 6.2445
 IR Inten    --     24.4168                 1.5602                 5.3795

                    121                    122                    123
                      A                      A                      A
 Frequencies --   3100.0446              3115.0009              3121.5388
 Red. masses --      1.1073                 1.1016                 1.0896
 Frc consts  --      6.2696                 6.2980                 6.2553
 IR Inten    --      6.6645                19.5737                 1.6140

                    124                    125                    126
                      A                      A                      A
 Frequencies --   3127.8649              3129.2790              3165.5395
 Red. masses --      1.1014                 1.1053                 1.1049
 Frc consts  --      6.3489                 6.3769                 6.5233
 IR Inten    --     18.2009                24.5950                 6.4684

                    127                    128                    129
                      A                      A                      A
 Frequencies --   3166.8676              3177.0133              3184.3511
 Red. masses --      1.0848                 1.0882                 1.1008
 Frc consts  --      6.4099                 6.4712                 6.5769
 IR Inten    --      1.1077                 5.0935                 3.7217

                    130                    131                    132
                      A                      A                      A
 Frequencies --   3185.8590              3195.5953              3215.8606
 Red. masses --      1.0929                 1.0979                 1.0927
 Frc consts  --      6.5353                 6.6059                 6.6579
 IR Inten    --     20.8518                13.8009                 5.2971

 - Thermochemistry -
 -------------------
 Temperature   298.150 Kelvin.  Pressure   1.00000 Atm.
 Atom     1 has atomic number  6 and mass  12.00000

 Molecular mass:   434.99839 amu.
 Principal axes and moments of inertia in atomic units:
                           1         2         3
     Eigenvalues --  8994.46154********************
           X            0.99668   0.07946   0.01780
           Y           -0.07939   0.99683  -0.00462
           Z           -0.01811   0.00319   0.99983
 This molecule is an asymmetric top.
 Rotational symmetry number  1.
 Warning -- assumption of classical behavior for rotation
           may cause significant error
 Rotational temperatures (Kelvin)      0.00963     0.00758     0.00677
 Rotational constants (GHZ):           0.20065     0.15802     0.14103
 Zero-point vibrational energy     939337.2 (Joules/Mol)
                                  224.50697 (Kcal/Mol)
 Warning -- explicit consideration of  41 degrees of freedom as
           vibrations may cause significant error
 Vibrational temperatures:     23.95    38.23    40.47    64.81    74.17
          (Kelvin)             89.76   103.25   107.33   110.88   123.98
                              142.92   154.62   157.48   167.95   183.03
                              192.13   217.98   242.01   268.86   297.45
                              326.12   340.42   357.76   363.87   378.03
                              405.94   417.41   438.15   470.04   490.10
                              503.39   517.30   550.56   560.99   595.97
                              602.59   616.73   687.04   738.26   793.99
                              830.18   902.28   929.31   959.17  1016.89
                             1031.62  1082.16  1090.57  1114.34  1120.88
                             1161.94  1179.71  1212.15  1218.12  1254.79
                             1263.51  1320.03  1350.11  1353.77  1405.67
                             1413.79  1440.32  1440.83  1444.56  1450.27
                             1466.85  1480.37  1501.37  1515.78  1541.65
                             1585.59  1592.05  1621.87  1630.89  1669.67
                             1681.96  1690.11  1702.39  1733.68  1738.93
                             1760.80  1808.56  1822.97  1843.70  1855.90
                             1874.19  1886.04  1892.97  1907.30  1912.91
                             1935.78  1953.62  1970.03  1998.58  2004.73
                             2036.01  2040.59  2062.37  2110.83  2122.05
                             2141.38  2141.57  2153.42  2161.79  2167.07
                             2169.51  2185.03  2334.79  2362.15  2544.02
                             3897.07  3967.10  4371.16  4397.66  4404.11
                             4418.06  4421.63  4424.43  4427.45  4459.45
                             4460.27  4481.79  4491.20  4500.30  4502.33
                             4554.51  4556.42  4571.01  4581.57  4583.74
                             4597.75  4626.91

 Zero-point correction=                           0.357775 (Hartree/Particle)
 Thermal correction to Energy=                    0.385398
 Thermal correction to Enthalpy=                  0.386343
 Thermal correction to Gibbs Free Energy=         0.295151
 Sum of electronic and zero-point Energies=          -3531.047130
 Sum of electronic and thermal Energies=             -3531.019506
 Sum of electronic and thermal Enthalpies=           -3531.018562
 Sum of electronic and thermal Free Energies=        -3531.109753

                     E (Thermal)             CV                S
                      KCal/Mol        Cal/Mol-Kelvin    Cal/Mol-Kelvin
 Total                  241.841             98.719            191.928
 Electronic               0.000              0.000              3.561
 Translational            0.889              2.981             44.100
 Rotational               0.889              2.981             35.529
 Vibrational            240.064             92.758            108.738
 Vibration     1          0.593              1.986              6.999
 Vibration     2          0.593              1.984              6.070
 Vibration     3          0.593              1.984              5.957
 Vibration     4          0.595              1.979              5.024
 Vibration     5          0.596              1.977              4.757
 Vibration     6          0.597              1.972              4.380
 Vibration     7          0.598              1.967              4.104
 Vibration     8          0.599              1.966              4.028
 Vibration     9          0.599              1.964              3.964
 Vibration    10          0.601              1.959              3.745
 Vibration    11          0.604              1.950              3.467
 Vibration    12          0.606              1.943              3.314
 Vibration    13          0.606              1.942              3.279
 Vibration    14          0.608              1.935              3.154
 Vibration    15          0.611              1.926              2.988
 Vibration    16          0.613              1.920              2.894
 Vibration    17          0.619              1.901              2.653
 Vibration    18          0.625              1.882              2.455
 Vibration    19          0.632              1.858              2.259
 Vibration    20          0.641              1.830              2.072
 Vibration    21          0.650              1.800              1.905
 Vibration    22          0.655              1.785              1.828
 Vibration    23          0.662              1.765              1.740
 Vibration    24          0.664              1.758              1.710
 Vibration    25          0.670              1.741              1.643
 Vibration    26          0.681              1.707              1.521
 Vibration    27          0.686              1.692              1.473
 Vibration    28          0.695              1.665              1.392
 Vibration    29          0.710              1.622              1.276
 Vibration    30          0.720              1.594              1.209
 Vibration    31          0.727              1.576              1.167
 Vibration    32          0.734              1.556              1.124
 Vibration    33          0.752              1.507              1.029
 Vibration    34          0.758              1.492              1.000
 Vibration    35          0.778              1.439              0.912
 Vibration    36          0.782              1.429              0.896
 Vibration    37          0.790              1.408              0.863
 Vibration    38          0.834              1.300              0.717
 Vibration    39          0.868              1.221              0.626
 Vibration    40          0.907              1.136              0.540
 Vibration    41          0.933              1.081              0.491

 Optimization completed.
    -- Stationary point found.
 Normal termination of Gaussian 16 at Sun Jun 20 11:09:41 2021.

 ----------------------------------------------------------------------
 #p ub3lyp jul-cc-pvdz pop=cm5 scrf=(pcm,solvent=dichloroethane) guess=
 read geom=allcheck
 ----------------------------------------------------------------------

 Structure from the checkpoint file:  "checkpoint.chk"
 -----
 title
 -----
 Charge =  0 Multiplicity = 6

 SCF Done:  E(UB3LYP) =  -3531.43371273     A.U. after   18 cycles
 Normal termination of Gaussian 16 at Sun Jun 20 11:38:42 2021.
 Gaussian 16:  ES64L-G16RevA.03 25-Dec-2016

 ----------------------------------------------------------------------
 #p ub3lyp jul-cc-pvdz pop=cm5 scrf=(pcm,solvent=water) guess=read geom
 =allcheck
 ----------------------------------------------------------------------

 Structure from the checkpoint file:  "checkpoint.chk"
 -----
 title
 -----
 Charge =  0 Multiplicity = 6

                         Standard orientation:
 ---------------------------------------------------------------------
 Center     Atomic      Atomic             Coordinates (Angstroms)
 Number     Number       Type             X           Y           Z
 ---------------------------------------------------------------------
      1          6           0        2.090689   -1.815694    1.585339
      2          6           0        1.342828   -0.772451    1.015239
      3          6           0        1.366228    0.480338    1.647374
      4          6           0        2.104169    0.679312    2.816284
      5          6           0        2.838308   -0.367986    3.377822
      6          6           0        2.830123   -1.617780    2.754497
      7          6           0        0.561806   -0.921893   -0.305582
      8          6           0        1.526521   -0.758622   -1.553953
      9          6           0        2.187089   -2.120443   -1.739054
     10          6           0        1.083146   -3.150538   -1.419539
     11          6           0        0.061499   -2.433734   -0.460627
     12          6           0       -1.316323   -2.519586   -0.982545
     13          6           0       -1.698202   -2.018791   -2.295784
     14          8           0       -0.479978   -0.019840   -0.397911
     15         26           0       -1.917702    0.873962    0.346656
     16         17           0       -3.525034    0.703601   -1.243780
     17          6           0       -2.364106   -3.019326   -0.099037
     18         17           0       -1.455996    2.977610    0.853854
     19         17           0       -2.595798   -0.331967    2.129389
     20          1           0        0.803316    1.310872    1.227372
     21          1           0        2.094894    1.660988    3.291889
     22          1           0        3.409527   -0.213418    4.294287
     23          1           0        3.398305   -2.447072    3.178426
     24          1           0        2.113986   -2.806631    1.132407
     25          1           0        0.865977   -0.514043   -2.396564
     26          6           0        2.522451    0.384194   -1.421698
     27          1           0        2.586386   -2.251817   -2.752695
     28          1           0        3.032056   -2.213176   -1.047093
     29          1           0        0.586709   -3.484135   -2.339949
     30          1           0        1.474517   -4.053538   -0.934642
     31          1           0        0.071535   -2.890504    0.531961
     32          1           0       -2.021318   -3.850175    0.532394
     33          1           0       -2.528576   -2.175019    0.628731
     34          1           0       -3.315351   -3.233538   -0.595655
     35          1           0       -2.439102   -2.668346   -2.782281
     36          1           0       -2.265667   -1.073457   -2.066239
     37          1           0       -0.870440   -1.769802   -2.962303
     38          8           0        1.928711    1.568346   -1.637329
     39          8           0        3.701052    0.243375   -1.168660
     40          6           0        2.761116    2.751961   -1.483199
     41          6           0        1.884199    3.960730   -1.739186
     42          1           0        3.178038    2.745610   -0.467106
     43          1           0        3.596988    2.679683   -2.192661
     44          1           0        2.481267    4.875636   -1.613806
     45          1           0        1.483668    3.946956   -2.762389
     46          1           0        1.042075    3.991584   -1.034932
 ---------------------------------------------------------------------

 SCF Done:  E(UB3LYP) =  -3531.43923796     A.U. after   14 cycles

 The electronic state is 6-A.
 Alpha  occ. eigenvalues -- -256.19681-101.51974-101.51857-101.51830 -30.19080
 Alpha  occ. eigenvalues --  -26.04420 -26.04330 -26.04183 -19.20154 -19.15808
 Alpha  occ. eigenvalues --  -19.15111 -10.32719 -10.32328 -10.29186 -10.24731
 Alpha  occ. eigenvalues --  -10.23220 -10.22258 -10.22116 -10.21685 -10.21591
 Alpha  occ. eigenvalues --  -10.21281 -10.20370 -10.20141 -10.20051 -10.19999
 Alpha  occ. eigenvalues --  -10.19903 -10.19849 -10.18574  -9.43673  -9.43590
 Alpha  occ. eigenvalues --   -9.43533  -7.19536  -7.19443  -7.19393  -7.19237
 Alpha  occ. eigenvalues --   -7.19193  -7.19149  -7.19116  -7.19083  -7.19059
 Alpha  occ. eigenvalues --   -3.66821  -2.44376  -2.44205  -2.43948  -1.11960
 Alpha  occ. eigenvalues --   -1.03486  -1.03319  -0.89608  -0.87142  -0.84552
 Alpha  occ. eigenvalues --   -0.79835  -0.79187  -0.79111  -0.78864  -0.77291
 Alpha  occ. eigenvalues --   -0.76013  -0.75549  -0.74839  -0.71961  -0.66624
 Alpha  occ. eigenvalues --   -0.64050  -0.62004  -0.61123  -0.59691  -0.57189
 Alpha  occ. eigenvalues --   -0.56750  -0.54876  -0.53382  -0.51359  -0.50693
 Alpha  occ. eigenvalues --   -0.50068  -0.49342  -0.48654  -0.48123  -0.47837
 Alpha  occ. eigenvalues --   -0.47263  -0.47112  -0.46892  -0.46574  -0.46103
 Alpha  occ. eigenvalues --   -0.44898  -0.44400  -0.43893  -0.43273  -0.42856
 Alpha  occ. eigenvalues --   -0.42596  -0.42094  -0.41295  -0.40987  -0.40765
 Alpha  occ. eigenvalues --   -0.39904  -0.38982  -0.37746  -0.37578  -0.37116
 Alpha  occ. eigenvalues --   -0.37041  -0.36328  -0.35944  -0.35799  -0.35476
 Alpha  occ. eigenvalues --   -0.34915  -0.34186  -0.33788  -0.31753  -0.31356
 Alpha  occ. eigenvalues --   -0.30861  -0.30637  -0.30501  -0.30321  -0.29780
 Alpha  occ. eigenvalues --   -0.29441  -0.28882  -0.28086  -0.26653  -0.26201
 Alpha virt. eigenvalues --   -0.14117  -0.02970  -0.02740  -0.01523  -0.01248
 Alpha virt. eigenvalues --   -0.00211  -0.00071   0.00092   0.01415   0.01678
 Alpha virt. eigenvalues --    0.01753   0.01835   0.02453   0.03284   0.03826

  Beta  occ. eigenvalues -- -256.19496-101.51816-101.51696-101.51683 -30.10157
  Beta  occ. eigenvalues --  -25.96945 -25.96901 -25.96774 -19.20154 -19.15106
  Beta  occ. eigenvalues --  -19.14930 -10.32720 -10.32320 -10.29168 -10.24731
  Beta  occ. eigenvalues --  -10.23195 -10.22258 -10.22115 -10.21655 -10.21592
  Beta  occ. eigenvalues --  -10.21260 -10.20367 -10.20139 -10.20051 -10.19999
  Beta  occ. eigenvalues --  -10.19899 -10.19853 -10.18574  -9.43517  -9.43432
  Beta  occ. eigenvalues --   -9.43388  -7.19250  -7.19181  -7.19121  -7.19037
  Beta  occ. eigenvalues --   -7.18994  -7.18919  -7.18913  -7.18908  -7.18870
  Beta  occ. eigenvalues --   -3.46022  -2.22352  -2.22314  -2.22114  -1.11956
  Beta  occ. eigenvalues --   -1.03477  -1.01606  -0.89433  -0.87086  -0.84458
  Beta  occ. eigenvalues --   -0.78938  -0.78781  -0.78099  -0.78035  -0.77179
  Beta  occ. eigenvalues --   -0.75992  -0.75523  -0.74817  -0.71775  -0.66500
  Beta  occ. eigenvalues --   -0.63974  -0.61955  -0.61057  -0.59498  -0.57122
  Beta  occ. eigenvalues --   -0.56190  -0.54753  -0.52153  -0.51274  -0.50646
  Beta  occ. eigenvalues --   -0.49893  -0.48974  -0.48221  -0.47718  -0.47465
  Beta  occ. eigenvalues --   -0.46165  -0.44584  -0.44179  -0.43306  -0.42918
  Beta  occ. eigenvalues --   -0.42840  -0.42075  -0.41232  -0.41096  -0.40738
  Beta  occ. eigenvalues --   -0.39895  -0.38866  -0.37721  -0.37547  -0.37501
  Beta  occ. eigenvalues --   -0.37011  -0.36398  -0.36152  -0.35842  -0.35530
  Beta  occ. eigenvalues --   -0.35394  -0.35258  -0.34845  -0.32817  -0.32667
  Beta  occ. eigenvalues --   -0.32402  -0.31958  -0.31551  -0.31467  -0.29551
  Beta  occ. eigenvalues --   -0.29536  -0.28942  -0.28343  -0.26655  -0.26177
  Beta virt. eigenvalues --   -0.14255  -0.13589  -0.13352  -0.12481  -0.12022
  Beta virt. eigenvalues --   -0.11166  -0.02917  -0.02711  -0.01424  -0.01201
  Beta virt. eigenvalues --   -0.00162  -0.00041   0.00120   0.01441   0.01692

 Mulliken charges and spin densities:
               1          2
     1  C   -0.310368   0.001837
     2  C    3.008910   0.008729
     3  C   -0.603617  -0.006505
     4  C    0.076097   0.005085
     5  C    0.181410   0.000455
     6  C   -0.108270   0.001723
     7  C   -2.310250  -0.021539
     8  C    0.545778   0.013808
     9  C    0.609479   0.003441
    10  C    0.466876  -0.001160
    11  C    1.238331   0.019561
    12  C   -0.564089   0.011485
    13  C    0.116642  -0.005535
    14  O   -0.424715   0.306507
    15  Fe   0.660372   4.039753
    16  Cl  -0.574538   0.196033
    17  C    0.299695  -0.004162
    18  Cl  -0.501773   0.223636
    19  Cl  -0.556321   0.201690
    20  H   -0.274805  -0.000221
    21  H   -0.167997  -0.000057
    22  H   -0.162552   0.000009
    23  H   -0.159834   0.000181
    24  H   -0.236281  -0.000023
    25  H   -0.185818  -0.000297
    26  C    0.901808   0.001629
    27  H   -0.150106   0.000770
    28  H   -0.057303   0.000056
    29  H   -0.093618   0.000129
    30  H   -0.091092   0.000169
    31  H   -0.208427   0.000168
    32  H    0.048423   0.000302
    33  H    0.197939   0.002237
    34  H    0.006531   0.000005
    35  H    0.030886   0.000029
    36  H    0.200147   0.000728
    37  H    0.068347   0.000139
    38  O   -0.710811  -0.001586
    39  O   -0.647233   0.001458
    40  C    0.433716  -0.000914
    41  C    0.054552   0.000540
    42  H   -0.036543   0.000010
    43  H   -0.050154   0.000014
    44  H   -0.005373   0.000020
    45  H    0.020016  -0.000016
    46  H    0.025930  -0.000320
 Sum of Mulliken charges =  -0.00000   5.00000

 Dipole moment (field-independent basis, Debye):
    X=              3.8958    Y=            -12.9010    Z=             -5.6625  Tot=             14.6177
 Quadrupole moment (field-independent basis, Debye-Ang):
   XX=           -202.7555   YY=           -146.2558   ZZ=           -169.5113
   XY=             22.9929   XZ=             11.9591   YZ=              7.3774

 Normal termination of Gaussian 16 at Sun Jun 20 12:01:24 2021.
