 Gaussian 16, Revision A.03,

 -----------------------------------------------------------
 #p opt=modredundant freq=noraman ub3lyp jul-cc-pvdz pop=cm5
 -----------------------------------------------------------

 -----
 title
 -----
 Symbolic Z-matrix:
 Charge =  0 Multiplicity = 6

 SCF Done:  E(UB3LYP) =  -3531.44028328     A.U. after   24 cycles
 SCF Done:  E(UB3LYP) =  -3531.43706373     A.U. after   22 cycles
 SCF Done:  E(UB3LYP) =  -3531.44000728     A.U. after   17 cycles
 SCF Done:  E(UB3LYP) =  -3531.44039039     A.U. after   10 cycles
 SCF Done:  E(UB3LYP) =  -3531.43996063     A.U. after   17 cycles
 SCF Done:  E(UB3LYP) =  -3531.44041173     A.U. after   17 cycles
 SCF Done:  E(UB3LYP) =  -3531.44043936     A.U. after   15 cycles
 SCF Done:  E(UB3LYP) =  -3531.44049627     A.U. after   15 cycles
 SCF Done:  E(UB3LYP) =  -3531.44050283     A.U. after   13 cycles
 SCF Done:  E(UB3LYP) =  -3531.44051229     A.U. after   12 cycles
 SCF Done:  E(UB3LYP) =  -3531.44055424     A.U. after   12 cycles
 SCF Done:  E(UB3LYP) =  -3531.44055447     A.U. after   10 cycles
 SCF Done:  E(UB3LYP) =  -3531.44055444     A.U. after   10 cycles
 SCF Done:  E(UB3LYP) =  -3531.44055419     A.U. after    9 cycles
 SCF Done:  E(UB3LYP) =  -3531.44055391     A.U. after    9 cycles
 SCF Done:  E(UB3LYP) =  -3531.44055444     A.U. after   11 cycles
 SCF Done:  E(UB3LYP) =  -3531.44055390     A.U. after   11 cycles
 Optimization completed.
    -- Stationary point found.
 Normal termination of Gaussian 16 at Tue Jun 22 09:06:43 2021.

 ----------------------------------------------------------------------
 #P Geom=AllCheck Guess=TCheck SCRF=Check GenChk UB3LYP/Jul-CC-pVDZ Fre
 q
 ----------------------------------------------------------------------

 Structure from the checkpoint file:  "checkpoint.chk"
 -----
 title
 -----
 Charge =  0 Multiplicity = 6

 SCF Done:  E(UB3LYP) =  -3531.44055390     A.U. after    2 cycles

  Exact polarizability: 318.036  14.152 304.005  18.820   1.868 300.394
 Approx polarizability: 492.482  50.761 460.003  27.720 -11.794 492.103

 ******    1 imaginary frequencies (negative Signs) ******

                      1                      2                      3
                      A                      A                      A
 Frequencies --    -19.4849                13.6380                20.1021
 Red. masses --      5.9769                 5.4039                 6.2209
 Frc consts  --      0.0013                 0.0006                 0.0015
 IR Inten    --      0.2064                 0.2345                 1.1242

                      4                      5                      6
                      A                      A                      A
 Frequencies --     27.1368                48.6748                49.9990
 Red. masses --      7.1797                 7.0165                 5.6182
 Frc consts  --      0.0031                 0.0098                 0.0083
 IR Inten    --      1.2732                 0.9896                 1.4742

                      7                      8                      9
                      A                      A                      A
 Frequencies --     55.5057                63.2599                78.6214
 Red. masses --      3.5514                 2.9955                 9.9307
 Frc consts  --      0.0064                 0.0071                 0.0362
 IR Inten    --      1.2457                 1.3323                 0.1726

                     10                     11                     12
                      A                      A                      A
 Frequencies --     85.3456                88.6039                97.1811
 Red. masses --      9.9187                 7.3003                 3.6894
 Frc consts  --      0.0426                 0.0338                 0.0205
 IR Inten    --      0.1640                 4.6154                 0.5973

                     13                     14                     15
                      A                      A                      A
 Frequencies --    103.9992               110.0786               115.1195
 Red. masses --      5.3393                 1.9694                 9.4294
 Frc consts  --      0.0340                 0.0141                 0.0736
 IR Inten    --      0.3327                 0.9458                 0.0530

                     16                     17                     18
                      A                      A                      A
 Frequencies --    123.1563               133.3643               145.0284
 Red. masses --     11.2875                 3.4535                 3.5015
 Frc consts  --      0.1009                 0.0362                 0.0434
 IR Inten    --      1.9794                 2.7196                 2.6389

                     19                     20                     21
                      A                      A                      A
 Frequencies --    162.1228               169.6193               188.4743
 Red. masses --      2.9270                 2.3802                 2.8306
 Frc consts  --      0.0453                 0.0403                 0.0592
 IR Inten    --     10.2322                 3.1256                 8.2152

                     22                     23                     24
                      A                      A                      A
 Frequencies --    203.5290               208.7175               219.6712
 Red. masses --      2.8191                 1.2347                 2.9761
 Frc consts  --      0.0688                 0.0317                 0.0846
 IR Inten    --      0.2461                 2.8314                 5.9424

                     25                     26                     27
                      A                      A                      A
 Frequencies --    258.3945               270.3081               285.5119
 Red. masses --      1.6082                 4.0804                 3.9990
 Frc consts  --      0.0633                 0.1757                 0.1921
 IR Inten    --      2.9432                41.9584                 2.8974

                     28                     29                     30
                      A                      A                      A
 Frequencies --    317.0187               336.9403               348.4647
 Red. masses --      2.2468                17.0691                 8.8300
 Frc consts  --      0.1330                 1.1417                 0.6317
 IR Inten    --      0.3660                 7.9615                46.9941

                     31                     32                     33
                      A                      A                      A
 Frequencies --    353.7224               382.0585               393.9951
 Red. masses --      6.0666                 4.8809                 2.6753
 Frc consts  --      0.4472                 0.4198                 0.2447
 IR Inten    --      8.2619                11.7839                11.7302

                     34                     35                     36
                      A                      A                      A
 Frequencies --    399.1895               403.1617               411.5385
 Red. masses --     20.3725                22.5131                 2.9234
 Frc consts  --      1.9127                 2.1560                 0.2917
 IR Inten    --     70.3953                74.2638                 2.2097

                     37                     38                     39
                      A                      A                      A
 Frequencies --    422.5885               449.1748               474.3499
 Red. masses --      3.7241                 3.2690                 3.1626
 Frc consts  --      0.3918                 0.3886                 0.4193
 IR Inten    --     37.8404                 2.1503                 4.7240

                     40                     41                     42
                      A                      A                      A
 Frequencies --    500.9113               514.8712               545.3117
 Red. masses --      3.0155                 2.7810                 3.1468
 Frc consts  --      0.4458                 0.4344                 0.5513
 IR Inten    --     13.4201                 1.1670                18.5126

                     43                     44                     45
                      A                      A                      A
 Frequencies --    571.7713               624.1460               654.7317
 Red. masses --      4.7009                 6.3489                 4.3117
 Frc consts  --      0.9055                 1.4572                 1.0890
 IR Inten    --     70.0053                 3.0883                69.0012

                     46                     47                     48
                      A                      A                      A
 Frequencies --    691.3393               697.6052               751.4806
 Red. masses --      1.5925                 6.1016                 4.3555
 Frc consts  --      0.4484                 1.7495                 1.4492
 IR Inten    --     59.2704                14.4875                 7.2575

                     49                     50                     51
                      A                      A                      A
 Frequencies --    771.3481               782.5492               804.9544
 Red. masses --      2.3192                 2.1435                 1.1852
 Frc consts  --      0.8130                 0.7734                 0.4525
 IR Inten    --     22.2642                 6.6443                 1.6280

                     52                     53                     54
                      A                      A                      A
 Frequencies --    827.7143               843.7262               846.0395
 Red. masses --      3.9637                 1.4875                 1.2777
 Frc consts  --      1.6000                 0.6239                 0.5389
 IR Inten    --     10.7927                20.0959                 0.3498

                     55                     56                     57
                      A                      A                      A
 Frequencies --    864.0380               896.7449               909.9844
 Red. masses --      2.7823                 2.0926                 2.1359
 Frc consts  --      1.2238                 0.9915                 1.0421
 IR Inten    --     29.3531                 2.4565                18.1481

                     58                     59                     60
                      A                      A                      A
 Frequencies --    953.8441               959.4097               972.2576
 Red. masses --      1.4406                 1.3679                 3.5905
 Frc consts  --      0.7722                 0.7418                 1.9997
 IR Inten    --      1.5658                 2.5215                23.6836

                     61                     62                     63
                      A                      A                      A
 Frequencies --    989.7974               990.2446               994.1194
 Red. masses --      2.0679                 1.3504                 1.5918
 Frc consts  --      1.1936                 0.7802                 0.9269
 IR Inten    --     23.5346                 2.3229                11.9945

                     64                     65                     66
                      A                      A                      A
 Frequencies --   1002.9331              1011.4625              1015.7768
 Red. masses --      3.9360                 1.3933                 2.0425
 Frc consts  --      2.3327                 0.8398                 1.2417
 IR Inten    --      1.8171                 0.6658                 2.3454

                     67                     68                     69
                      A                      A                      A
 Frequencies --   1036.3992              1046.4758              1074.7208
 Red. masses --      2.6468                 2.4263                 2.2334
 Frc consts  --      1.6750                 1.5655                 1.5199
 IR Inten    --     44.1651                 3.0789                 2.9810

                     70                     71                     72
                      A                      A                      A
 Frequencies --   1091.9253              1093.9905              1114.2300
 Red. masses --      1.9362                 2.0007                 1.5583
 Frc consts  --      1.3601                 1.4108                 1.1399
 IR Inten    --      4.6424                18.6941                 8.1849

                     73                     74                     75
                      A                      A                      A
 Frequencies --   1133.2825              1136.6345              1162.2344
 Red. masses --      2.1443                 2.1332                 1.6751
 Frc consts  --      1.6226                 1.6238                 1.3332
 IR Inten    --     15.3199                10.9442                81.7953

                     76                     77                     78
                      A                      A                      A
 Frequencies --   1170.3220              1178.2012              1204.0118
 Red. masses --      1.5621                 1.0850                 1.2378
 Frc consts  --      1.2606                 0.8874                 1.0572
 IR Inten    --      2.6930                 1.7252                40.0974

                     79                     80                     81
                      A                      A                      A
 Frequencies --   1209.4164              1227.0791              1253.2072
 Red. masses --      1.6463                 1.9668                 1.9622
 Frc consts  --      1.4188                 1.7448                 1.8156
 IR Inten    --     89.5122               129.0253                29.3369

                     82                     83                     84
                      A                      A                      A
 Frequencies --   1275.7392              1285.7824              1323.6299
 Red. masses --      2.2349                 1.1588                 1.4502
 Frc consts  --      2.1431                 1.1287                 1.4970
 IR Inten    --    164.4707                 8.9975                24.6952

                     85                     86                     87
                      A                      A                      A
 Frequencies --   1332.6713              1337.6849              1339.1354
 Red. masses --      1.4351                 1.6368                 1.6012
 Frc consts  --      1.5017                 1.7257                 1.6918
 IR Inten    --     65.4305                63.8618                32.5285

                     88                     89                     90
                      A                      A                      A
 Frequencies --   1364.4052              1369.0850              1376.7596
 Red. masses --      1.6237                 2.7735                 1.3363
 Frc consts  --      1.7809                 3.0629                 1.4923
 IR Inten    --      6.1522                12.1086                 2.9098

                     91                     92                     93
                      A                      A                      A
 Frequencies --   1381.7161              1401.4765              1409.8468
 Red. masses --      1.3720                 1.3411                 1.3781
 Frc consts  --      1.5433                 1.5520                 1.6139
 IR Inten    --     24.0017                 6.8274                16.7711

                     94                     95                     96
                      A                      A                      A
 Frequencies --   1416.0031              1459.1632              1465.2622
 Red. masses --      1.4011                 1.0983                 2.1886
 Frc consts  --      1.6552                 1.3777                 2.7685
 IR Inten    --     11.5470                14.8334                50.0751

                     97                     98                     99
                      A                      A                      A
 Frequencies --   1470.9917              1473.6179              1477.3400
 Red. masses --      1.0834                 1.0384                 1.0496
 Frc consts  --      1.3813                 1.3285                 1.3497
 IR Inten    --      6.4085                 5.9890                11.6659

                    100                    101                    102
                      A                      A                      A
 Frequencies --   1480.7488              1487.2165              1488.3865
 Red. masses --      1.0810                 1.0567                 1.1075
 Frc consts  --      1.3965                 1.3770                 1.4455
 IR Inten    --      5.7199                 4.4500                 9.0928

                    103                    104                    105
                      A                      A                      A
 Frequencies --   1497.7506              1505.6625              1515.9331
 Red. masses --      1.0873                 1.0836                 2.2302
 Frc consts  --      1.4370                 1.4473                 3.0197
 IR Inten    --     12.0709                 5.8032                47.0327

                    106                    107                    108
                      A                      A                      A
 Frequencies --   1536.2210              1618.7449              1640.8938
 Red. masses --      5.1919                 5.4683                 5.6721
 Frc consts  --      7.2192                 8.4423                 8.9981
 IR Inten    --    648.4072                22.0923                38.7302

                    109                    110                    111
                      A                      A                      A
 Frequencies --   1704.2826              1768.2875              3016.9950
 Red. masses --      6.3600                11.5479                 1.0405
 Frc consts  --     10.8841                21.2744                 5.5801
 IR Inten    --     95.5095               222.1611                 8.8193

                    112                    113                    114
                      A                      A                      A
 Frequencies --   3023.4752              3032.8100              3042.6325
 Red. masses --      1.0471                 1.0666                 1.0358
 Frc consts  --      5.6394                 5.7804                 5.6499
 IR Inten    --     13.6915                31.2235                16.7496

                    115                    116                    117
                      A                      A                      A
 Frequencies --   3061.2022              3065.5474              3073.8567
 Red. masses --      1.0588                 1.0656                 1.0965
 Frc consts  --      5.8458                 5.9003                 6.1044
 IR Inten    --     14.4203                28.6203                10.9391

                    118                    119                    120
                      A                      A                      A
 Frequencies --   3077.9416              3089.5024              3097.3825
 Red. masses --      1.0849                 1.0949                 1.0871
 Frc consts  --      6.0558                 6.1575                 6.1446
 IR Inten    --      0.0305                 5.1763                 2.6007

                    121                    122                    123
                      A                      A                      A
 Frequencies --   3109.4233              3118.9773              3122.2166
 Red. masses --      1.1068                 1.1017                 1.1010
 Frc consts  --      6.3048                 6.3146                 6.3233
 IR Inten    --      8.0337                16.7205                14.2039

                    124                    125                    126
                      A                      A                      A
 Frequencies --   3123.0016              3134.5998              3139.5698
 Red. masses --      1.0984                 1.0887                 1.1048
 Frc consts  --      6.3115                 6.3024                 6.4163
 IR Inten    --      4.0029                25.9135                14.6386

                    127                    128                    129
                      A                      A                      A
 Frequencies --   3149.6760              3175.3862              3189.1913
 Red. masses --      1.0999                 1.0864                 1.0913
 Frc consts  --      6.4287                 6.4539                 6.5397
 IR Inten    --     12.3890                 0.6530                 6.1804

                    130                    131                    132
                      A                      A                      A
 Frequencies --   3197.7278              3227.4999              3238.9291
 Red. masses --      1.0968                 1.0928                 1.0923
 Frc consts  --      6.6078                 6.7068                 6.7513
 IR Inten    --     10.8252                 1.6714                 3.8150

 - Thermochemistry -
 -------------------
 Temperature   298.150 Kelvin.  Pressure   1.00000 Atm.
 Atom     1 has atomic number  6 and mass  12.00000

 Molecular mass:   434.99839 amu.
 Principal axes and moments of inertia in atomic units:
                           1         2         3
     Eigenvalues --  9534.89552********************
           X            0.99696  -0.07677   0.01360
           Y            0.07637   0.99668   0.02825
           Z           -0.01572  -0.02713   0.99951
 This molecule is an asymmetric top.
 Rotational symmetry number  1.
 Warning -- assumption of classical behavior for rotation
           may cause significant error
 Rotational temperatures (Kelvin)      0.00908     0.00779     0.00658
 Rotational constants (GHZ):           0.18928     0.16223     0.13716
    1 imaginary frequencies ignored.
 Zero-point vibrational energy     944156.2 (Joules/Mol)
                                  225.65875 (Kcal/Mol)
 Warning -- explicit consideration of  42 degrees of freedom as
           vibrations may cause significant error
 Vibrational temperatures:     19.62    28.92    39.04    70.03    71.94
          (Kelvin)             79.86    91.02   113.12   122.79   127.48
                              139.82   149.63   158.38   165.63   177.19
                              191.88   208.66   233.26   244.04   271.17
                              292.83   300.30   316.06   371.77   388.91
                              410.79   456.12   484.78   501.36   508.93
                              549.70   566.87   574.34   580.06   592.11
                              608.01   646.26   682.48   720.70   740.78
                              784.58   822.65   898.01   942.01   994.68
                             1003.70  1081.21  1109.80  1125.91  1158.15
                             1190.90  1213.93  1217.26  1243.16  1290.22
                             1309.26  1372.37  1380.38  1398.86  1424.10
                             1424.74  1430.32  1443.00  1455.27  1461.48
                             1491.15  1505.65  1546.28  1571.04  1574.01
                             1603.13  1630.54  1635.36  1672.20  1683.83
                             1695.17  1732.30  1740.08  1765.49  1803.09
                             1835.50  1849.95  1904.41  1917.42  1924.63
                             1926.72  1963.07  1969.81  1980.85  1987.98
                             2016.41  2028.46  2037.31  2099.41  2108.19
                             2116.43  2120.21  2125.56  2130.47  2139.77
                             2141.46  2154.93  2166.31  2181.09  2210.28
                             2329.01  2360.88  2452.08  2544.17  4340.78
                             4350.11  4363.54  4377.67  4404.39  4410.64
                             4422.59  4428.47  4445.10  4456.44  4473.77
                             4487.51  4492.17  4493.30  4509.99  4517.14
                             4531.68  4568.67  4588.53  4600.82  4643.65
                             4660.10

 Zero-point correction=                           0.359610 (Hartree/Particle)
 Thermal correction to Energy=                    0.387201
 Thermal correction to Enthalpy=                  0.388145
 Thermal correction to Gibbs Free Energy=         0.296281
 Sum of electronic and zero-point Energies=          -3531.080944
 Sum of electronic and thermal Energies=             -3531.053353
 Sum of electronic and thermal Enthalpies=           -3531.052409
 Sum of electronic and thermal Free Energies=        -3531.144273

                     E (Thermal)             CV                S
                      KCal/Mol        Cal/Mol-Kelvin    Cal/Mol-Kelvin
 Total                  242.972             97.701            193.345
 Electronic               0.000              0.000              3.561
 Translational            0.889              2.981             44.100
 Rotational               0.889              2.981             35.588
 Vibrational            241.195             91.740            110.096
 Vibration     1          0.593              1.986              7.395
 Vibration     2          0.593              1.986              6.624
 Vibration     3          0.593              1.984              6.028
 Vibration     4          0.595              1.978              4.871
 Vibration     5          0.595              1.978              4.817
 Vibration     6          0.596              1.975              4.611
 Vibration     7          0.597              1.972              4.353
 Vibration     8          0.600              1.964              3.925
 Vibration     9          0.601              1.959              3.764
 Vibration    10          0.601              1.957              3.691
 Vibration    11          0.603              1.951              3.510
 Vibration    12          0.605              1.946              3.378
 Vibration    13          0.606              1.941              3.268
 Vibration    14          0.608              1.937              3.181
 Vibration    15          0.610              1.930              3.050
 Vibration    16          0.613              1.920              2.897
 Vibration    17          0.616              1.908              2.736
 Vibration    18          0.622              1.889              2.525
 Vibration    19          0.625              1.880              2.440
 Vibration    20          0.633              1.856              2.243
 Vibration    21          0.639              1.835              2.101
 Vibration    22          0.642              1.827              2.055
 Vibration    23          0.647              1.811              1.962
 Vibration    24          0.667              1.749              1.673
 Vibration    25          0.674              1.728              1.594
 Vibration    26          0.683              1.701              1.500
 Vibration    27          0.704              1.641              1.325
 Vibration    28          0.718              1.602              1.227
 Vibration    29          0.726              1.578              1.173
 Vibration    30          0.730              1.568              1.150
 Vibration    31          0.752              1.508              1.031
 Vibration    32          0.761              1.483              0.985
 Vibration    33          0.765              1.472              0.966
 Vibration    34          0.769              1.463              0.951
 Vibration    35          0.776              1.445              0.921
 Vibration    36          0.785              1.421              0.883
 Vibration    37          0.808              1.363              0.798
 Vibration    38          0.831              1.307              0.725
 Vibration    39          0.856              1.248              0.656
 Vibration    40          0.870              1.217              0.622
 Vibration    41          0.900              1.150              0.554
 Vibration    42          0.928              1.092              0.501

 Optimization completed.
    -- Stationary point found.
 Normal termination of Gaussian 16 at Tue Jun 22 12:58:53 2021.

 ----------------------------------------------------------------------
 #p ub3lyp jul-cc-pvdz pop=cm5 scrf=(pcm,solvent=dichloroethane) guess=
 read geom=allcheck
 ----------------------------------------------------------------------

 Structure from the checkpoint file:  "checkpoint.chk"
 -----
 title
 -----
 Charge =  0 Multiplicity = 6

 SCF Done:  E(UB3LYP) =  -3531.45745572     A.U. after   18 cycles
 Normal termination of Gaussian 16 at Tue Jun 22 13:22:02 2021.
 Gaussian 16:  ES64L-G16RevA.03 25-Dec-2016

 ----------------------------------------------------------------------
 #p ub3lyp jul-cc-pvdz pop=cm5 scrf=(pcm,solvent=water) guess=read geom
 =allcheck
 ----------------------------------------------------------------------

 Structure from the checkpoint file:  "checkpoint.chk"
 -----
 title
 -----
 Charge =  0 Multiplicity = 6

                         Standard orientation:
 ---------------------------------------------------------------------
 Center     Atomic      Atomic             Coordinates (Angstroms)
 Number     Number       Type             X           Y           Z
 ---------------------------------------------------------------------
      1          6           0        3.155468    0.397616    0.675233
      2          6           0        1.902588   -0.243319    0.781880
      3          6           0        1.592989   -0.939316    1.971537
      4          6           0        2.514147   -1.008386    3.011980
      5          6           0        3.759062   -0.379790    2.887987
      6          6           0        4.072749    0.327205    1.721888
      7          6           0        0.874494   -0.173382   -0.275970
      8          6           0        1.001548    0.727129   -1.515925
      9          6           0        2.080924    0.320607   -2.538353
     10          6           0        1.879483   -1.133248   -2.993798
     11          6           0        1.825923   -2.049562   -1.803953
     12          6           0        0.757327   -2.742436   -1.356514
     13          6           0       -0.573723   -2.800802   -2.053832
     14          8           0       -0.239619   -0.720228   -0.061609
     15         26           0       -2.116672   -0.332359    0.439526
     16         17           0       -3.100473    0.503966   -1.344519
     17          6           0        0.869679   -3.633955   -0.151606
     18         17           0       -1.969913    1.060945    2.140381
     19         17           0       -2.932149   -2.283883    1.060303
     20          1           0        0.617686   -1.408747    2.075346
     21          1           0        2.258434   -1.544335    3.926387
     22          1           0        4.480514   -0.431495    3.705121
     23          1           0        5.034415    0.832767    1.629504
     24          1           0        3.411607    0.975657   -0.207595
     25          1           0        0.015592    0.655150   -1.993253
     26          6           0        1.161246    2.199611   -1.092122
     27          1           0        2.014608    1.010320   -3.391219
     28          1           0        3.083460    0.453319   -2.116706
     29          1           0        0.965763   -1.209466   -3.597006
     30          1           0        2.715508   -1.415034   -3.652966
     31          1           0        2.763778   -2.153495   -1.250512
     32          1           0        1.869039   -3.601361    0.299713
     33          1           0        0.119216   -3.361059    0.605590
     34          1           0        0.651646   -4.676457   -0.434833
     35          1           0       -0.642420   -3.751320   -2.608990
     36          1           0       -1.398124   -2.805411   -1.329463
     37          1           0       -0.741444   -1.986292   -2.765236
     38          8           0        0.003817    2.680028   -0.630858
     39          8           0        2.189586    2.835514   -1.187560
     40          6           0       -0.005352    4.073901   -0.192873
     41          6           0       -1.442744    4.458168    0.086896
     42          1           0        0.629678    4.145543    0.700781
     43          1           0        0.448762    4.680931   -0.986530
     44          1           0       -1.473681    5.502446    0.430090
     45          1           0       -2.055874    4.371617   -0.820310
     46          1           0       -1.876740    3.817814    0.865102
 ---------------------------------------------------------------------

 SCF Done:  E(UB3LYP) =  -3531.46067617     A.U. after   15 cycles

 The electronic state is 6-A.
 Alpha  occ. eigenvalues -- -256.21550-101.52784-101.52764-101.52744 -30.20926
 Alpha  occ. eigenvalues --  -26.06370 -26.06094 -26.06016 -19.21045 -19.19481
 Alpha  occ. eigenvalues --  -19.16119 -10.34086 -10.33634 -10.25156 -10.23373
 Alpha  occ. eigenvalues --  -10.22876 -10.22015 -10.21998 -10.21879 -10.21231
 Alpha  occ. eigenvalues --  -10.21208 -10.21058 -10.20520 -10.19454 -10.18665
 Alpha  occ. eigenvalues --  -10.18652 -10.18418 -10.18383  -9.44510  -9.44481
 Alpha  occ. eigenvalues --   -9.44462  -7.20378  -7.20352  -7.20330  -7.20064
 Alpha  occ. eigenvalues --   -7.20050  -7.20039  -7.20018  -7.20017  -7.20004
 Alpha  occ. eigenvalues --   -3.68579  -2.46313  -2.45803  -2.45642  -1.12986
 Alpha  occ. eigenvalues --   -1.10043  -1.04497  -0.88644  -0.85008  -0.82400
 Alpha  occ. eigenvalues --   -0.80806  -0.80048  -0.80019  -0.79008  -0.78611
 Alpha  occ. eigenvalues --   -0.77301  -0.74991  -0.70057  -0.69532  -0.67306
 Alpha  occ. eigenvalues --   -0.64784  -0.62964  -0.61702  -0.59966  -0.57832
 Alpha  occ. eigenvalues --   -0.56279  -0.53823  -0.52915  -0.51962  -0.50734
 Alpha  occ. eigenvalues --   -0.50252  -0.49383  -0.49086  -0.48696  -0.48612
 Alpha  occ. eigenvalues --   -0.48257  -0.47379  -0.47125  -0.46940  -0.45904
 Alpha  occ. eigenvalues --   -0.45371  -0.45083  -0.44240  -0.43152  -0.42537
 Alpha  occ. eigenvalues --   -0.42457  -0.41004  -0.40488  -0.40027  -0.39409
 Alpha  occ. eigenvalues --   -0.38964  -0.38322  -0.37912  -0.37777  -0.37692
 Alpha  occ. eigenvalues --   -0.37205  -0.36970  -0.36588  -0.36249  -0.35091
 Alpha  occ. eigenvalues --   -0.34998  -0.34439  -0.33483  -0.32578  -0.32351
 Alpha  occ. eigenvalues --   -0.31581  -0.31566  -0.31322  -0.31179  -0.30398
 Alpha  occ. eigenvalues --   -0.30122  -0.29827  -0.28733  -0.27958  -0.24682
 Alpha virt. eigenvalues --   -0.11348  -0.03580  -0.02230  -0.01676  -0.00936
 Alpha virt. eigenvalues --   -0.00151   0.00001   0.00104   0.00889   0.01533
 Alpha virt. eigenvalues --    0.01688   0.01955   0.02395   0.02777   0.03175

  Beta  occ. eigenvalues -- -256.21365-101.52593-101.52568-101.52551 -30.11990
  Beta  occ. eigenvalues --  -25.98789 -25.98700 -25.98650 -19.21045 -19.19124
  Beta  occ. eigenvalues --  -19.16117 -10.34084 -10.33607 -10.25156 -10.23362
  Beta  occ. eigenvalues --  -10.22860 -10.22012 -10.21993 -10.21877 -10.21231
  Beta  occ. eigenvalues --  -10.21209 -10.21038 -10.20518 -10.19455 -10.18651
  Beta  occ. eigenvalues --  -10.18640 -10.18419 -10.18384  -9.44323  -9.44289
  Beta  occ. eigenvalues --   -9.44274  -7.20066  -7.20036  -7.20020  -7.19802
  Beta  occ. eigenvalues --   -7.19792  -7.19769  -7.19754  -7.19753  -7.19742
  Beta  occ. eigenvalues --   -3.47738  -2.24035  -2.23948  -2.23882  -1.12980
  Beta  occ. eigenvalues --   -1.09353  -1.04493  -0.88609  -0.84956  -0.82345
  Beta  occ. eigenvalues --   -0.79559  -0.78963  -0.78726  -0.78670  -0.78573
  Beta  occ. eigenvalues --   -0.77295  -0.74961  -0.70035  -0.69424  -0.67189
  Beta  occ. eigenvalues --   -0.64741  -0.62935  -0.61569  -0.59570  -0.57640
  Beta  occ. eigenvalues --   -0.55701  -0.53358  -0.52734  -0.51882  -0.50541
  Beta  occ. eigenvalues --   -0.49806  -0.49060  -0.47665  -0.47193  -0.46825
  Beta  occ. eigenvalues --   -0.45413  -0.45229  -0.44237  -0.43170  -0.42522
  Beta  occ. eigenvalues --   -0.42428  -0.41036  -0.40455  -0.40030  -0.39336
  Beta  occ. eigenvalues --   -0.38918  -0.38485  -0.38260  -0.37803  -0.37688
  Beta  occ. eigenvalues --   -0.37211  -0.36952  -0.36587  -0.36463  -0.36386
  Beta  occ. eigenvalues --   -0.36260  -0.35072  -0.33821  -0.33627  -0.33405
  Beta  occ. eigenvalues --   -0.32892  -0.32796  -0.32316  -0.31535  -0.30828
  Beta  occ. eigenvalues --   -0.29978  -0.29794  -0.28885  -0.27954  -0.24564
  Beta virt. eigenvalues --   -0.15657  -0.15099  -0.14285  -0.13807  -0.13772
  Beta virt. eigenvalues --   -0.10351  -0.03559  -0.02201  -0.01555  -0.00865
  Beta virt. eigenvalues --   -0.00111   0.00039   0.00144   0.01033   0.01553

 Mulliken charges and spin densities:
               1          2
     1  C    0.040059   0.002355
     2  C    3.051638  -0.006722
     3  C   -0.669239  -0.002742
     4  C    0.092925   0.000247
     5  C    0.303694   0.005692
     6  C   -0.152175  -0.000215
     7  C   -2.129565   0.002867
     8  C    0.352665   0.012573
     9  C    0.588940   0.003527
    10  C    0.599026  -0.001320
    11  C    0.169381   0.016164
    12  C    0.006039   0.012884
    13  C    0.142074  -0.001331
    14  O   -0.277893   0.101968
    15  Fe   0.698447   4.067687
    16  Cl  -0.503196   0.255334
    17  C    0.239250  -0.000530
    18  Cl  -0.464303   0.262440
    19  Cl  -0.470640   0.262289
    20  H   -0.245757  -0.000773
    21  H   -0.156937   0.000024
    22  H   -0.146917  -0.000080
    23  H   -0.152925   0.000131
    24  H   -0.186867  -0.000100
    25  H   -0.169903  -0.000991
    26  C    0.777277   0.002024
    27  H   -0.128395   0.000233
    28  H   -0.026361   0.000008
    29  H   -0.088411   0.000014
    30  H   -0.120660   0.001043
    31  H   -0.255362  -0.000730
    32  H   -0.024243   0.000023
    33  H    0.050307   0.000358
    34  H   -0.031665   0.000985
    35  H   -0.020261   0.001079
    36  H    0.048268   0.001626
    37  H    0.027087  -0.000184
    38  O   -0.659885   0.001870
    39  O   -0.558950   0.001164
    40  C    0.432407   0.000821
    41  C    0.038839  -0.001423
    42  H   -0.031689   0.000044
    43  H   -0.035435   0.000022
    44  H   -0.007380   0.000058
    45  H    0.027482   0.000046
    46  H    0.029210  -0.000462
 Sum of Mulliken charges =  -0.00000   5.00000

 Dipole moment (field-independent basis, Debye):
    X=             10.1091    Y=             -0.3449    Z=             -1.2972  Tot=             10.1978
 Quadrupole moment (field-independent basis, Debye-Ang):
   XX=           -186.3109   YY=           -169.8279   ZZ=           -168.2120
   XY=            -10.9696   XZ=             11.6987   YZ=              1.9854

 Normal termination of Gaussian 16 at Tue Jun 22 13:41:25 2021.
