 Gaussian 16, Revision A.03,

 -----------------------------------------------------------
 #p opt=modredundant freq=noraman ub3lyp jul-cc-pvdz pop=cm5
 -----------------------------------------------------------

 -----
 title
 -----
 Symbolic Z-matrix:
 Charge =  0 Multiplicity = 6

 SCF Done:  E(UB3LYP) =  -3531.43317372     A.U. after   22 cycles
 SCF Done:  E(UB3LYP) =  -3531.43352217     A.U. after   14 cycles
 SCF Done:  E(UB3LYP) =  -3531.43295373     A.U. after   15 cycles
 SCF Done:  E(UB3LYP) =  -3531.43368407     A.U. after   14 cycles
 SCF Done:  E(UB3LYP) =  -3531.43370297     A.U. after   13 cycles
 SCF Done:  E(UB3LYP) =  -3531.43371124     A.U. after   13 cycles
 SCF Done:  E(UB3LYP) =  -3531.43371332     A.U. after   12 cycles
 SCF Done:  E(UB3LYP) =  -3531.43371351     A.U. after   12 cycles
 SCF Done:  E(UB3LYP) =  -3531.43371361     A.U. after   10 cycles
 SCF Done:  E(UB3LYP) =  -3531.43371379     A.U. after   11 cycles
 SCF Done:  E(UB3LYP) =  -3531.43371394     A.U. after   10 cycles
 Optimization completed.
    -- Stationary point found.
 Normal termination of Gaussian 16 at Sun Jun 20 01:16:13 2021.

 ----------------------------------------------------------------------
 #P Geom=AllCheck Guess=TCheck SCRF=Check GenChk UB3LYP/Jul-CC-pVDZ Fre
 q
 ----------------------------------------------------------------------

 Structure from the checkpoint file:  "checkpoint.chk"
 -----
 title
 -----
 Charge =  0 Multiplicity = 6

 SCF Done:  E(UB3LYP) =  -3531.43371394     A.U. after    2 cycles

  Exact polarizability: 281.499   7.645 287.719  22.689  -1.886 286.387
 Approx polarizability: 410.579   9.614 455.466  41.192  -9.601 453.389

                      1                      2                      3
                      A                      A                      A
 Frequencies --     14.3491                26.2241                30.3198
 Red. masses --      4.4339                 6.7957                 4.4280
 Frc consts  --      0.0005                 0.0028                 0.0024
 IR Inten    --      0.6924                 0.1065                 0.3955

                      4                      5                      6
                      A                      A                      A
 Frequencies --     35.5475                44.6906                64.5609
 Red. masses --      6.2819                 4.9785                 3.2296
 Frc consts  --      0.0047                 0.0059                 0.0079
 IR Inten    --      0.1583                 1.3357                 0.5666

                      7                      8                      9
                      A                      A                      A
 Frequencies --     68.9623                75.1867                78.9753
 Red. masses --      3.9488                11.2512                 6.5746
 Frc consts  --      0.0111                 0.0375                 0.0242
 IR Inten    --      0.1391                 0.4077                 0.6536

                     10                     11                     12
                      A                      A                      A
 Frequencies --     86.2162                98.9171               113.3160
 Red. masses --      9.9897                 5.7625                 9.7985
 Frc consts  --      0.0438                 0.0332                 0.0741
 IR Inten    --      1.1560                 0.5781                 4.0460

                     13                     14                     15
                      A                      A                      A
 Frequencies --    115.0404               121.0832               129.6464
 Red. masses --     15.8198                 8.0691                 3.3796
 Frc consts  --      0.1234                 0.0697                 0.0335
 IR Inten    --      1.5435                 0.3241                 2.3895

                     16                     17                     18
                      A                      A                      A
 Frequencies --    145.3432               167.2194               184.4180
 Red. masses --      3.9063                 2.4617                 7.0037
 Frc consts  --      0.0486                 0.0406                 0.1403
 IR Inten    --      3.4687                 0.6251                13.3143

                     19                     20                     21
                      A                      A                      A
 Frequencies --    191.5160               223.2974               228.2442
 Red. masses --      3.0354                 3.7559                 1.2387
 Frc consts  --      0.0656                 0.1103                 0.0380
 IR Inten    --      1.6573                 5.0585                 0.4606

                     22                     23                     24
                      A                      A                      A
 Frequencies --    240.5804               257.9904               258.3462
 Red. masses --      3.3878                 2.2430                 1.7096
 Frc consts  --      0.1155                 0.0880                 0.0672
 IR Inten    --      0.1880                 0.5301                 0.4270

                     25                     26                     27
                      A                      A                      A
 Frequencies --    269.2134               299.5637               312.1814
 Red. masses --      1.2061                 3.4345                 2.9255
 Frc consts  --      0.0515                 0.1816                 0.1680
 IR Inten    --      1.6378                 2.9668                 0.9014

                     28                     29                     30
                      A                      A                      A
 Frequencies --    337.2447               350.1112               365.9267
 Red. masses --      4.5229                25.3422                 2.8902
 Frc consts  --      0.3031                 1.8302                 0.2280
 IR Inten    --      8.6042                28.9467                 6.5584

                     31                     32                     33
                      A                      A                      A
 Frequencies --    376.9796               399.4619               401.5984
 Red. masses --      3.1563                 3.6354                24.5869
 Frc consts  --      0.2643                 0.3418                 2.3364
 IR Inten    --      5.9744                 8.4170                76.9521

                     34                     35                     36
                      A                      A                      A
 Frequencies --    409.5345               410.9508               442.9162
 Red. masses --     17.2601                 3.2816                 3.9739
 Frc consts  --      1.7056                 0.3265                 0.4593
 IR Inten    --     74.0295                 8.4265                12.8086

                     37                     38                     39
                      A                      A                      A
 Frequencies --    465.7989               512.7495               532.4941
 Red. masses --      3.9739                 3.4009                 2.6975
 Frc consts  --      0.5080                 0.5268                 0.4507
 IR Inten    --      6.4539                12.7568                 1.4142

                     40                     41                     42
                      A                      A                      A
 Frequencies --    549.9432               627.1938               637.1991
 Red. masses --      2.8403                 6.1929                 4.4767
 Frc consts  --      0.5061                 1.4353                 1.0709
 IR Inten    --      3.3660                 0.1391                 6.4987

                     43                     44                     45
                      A                      A                      A
 Frequencies --    659.8771               700.2979               706.1962
 Red. masses --      5.3994                 3.4033                 1.6479
 Frc consts  --      1.3852                 0.9834                 0.4842
 IR Inten    --     17.0910                 1.2123                43.6854

                     46                     47                     48
                      A                      A                      A
 Frequencies --    748.0731               759.4391               764.6688
 Red. masses --      5.3222                 2.6082                 4.6893
 Frc consts  --      1.7548                 0.8863                 1.6155
 IR Inten    --     22.3485                28.2363                49.3283

                     49                     50                     51
                      A                      A                      A
 Frequencies --    782.6853               805.9590               809.8805
 Red. masses --      3.3501                 1.2151                 3.2922
 Frc consts  --      1.2092                 0.4650                 1.2723
 IR Inten    --     28.0743                 5.2954                79.2194

                     52                     53                     54
                      A                      A                      A
 Frequencies --    839.5874               846.6430               869.3201
 Red. masses --      2.7423                 1.2895                 2.6809
 Frc consts  --      1.1389                 0.5446                 1.1937
 IR Inten    --     47.0348                 3.3632                 7.3960

                     55                     56                     57
                      A                      A                      A
 Frequencies --    884.8921               899.8236               929.0492
 Red. masses --      3.8311                 2.3933                 1.7091
 Frc consts  --      1.7675                 1.1417                 0.8692
 IR Inten    --     23.8943                59.4592                 4.1511

                     58                     59                     60
                      A                      A                      A
 Frequencies --    941.5258               943.2872               959.7561
 Red. masses --      1.8638                 1.7938                 2.4705
 Frc consts  --      0.9734                 0.9404                 1.3408
 IR Inten    --      8.2473                 1.3861                 1.9618

                     61                     62                     63
                      A                      A                      A
 Frequencies --    980.8580               982.9831              1002.6178
 Red. masses --      2.0548                 1.3648                 1.3347
 Frc consts  --      1.1648                 0.7770                 0.7905
 IR Inten    --      9.7055                 1.2724                 1.3664

                     64                     65                     66
                      A                      A                      A
 Frequencies --   1006.9175              1010.5595              1017.6861
 Red. masses --      5.0127                 1.5867                 2.1312
 Frc consts  --      2.9944                 0.9547                 1.3005
 IR Inten    --      1.8207                 2.9298                17.2545

                     67                     68                     69
                      A                      A                      A
 Frequencies --   1037.2808              1048.5290              1054.4554
 Red. masses --      2.6361                 2.6799                 1.9732
 Frc consts  --      1.6711                 1.7359                 1.2927
 IR Inten    --     29.0201                10.9897                 6.9782

                     70                     71                     72
                      A                      A                      A
 Frequencies --   1065.0690              1098.2390              1107.6074
 Red. masses --      2.1860                 1.7471                 2.1967
 Frc consts  --      1.4610                 1.2415                 1.5878
 IR Inten    --      5.5910                 1.3891                14.0597

                     73                     74                     75
                      A                      A                      A
 Frequencies --   1126.5891              1132.4552              1159.8552
 Red. masses --      1.5183                 2.1879                 1.5948
 Frc consts  --      1.1354                 1.6532                 1.2641
 IR Inten    --      5.0303                 9.8603                25.9941

                     76                     77                     78
                      A                      A                      A
 Frequencies --   1164.5017              1169.1819              1175.8226
 Red. masses --      2.0260                 1.5641                 1.0906
 Frc consts  --      1.6187                 1.2598                 0.8884
 IR Inten    --     22.1890                 0.9465                 0.0854

                     79                     80                     81
                      A                      A                      A
 Frequencies --   1198.7633              1208.1774              1216.1384
 Red. masses --      2.0167                 1.1671                 1.9314
 Frc consts  --      1.7075                 1.0038                 1.6830
 IR Inten    --    193.9432                 4.3632                47.4080

                     82                     83                     84
                      A                      A                      A
 Frequencies --   1245.3827              1273.8504              1280.9545
 Red. masses --      1.7112                 2.5827                 2.5924
 Frc consts  --      1.5637                 2.4692                 2.5062
 IR Inten    --     46.3545                47.1248                20.8007

                     85                     86                     87
                      A                      A                      A
 Frequencies --   1283.0586              1301.0683              1315.7678
 Red. masses --      1.1419                 1.5421                 1.3904
 Frc consts  --      1.1076                 1.5381                 1.4182
 IR Inten    --      1.1334                36.7087                 5.5814

                     88                     89                     90
                      A                      A                      A
 Frequencies --   1327.6135              1334.8116              1359.6711
 Red. masses --      1.6370                 1.8378                 2.0098
 Frc consts  --      1.7000                 1.9293                 2.1891
 IR Inten    --     23.0438                16.3912                 3.8921

                     91                     92                     93
                      A                      A                      A
 Frequencies --   1362.2552              1365.2846              1389.0764
 Red. masses --      1.5409                 1.6200                 1.5313
 Frc consts  --      1.6848                 1.7792                 1.7408
 IR Inten    --     29.8226                 7.0384                58.9606

                     94                     95                     96
                      A                      A                      A
 Frequencies --   1403.6390              1416.4359              1418.0329
 Red. masses --      1.3344                 1.4849                 1.2425
 Frc consts  --      1.5490                 1.7553                 1.4721
 IR Inten    --     20.3292                 8.0698                14.7356

                     97                     98                     99
                      A                      A                      A
 Frequencies --   1468.8489              1470.7808              1473.8682
 Red. masses --      2.2781                 1.0561                 1.0396
 Frc consts  --      2.8959                 1.3460                 1.3306
 IR Inten    --      8.4368                 1.1016                 4.1848

                    100                    101                    102
                      A                      A                      A
 Frequencies --   1481.7941              1486.8983              1488.3025
 Red. masses --      1.0606                 1.0519                 1.0688
 Frc consts  --      1.3720                 1.3702                 1.3948
 IR Inten    --      1.5044                 2.4301                 0.3387

                    103                    104                    105
                      A                      A                      A
 Frequencies --   1492.5690              1499.6882              1507.1872
 Red. masses --      1.0681                 1.0861                 1.0849
 Frc consts  --      1.4020                 1.4392                 1.4520
 IR Inten    --      6.6396                 8.9157                 5.8651

                    106                    107                    108
                      A                      A                      A
 Frequencies --   1513.2421              1524.6753              1624.9131
 Red. masses --      1.0649                 2.2623                 5.6403
 Frc consts  --      1.4368                 3.0985                 8.7743
 IR Inten    --      3.7489                 2.6760                 0.3465

                    109                    110                    111
                      A                      A                      A
 Frequencies --   1648.1783              1772.6104              3036.7653
 Red. masses --      5.7430                11.5090                 1.0369
 Frc consts  --      9.1917                21.3065                 5.6340
 IR Inten    --      0.1915               199.2388                 6.0274

                    112                    113                    114
                      A                      A                      A
 Frequencies --   3040.3096              3045.8233              3056.6426
 Red. masses --      1.0354                 1.0392                 1.0602
 Frc consts  --      5.6387                 5.6803                 5.8362
 IR Inten    --     17.6942                 9.6522                 9.2221

                    115                    116                    117
                      A                      A                      A
 Frequencies --   3058.1845              3066.4251              3088.2738
 Red. masses --      1.0583                 1.0615                 1.0892
 Frc consts  --      5.8314                 5.8810                 6.1204
 IR Inten    --     16.7588                42.1886                 7.8917

                    118                    119                    120
                      A                      A                      A
 Frequencies --   3099.3283              3101.5191              3114.7512
 Red. masses --      1.1011                 1.1073                 1.1009
 Frc consts  --      6.2315                 6.2755                 6.2931
 IR Inten    --      4.1936                 5.4686                 6.8555

                    121                    122                    123
                      A                      A                      A
 Frequencies --   3115.5743              3116.3586              3124.0259
 Red. masses --      1.1020                 1.1017                 1.0983
 Frc consts  --      6.3024                 6.3041                 6.3153
 IR Inten    --     15.1070                23.4222                13.3344

                    124                    125                    126
                      A                      A                      A
 Frequencies --   3131.5885              3135.2259              3142.5642
 Red. masses --      1.1048                 1.1033                 1.0897
 Frc consts  --      6.3835                 6.3898                 6.3406
 IR Inten    --     27.2724                 4.3650                15.3498

                    127                    128                    129
                      A                      A                      A
 Frequencies --   3149.2838              3170.7702              3180.5646
 Red. masses --      1.1020                 1.0850                 1.0886
 Frc consts  --      6.4395                 6.4271                 6.4885
 IR Inten    --      6.8663                 0.0161                 6.7961

                    130                    131                    132
                      A                      A                      A
 Frequencies --   3189.2250              3197.0146              3202.4376
 Red. masses --      1.0925                 1.0955                 1.0961
 Frc consts  --      6.5467                 6.5974                 6.6229
 IR Inten    --      7.2397                11.7658                 9.2860

 - Thermochemistry -
 -------------------
 Temperature   298.150 Kelvin.  Pressure   1.00000 Atm.
 Atom     1 has atomic number  6 and mass  12.00000

 Molecular mass:   434.99839 amu.
 Principal axes and moments of inertia in atomic units:
                           1         2         3
     Eigenvalues --  8926.22720********************
           X            0.99526   0.09540   0.01886
           Y           -0.09600   0.99480   0.03389
           Z           -0.01553  -0.03554   0.99925
 This molecule is an asymmetric top.
 Rotational symmetry number  1.
 Warning -- assumption of classical behavior for rotation
           may cause significant error
 Rotational temperatures (Kelvin)      0.00970     0.00740     0.00689
 Rotational constants (GHZ):           0.20218     0.15424     0.14350
 Zero-point vibrational energy     948695.0 (Joules/Mol)
                                  226.74354 (Kcal/Mol)
 Warning -- explicit consideration of  40 degrees of freedom as
           vibrations may cause significant error
 Vibrational temperatures:     20.65    37.73    43.62    51.14    64.30
          (Kelvin)             92.89    99.22   108.18   113.63   124.05
                              142.32   163.04   165.52   174.21   186.53
                              209.12   240.59   265.34   275.55   321.28
                              328.39   346.14   371.19   371.70   387.34
                              431.01   449.16   485.22   503.73   526.49
                              542.39   574.74   577.81   589.23   591.27
                              637.26   670.18   737.73   766.14   791.25
                              902.39   916.79   949.42  1007.57  1016.06
                             1076.31  1092.66  1100.19  1126.11  1159.60
                             1165.24  1207.98  1218.13  1250.76  1273.16
                             1294.65  1336.69  1354.65  1357.18  1380.87
                             1411.24  1414.29  1442.54  1448.73  1453.97
                             1464.22  1492.42  1508.60  1517.13  1532.40
                             1580.12  1593.60  1620.91  1629.35  1668.77
                             1675.46  1682.19  1691.75  1724.75  1738.30
                             1749.75  1791.83  1832.79  1843.01  1846.04
                             1871.95  1893.10  1910.14  1920.50  1956.26
                             1959.98  1964.34  1998.57  2019.52  2037.94
                             2040.23  2113.35  2116.13  2120.57  2131.97
                             2139.31  2141.34  2147.47  2157.72  2168.51
                             2177.22  2193.67  2337.89  2371.36  2550.39
                             4369.23  4374.33  4382.26  4397.83  4400.05
                             4411.90  4443.34  4459.24  4462.39  4481.43
                             4482.62  4483.75  4494.78  4505.66  4510.89
                             4521.45  4531.12  4562.03  4576.12  4588.58
                             4599.79  4607.59

 Zero-point correction=                           0.361339 (Hartree/Particle)
 Thermal correction to Energy=                    0.388374
 Thermal correction to Enthalpy=                  0.389319
 Thermal correction to Gibbs Free Energy=         0.299062
 Sum of electronic and zero-point Energies=          -3531.072375
 Sum of electronic and thermal Energies=             -3531.045340
 Sum of electronic and thermal Enthalpies=           -3531.044395
 Sum of electronic and thermal Free Energies=        -3531.134652

                     E (Thermal)             CV                S
                      KCal/Mol        Cal/Mol-Kelvin    Cal/Mol-Kelvin
 Total                  243.709             97.341            189.961
 Electronic               0.000              0.000              3.561
 Translational            0.889              2.981             44.100
 Rotational               0.889              2.981             35.528
 Vibrational            241.931             91.379            106.772
 Vibration     1          0.593              1.986              7.294
 Vibration     2          0.593              1.985              6.096
 Vibration     3          0.594              1.984              5.808
 Vibration     4          0.594              1.982              5.493
 Vibration     5          0.595              1.980              5.040
 Vibration     6          0.597              1.971              4.313
 Vibration     7          0.598              1.969              4.183
 Vibration     8          0.599              1.966              4.013
 Vibration     9          0.600              1.963              3.916
 Vibration    10          0.601              1.959              3.744
 Vibration    11          0.604              1.950              3.476
 Vibration    12          0.607              1.938              3.211
 Vibration    13          0.608              1.937              3.182
 Vibration    14          0.609              1.932              3.083
 Vibration    15          0.612              1.924              2.951
 Vibration    16          0.617              1.908              2.732
 Vibration    17          0.624              1.883              2.467
 Vibration    18          0.631              1.861              2.283
 Vibration    19          0.634              1.852              2.213
 Vibration    20          0.649              1.806              1.932
 Vibration    21          0.651              1.798              1.893
 Vibration    22          0.658              1.778              1.799
 Vibration    23          0.667              1.749              1.675
 Vibration    24          0.667              1.749              1.673
 Vibration    25          0.674              1.730              1.601
 Vibration    26          0.692              1.675              1.419
 Vibration    27          0.701              1.650              1.351
 Vibration    28          0.718              1.601              1.225
 Vibration    29          0.727              1.575              1.166
 Vibration    30          0.739              1.542              1.097
 Vibration    31          0.748              1.519              1.051
 Vibration    32          0.766              1.471              0.965
 Vibration    33          0.767              1.467              0.957
 Vibration    34          0.774              1.450              0.928
 Vibration    35          0.775              1.446              0.923
 Vibration    36          0.803              1.377              0.817
 Vibration    37          0.823              1.326              0.749
 Vibration    38          0.868              1.222              0.627
 Vibration    39          0.887              1.178              0.582
 Vibration    40          0.905              1.140              0.544

                           ! Non-Optimized Parameters !
 Normal termination of Gaussian 16 at Sun Jun 20 05:11:53 2021.

 ----------------------------------------------------------------------
 #p ub3lyp jul-cc-pvdz pop=cm5 scrf=(pcm,solvent=dichloroethane) guess=
 read geom=allcheck
 ----------------------------------------------------------------------

 Structure from the checkpoint file:  "checkpoint.chk"
 -----
 title
 -----
 Charge =  0 Multiplicity = 6

 SCF Done:  E(UB3LYP) =  -3531.45069314     A.U. after   17 cycles
 Normal termination of Gaussian 16 at Sun Jun 20 05:33:30 2021.
 Gaussian 16:  ES64L-G16RevA.03 25-Dec-2016

 ----------------------------------------------------------------------
 #p ub3lyp jul-cc-pvdz pop=cm5 scrf=(pcm,solvent=water) guess=read geom
 =allcheck
 ----------------------------------------------------------------------

 Structure from the checkpoint file:  "checkpoint.chk"
 -----
 title
 -----
 Charge =  0 Multiplicity = 6

                         Standard orientation:
 ---------------------------------------------------------------------
 Center     Atomic      Atomic             Coordinates (Angstroms)
 Number     Number       Type             X           Y           Z
 ---------------------------------------------------------------------
      1          6           0        1.395992   -2.398377    1.603733
      2          6           0        1.041798   -1.186218    0.995798
      3          6           0        1.224108    0.006345    1.715540
      4          6           0        1.722599   -0.018435    3.017830
      5          6           0        2.070195   -1.233019    3.616685
      6          6           0        1.912002   -2.422381    2.902801
      7          6           0        0.528666   -1.146592   -0.416771
      8          6           0        1.467273   -0.584094   -1.525198
      9          6           0        1.933065   -1.837289   -2.300813
     10          6           0        0.699244   -2.751472   -2.427989
     11          6           0       -0.094035   -2.557460   -1.132096
     12          6           0       -1.463558   -1.827646   -1.115224
     13          6           0       -2.109756   -1.534351   -2.458743
     14          8           0       -0.872410   -0.578732   -0.531477
     15         26           0       -1.905598    1.005960    0.294773
     16         17           0       -3.783263    1.172551   -0.841005
     17          6           0       -2.445181   -2.441337   -0.127262
     18         17           0       -0.655081    2.789601    0.016705
     19         17           0       -2.311645    0.514496    2.392809
     20          1           0        0.972974    0.965310    1.263335
     21          1           0        1.839235    0.917078    3.566088
     22          1           0        2.464209   -1.251035    4.633815
     23          1           0        2.187450   -3.375856    3.355458
     24          1           0        1.288066   -3.337769    1.063885
     25          1           0        0.858291    0.063323   -2.167515
     26          6           0        2.670378    0.219104   -1.042106
     27          1           0        2.369086   -1.568172   -3.272278
     28          1           0        2.722317   -2.328210   -1.715368
     29          1           0        0.107555   -2.475857   -3.309517
     30          1           0        0.994081   -3.800464   -2.561998
     31          1           0       -0.083404   -3.428341   -0.473407
     32          1           0       -2.776209   -3.414402   -0.518621
     33          1           0       -1.977933   -2.599326    0.852271
     34          1           0       -3.330852   -1.806770    0.002423
     35          1           0       -2.362864   -2.485773   -2.948401
     36          1           0       -3.032241   -0.958911   -2.327672
     37          1           0       -1.444773   -0.969673   -3.122387
     38          8           0        2.475924    1.539344   -1.199745
     39          8           0        3.688688   -0.272282   -0.603345
     40          6           0        3.564057    2.406824   -0.773799
     41          6           0        3.170986    3.832402   -1.103502
     42          1           0        3.719320    2.254667    0.303019
     43          1           0        4.478586    2.092025   -1.294199
     44          1           0        3.972411    4.513160   -0.781947
     45          1           0        3.021808    3.959889   -2.184661
     46          1           0        2.243635    4.114457   -0.587815
 ---------------------------------------------------------------------

 SCF Done:  E(UB3LYP) =  -3531.45392656     A.U. after   14 cycles

 The electronic state is 6-A.
 Alpha  occ. eigenvalues -- -256.22031-101.53361-101.53350-101.53182 -30.21358
 Alpha  occ. eigenvalues --  -26.06805 -26.06537 -26.06459 -19.21838 -19.20359
 Alpha  occ. eigenvalues --  -19.15210 -10.32884 -10.29298 -10.27780 -10.24777
 Alpha  occ. eigenvalues --  -10.22165 -10.21912 -10.21730 -10.20645 -10.20472
 Alpha  occ. eigenvalues --  -10.20418 -10.20351 -10.20323 -10.19899 -10.19583
 Alpha  occ. eigenvalues --  -10.19163 -10.18944 -10.18643  -9.45081  -9.45068
 Alpha  occ. eigenvalues --   -9.44909  -7.20949  -7.20935  -7.20779  -7.20657
 Alpha  occ. eigenvalues --   -7.20640  -7.20603  -7.20603  -7.20470  -7.20448
 Alpha  occ. eigenvalues --   -3.68973  -2.46664  -2.46237  -2.46050  -1.12101
 Alpha  occ. eigenvalues --   -1.08613  -1.03622  -0.87927  -0.85265  -0.82113
 Alpha  occ. eigenvalues --   -0.81423  -0.80636  -0.80538  -0.78612  -0.77840
 Alpha  occ. eigenvalues --   -0.76253  -0.74349  -0.71644  -0.70878  -0.66492
 Alpha  occ. eigenvalues --   -0.64270  -0.62321  -0.61118  -0.59624  -0.57123
 Alpha  occ. eigenvalues --   -0.56121  -0.54599  -0.52945  -0.51472  -0.50629
 Alpha  occ. eigenvalues --   -0.50110  -0.49430  -0.49219  -0.49066  -0.48918
 Alpha  occ. eigenvalues --   -0.48419  -0.47965  -0.47147  -0.46421  -0.46177
 Alpha  occ. eigenvalues --   -0.44980  -0.44790  -0.44011  -0.43331  -0.42920
 Alpha  occ. eigenvalues --   -0.41771  -0.40776  -0.40332  -0.40006  -0.39890
 Alpha  occ. eigenvalues --   -0.39332  -0.38117  -0.38022  -0.37260  -0.36952
 Alpha  occ. eigenvalues --   -0.36794  -0.36613  -0.36151  -0.35651  -0.35273
 Alpha  occ. eigenvalues --   -0.35197  -0.34607  -0.34043  -0.32475  -0.32191
 Alpha  occ. eigenvalues --   -0.31799  -0.31722  -0.31578  -0.31514  -0.31230
 Alpha  occ. eigenvalues --   -0.30572  -0.30503  -0.29263  -0.26974  -0.26766
 Alpha virt. eigenvalues --   -0.04125  -0.03164  -0.01520  -0.01402  -0.00210
 Alpha virt. eigenvalues --   -0.00048   0.00080   0.00983   0.01557   0.01699
 Alpha virt. eigenvalues --    0.01791   0.01988   0.02298   0.03199   0.03720

  Beta  occ. eigenvalues -- -256.21845-101.53155-101.53143-101.52977 -30.12471
  Beta  occ. eigenvalues --  -25.99271 -25.99183 -25.99122 -19.21523 -19.20358
  Beta  occ. eigenvalues --  -19.15208 -10.32884 -10.29278 -10.27769 -10.24777
  Beta  occ. eigenvalues --  -10.22162 -10.21899 -10.21728 -10.20644 -10.20471
  Beta  occ. eigenvalues --  -10.20418 -10.20350 -10.20322 -10.19897 -10.19582
  Beta  occ. eigenvalues --  -10.19160 -10.18941 -10.18642  -9.44878  -9.44866
  Beta  occ. eigenvalues --   -9.44708  -7.20621  -7.20612  -7.20455  -7.20355
  Beta  occ. eigenvalues --   -7.20340  -7.20334  -7.20330  -7.20180  -7.20169
  Beta  occ. eigenvalues --   -3.48228  -2.24499  -2.24491  -2.24364  -1.12099
  Beta  occ. eigenvalues --   -1.08075  -1.03619  -0.87902  -0.85201  -0.82023
  Beta  occ. eigenvalues --   -0.80099  -0.79222  -0.79115  -0.78598  -0.77804
  Beta  occ. eigenvalues --   -0.76246  -0.74332  -0.71547  -0.70809  -0.66472
  Beta  occ. eigenvalues --   -0.64192  -0.62308  -0.61029  -0.59532  -0.57079
  Beta  occ. eigenvalues --   -0.55456  -0.54502  -0.52533  -0.51319  -0.50198
  Beta  occ. eigenvalues --   -0.49636  -0.49125  -0.47539  -0.46590  -0.46454
  Beta  occ. eigenvalues --   -0.45097  -0.44809  -0.44028  -0.43371  -0.42916
  Beta  occ. eigenvalues --   -0.41757  -0.40741  -0.40279  -0.39954  -0.39873
  Beta  occ. eigenvalues --   -0.39125  -0.38155  -0.37995  -0.37350  -0.36998
  Beta  occ. eigenvalues --   -0.36939  -0.36919  -0.36814  -0.36596  -0.36047
  Beta  occ. eigenvalues --   -0.35601  -0.34802  -0.34206  -0.34021  -0.33937
  Beta  occ. eigenvalues --   -0.33272  -0.32866  -0.32065  -0.31684  -0.31474
  Beta  occ. eigenvalues --   -0.30805  -0.30399  -0.29229  -0.26960  -0.26746
  Beta virt. eigenvalues --   -0.16108  -0.15659  -0.14546  -0.14395  -0.14231
  Beta virt. eigenvalues --   -0.04028  -0.03123  -0.01381  -0.01358  -0.00121
  Beta virt. eigenvalues --   -0.00025   0.00106   0.01218   0.01572   0.01724

 Mulliken charges and spin densities:
               1          2
     1  C   -0.187497   0.005482
     2  C    2.918814  -0.004893
     3  C   -0.414997  -0.022098
     4  C    0.023802   0.003807
     5  C    0.275991   0.001932
     6  C   -0.161234   0.001422
     7  C   -1.816273   0.026304
     8  C    0.146231  -0.000177
     9  C    0.468307   0.001252
    10  C    0.562374   0.001011
    11  C    0.666023   0.001474
    12  C   -0.691328   0.007861
    13  C    0.382194  -0.000901
    14  O   -0.264206   0.075559
    15  Fe   0.542552   4.055784
    16  Cl  -0.444928   0.285181
    17  C    0.483851   0.003512
    18  Cl  -0.433474   0.282051
    19  Cl  -0.424220   0.275873
    20  H   -0.306228   0.000181
    21  H   -0.163634   0.000028
    22  H   -0.162465   0.000009
    23  H   -0.159836   0.000008
    24  H   -0.191759  -0.000026
    25  H   -0.220375  -0.000350
    26  C    1.053720  -0.000963
    27  H   -0.138096   0.000211
    28  H   -0.055260  -0.000023
    29  H   -0.093413   0.000012
    30  H   -0.126533   0.000370
    31  H   -0.236061   0.001216
    32  H   -0.001322  -0.000195
    33  H    0.035682  -0.000869
    34  H    0.025863   0.000442
    35  H    0.017612   0.000941
    36  H    0.006740  -0.000270
    37  H    0.031885  -0.000452
    38  O   -0.695221  -0.001422
    39  O   -0.672030   0.000483
    40  C    0.404682  -0.000058
    41  C    0.062433   0.000728
    42  H   -0.041019   0.000026
    43  H   -0.049202   0.000011
    44  H   -0.003394   0.000054
    45  H    0.021047   0.000023
    46  H    0.024199  -0.000549
 Sum of Mulliken charges =  -0.00000   5.00000

 Dipole moment (field-independent basis, Debye):
    X=              3.8626    Y=             -6.8144    Z=             -4.0091  Tot=              8.7993
 Quadrupole moment (field-independent basis, Debye-Ang):
   XX=           -196.0475   YY=           -160.4081   ZZ=           -166.5082
   XY=             19.5399   XZ=              7.0508   YZ=              4.5390

 Normal termination of Gaussian 16 at Sun Jun 20 05:51:20 2021.
