 Gaussian 16, Revision A.03,

 -----------------------------------------------------------
 #p opt=modredundant freq=noraman ub3lyp jul-cc-pvdz pop=cm5
 -----------------------------------------------------------

 -----
 title
 -----
 Symbolic Z-matrix:
 Charge =  0 Multiplicity = 6

 SCF Done:  E(UB3LYP) =  -3531.44819657     A.U. after   24 cycles
 SCF Done:  E(UB3LYP) =  -3531.44831981     A.U. after   18 cycles
 SCF Done:  E(UB3LYP) =  -3531.44665530     A.U. after   22 cycles
 SCF Done:  E(UB3LYP) =  -3531.44740634     A.U. after   18 cycles
 SCF Done:  E(UB3LYP) =  -3531.44852399     A.U. after   12 cycles
 SCF Done:  E(UB3LYP) =  -3531.44860342     A.U. after   15 cycles
 SCF Done:  E(UB3LYP) =  -3531.44884069     A.U. after   14 cycles
 SCF Done:  E(UB3LYP) =  -3531.44883620     A.U. after   13 cycles
 SCF Done:  E(UB3LYP) =  -3531.44884604     A.U. after   14 cycles
 SCF Done:  E(UB3LYP) =  -3531.44885817     A.U. after   12 cycles
 SCF Done:  E(UB3LYP) =  -3531.44886003     A.U. after   11 cycles
 SCF Done:  E(UB3LYP) =  -3531.44885992     A.U. after   10 cycles
 SCF Done:  E(UB3LYP) =  -3531.44885965     A.U. after   10 cycles
 SCF Done:  E(UB3LYP) =  -3531.44885938     A.U. after   10 cycles
 SCF Done:  E(UB3LYP) =  -3531.44885924     A.U. after   10 cycles
 SCF Done:  E(UB3LYP) =  -3531.44886000     A.U. after   11 cycles
 SCF Done:  E(UB3LYP) =  -3531.44885915     A.U. after   12 cycles
 Optimization completed.
    -- Stationary point found.
 Normal termination of Gaussian 16 at Sun Jun 20 17:21:05 2021.

 ----------------------------------------------------------------------
 #P Geom=AllCheck Guess=TCheck SCRF=Check GenChk UB3LYP/Jul-CC-pVDZ Fre
 q
 ----------------------------------------------------------------------

 Structure from the checkpoint file:  "checkpoint.chk"
 -----
 title
 -----
 Charge =  0 Multiplicity = 6

 SCF Done:  E(UB3LYP) =  -3531.44885915     A.U. after    2 cycles

  Exact polarizability: 311.916  10.773 296.172  26.638  -9.436 303.023
 Approx polarizability: 494.871  42.094 441.939  52.432 -27.857 484.533

 ******    1 imaginary frequencies (negative Signs) ******

                      1                      2                      3
                      A                      A                      A
 Frequencies --    -11.8276                20.4333                22.2637
 Red. masses --      4.9726                 8.2778                 5.3306
 Frc consts  --      0.0004                 0.0020                 0.0016
 IR Inten    --      0.1284                 0.9459                 1.3612

                      4                      5                      6
                      A                      A                      A
 Frequencies --     29.0616                44.0034                51.6606
 Red. masses --      8.6617                 6.5290                 4.7897
 Frc consts  --      0.0043                 0.0074                 0.0075
 IR Inten    --      0.8286                 1.5434                 0.4335

                      7                      8                      9
                      A                      A                      A
 Frequencies --     63.6285                65.9944                77.0987
 Red. masses --      3.4205                 3.8523                 5.0330
 Frc consts  --      0.0082                 0.0099                 0.0176
 IR Inten    --      0.1711                 0.7871                 0.6138

                     10                     11                     12
                      A                      A                      A
 Frequencies --     80.7200                88.8909                94.5835
 Red. masses --      9.5764                 6.8917                 3.3158
 Frc consts  --      0.0368                 0.0321                 0.0175
 IR Inten    --      0.1577                 2.1274                 0.3136

                     13                     14                     15
                      A                      A                      A
 Frequencies --    101.3625               108.4304               115.4669
 Red. masses --      3.8015                 2.5252                 6.6148
 Frc consts  --      0.0230                 0.0175                 0.0520
 IR Inten    --      1.4390                 0.2143                 0.5056

                     16                     17                     18
                      A                      A                      A
 Frequencies --    116.7591               121.7667               145.4070
 Red. masses --     10.0145                 9.1098                 2.6049
 Frc consts  --      0.0804                 0.0796                 0.0325
 IR Inten    --      1.0879                 1.5493                 6.2240

                     19                     20                     21
                      A                      A                      A
 Frequencies --    150.4557               157.5226               178.2760
 Red. masses --      4.7261                 1.8590                 4.1900
 Frc consts  --      0.0630                 0.0272                 0.0785
 IR Inten    --      5.5111                 0.6366                11.1239

                     22                     23                     24
                      A                      A                      A
 Frequencies --    205.5920               206.5277               216.0558
 Red. masses --      2.6056                 1.2721                 3.2904
 Frc consts  --      0.0649                 0.0320                 0.0905
 IR Inten    --      1.3046                 4.3271                 1.8348

                     25                     26                     27
                      A                      A                      A
 Frequencies --    258.4137               262.2552               278.6931
 Red. masses --      1.4472                 3.2188                 4.2876
 Frc consts  --      0.0569                 0.1304                 0.1962
 IR Inten    --      1.8597                14.0383                 2.1433

                     28                     29                     30
                      A                      A                      A
 Frequencies --    312.9934               319.1406               343.8502
 Red. masses --      7.1153                 2.5862                27.0419
 Frc consts  --      0.4107                 0.1552                 1.8838
 IR Inten    --     14.9075                 1.7001                35.8918

                     31                     32                     33
                      A                      A                      A
 Frequencies --    358.2265               382.6813               390.2665
 Red. masses --      4.6457                 3.4840                 3.2108
 Frc consts  --      0.3512                 0.3006                 0.2881
 IR Inten    --     23.8211                 2.5876                 5.6688

                     34                     35                     36
                      A                      A                      A
 Frequencies --    400.6694               407.7680               412.4213
 Red. masses --     24.2099                16.8365                 3.3122
 Frc consts  --      2.2899                 1.6494                 0.3319
 IR Inten    --     74.8836                71.7105                10.6453

                     37                     38                     39
                      A                      A                      A
 Frequencies --    424.0328               442.0515               469.7816
 Red. masses --      3.6092                 2.8327                 3.4252
 Frc consts  --      0.3824                 0.3261                 0.4454
 IR Inten    --     19.5526                 6.9242                 0.7707

                     40                     41                     42
                      A                      A                      A
 Frequencies --    495.8333               513.4017               549.8420
 Red. masses --      2.4531                 2.7910                 3.9891
 Frc consts  --      0.3553                 0.4334                 0.7106
 IR Inten    --      7.5694                 0.6622                16.9026

                     43                     44                     45
                      A                      A                      A
 Frequencies --    567.0313               623.1333               665.2747
 Red. masses --      4.7094                 6.4093                 4.7959
 Frc consts  --      0.8921                 1.4663                 1.2506
 IR Inten    --     46.2679                 1.5673                29.7413

                     46                     47                     48
                      A                      A                      A
 Frequencies --    693.0891               697.2252               750.1818
 Red. masses --      5.1823                 1.6249                 4.2800
 Frc consts  --      1.4667                 0.4654                 1.4191
 IR Inten    --      3.0092                63.0601                 6.0957

                     49                     50                     51
                      A                      A                      A
 Frequencies --    775.3546               780.2854               805.9812
 Red. masses --      2.4566                 2.1499                 1.1296
 Frc consts  --      0.8701                 0.7712                 0.4324
 IR Inten    --     26.7286                 1.0666                 1.4439

                     52                     53                     54
                      A                      A                      A
 Frequencies --    835.2656               839.2643               854.2213
 Red. masses --      3.1051                 1.7757                 1.2566
 Frc consts  --      1.2764                 0.7369                 0.5402
 IR Inten    --      9.6787                17.0767                 1.4952

                     55                     56                     57
                      A                      A                      A
 Frequencies --    863.6422               895.7705               903.7110
 Red. masses --      2.7925                 2.2515                 2.1826
 Frc consts  --      1.2272                 1.0644                 1.0502
 IR Inten    --     19.5891                 3.8918                16.0430

                     58                     59                     60
                      A                      A                      A
 Frequencies --    960.2346               964.6021               978.4340
 Red. masses --      1.4101                 1.5887                 2.8619
 Frc consts  --      0.7660                 0.8709                 1.6143
 IR Inten    --      1.1207                 4.6238                16.8791

                     61                     62                     63
                      A                      A                      A
 Frequencies --    991.7884               996.3131              1000.5623
 Red. masses --      2.6165                 1.3087                 2.2619
 Frc consts  --      1.5164                 0.7654                 1.3342
 IR Inten    --     30.8973                 4.0989                 3.8764

                     64                     65                     66
                      A                      A                      A
 Frequencies --   1003.1295              1015.6716              1017.2910
 Red. masses --      1.9745                 1.4173                 1.9308
 Frc consts  --      1.1706                 0.8614                 1.1773
 IR Inten    --      0.0505                 0.7670                 0.0607

                     67                     68                     69
                      A                      A                      A
 Frequencies --   1035.8396              1046.5416              1078.1248
 Red. masses --      2.6106                 2.4427                 2.1160
 Frc consts  --      1.6503                 1.5763                 1.4492
 IR Inten    --     42.0081                 2.7502                 1.0608

                     70                     71                     72
                      A                      A                      A
 Frequencies --   1094.2483              1096.1838              1117.6122
 Red. masses --      2.5173                 1.7211                 1.5793
 Frc consts  --      1.7759                 1.2185                 1.1623
 IR Inten    --     15.9556                 3.3841                 5.8894

                     73                     74                     75
                      A                      A                      A
 Frequencies --   1133.2953              1135.1241              1164.5363
 Red. masses --      2.1673                 2.0836                 1.6690
 Frc consts  --      1.6400                 1.5818                 1.3336
 IR Inten    --     16.2389                10.8006                92.1502

                     76                     77                     78
                      A                      A                      A
 Frequencies --   1169.4796              1179.8517              1207.8184
 Red. masses --      1.5674                 1.0853                 1.5499
 Frc consts  --      1.2630                 0.8902                 1.3322
 IR Inten    --      9.5632                 1.3553                68.6185

                     79                     80                     81
                      A                      A                      A
 Frequencies --   1209.5587              1226.8219              1254.2959
 Red. masses --      1.3262                 1.9040                 1.9441
 Frc consts  --      1.1431                 1.6884                 1.8020
 IR Inten    --     77.8685               136.0030                39.2156

                     82                     83                     84
                      A                      A                      A
 Frequencies --   1280.0301              1284.7879              1319.7167
 Red. masses --      1.6583                 1.2683                 1.3757
 Frc consts  --      1.6008                 1.2335                 1.4116
 IR Inten    --    131.8750                38.2139                 9.6745

                     85                     86                     87
                      A                      A                      A
 Frequencies --   1329.0535              1339.2404              1344.3692
 Red. masses --      1.8226                 1.5084                 1.6452
 Frc consts  --      1.8968                 1.5940                 1.7519
 IR Inten    --    113.7622                18.2697                31.0260

                     88                     89                     90
                      A                      A                      A
 Frequencies --   1366.9994              1372.0710              1377.1532
 Red. masses --      1.4895                 2.8462                 1.3508
 Frc consts  --      1.6400                 3.1570                 1.5094
 IR Inten    --      7.1899                 9.9192                 1.4606

                     91                     92                     93
                      A                      A                      A
 Frequencies --   1380.3112              1406.2615              1411.7866
 Red. masses --      1.3615                 1.4176                 1.2855
 Frc consts  --      1.5283                 1.6517                 1.5095
 IR Inten    --     19.4409                 7.0081                13.0569

                     94                     95                     96
                      A                      A                      A
 Frequencies --   1415.8598              1462.9819              1467.0049
 Red. masses --      1.3964                 1.0775                 1.9501
 Frc consts  --      1.6494                 1.3588                 2.4727
 IR Inten    --     12.1342                 6.0100                23.0547

                     97                     98                     99
                      A                      A                      A
 Frequencies --   1468.6254              1474.5753              1481.3085
 Red. masses --      1.1512                 1.0385                 1.0868
 Frc consts  --      1.4629                 1.3304                 1.4051
 IR Inten    --      7.3380                 5.1550                 1.9435

                    100                    101                    102
                      A                      A                      A
 Frequencies --   1482.8087              1486.8089              1488.2123
 Red. masses --      1.0455                 1.0552                 1.0883
 Frc consts  --      1.3544                 1.3743                 1.4202
 IR Inten    --     14.8284                 2.8086                 6.3930

                    103                    104                    105
                      A                      A                      A
 Frequencies --   1492.3465              1505.1436              1518.6372
 Red. masses --      1.0849                 1.0829                 2.1610
 Frc consts  --      1.4236                 1.4454                 2.9363
 IR Inten    --     10.7488                 6.3556                 7.8087

                    106                    107                    108
                      A                      A                      A
 Frequencies --   1566.2854              1619.9648              1642.4793
 Red. masses --      7.0889                 5.4851                 5.7198
 Frc consts  --     10.2463                 8.4810                 9.0914
 IR Inten    --    644.3606                56.3709                42.4715

                    109                    110                    111
                      A                      A                      A
 Frequencies --   1716.6241              1769.8779              3015.4366
 Red. masses --      6.4571                11.5481                 1.0387
 Frc consts  --     11.2108                21.3132                 5.5644
 IR Inten    --     39.3892               213.5675                15.3702

                    112                    113                    114
                      A                      A                      A
 Frequencies --   3025.8511              3030.3812              3042.2405
 Red. masses --      1.0450                 1.0639                 1.0355
 Frc consts  --      5.6374                 5.7562                 5.6468
 IR Inten    --     18.4568                34.5247                14.8477

                    115                    116                    117
                      A                      A                      A
 Frequencies --   3061.8276              3065.3925              3073.6224
 Red. masses --      1.0582                 1.0624                 1.0965
 Frc consts  --      5.8448                 5.8820                 6.1032
 IR Inten    --     13.6608                20.5779                 9.0279

                    118                    119                    120
                      A                      A                      A
 Frequencies --   3080.0146              3083.2455              3087.0032
 Red. masses --      1.0973                 1.0846                 1.0922
 Frc consts  --      6.1333                 6.0748                 6.1321
 IR Inten    --     11.7865                 0.5885                13.4373

                    121                    122                    123
                      A                      A                      A
 Frequencies --   3108.4875              3113.0864              3115.8124
 Red. masses --      1.1074                 1.1001                 1.0998
 Frc consts  --      6.3044                 6.2817                 6.2909
 IR Inten    --      7.0319                 6.2062                 2.2666

                    124                    125                    126
                      A                      A                      A
 Frequencies --   3119.0348              3121.7885              3136.2259
 Red. masses --      1.1019                 1.0911                 1.0985
 Frc consts  --      6.3156                 6.2648                 6.3659
 IR Inten    --     16.3826                38.9098                22.0012

                    127                    128                    129
                      A                      A                      A
 Frequencies --   3137.4008              3176.1764              3190.3391
 Red. masses --      1.1052                 1.0865                 1.0910
 Frc consts  --      6.4099                 6.4576                 6.5426
 IR Inten    --     18.4371                 1.2501                 7.0164

                    130                    131                    132
                      A                      A                      A
 Frequencies --   3198.2376              3216.5593              3221.7855
 Red. masses --      1.0959                 1.0942                 1.0939
 Frc consts  --      6.6044                 6.6701                 6.6899
 IR Inten    --      6.7489                 5.0496                 8.2611

 - Thermochemistry -
 -------------------
 Temperature   298.150 Kelvin.  Pressure   1.00000 Atm.
 Atom     1 has atomic number  6 and mass  12.00000

 Molecular mass:   434.99839 amu.
 Principal axes and moments of inertia in atomic units:
                           1         2         3
     Eigenvalues --  ******************************
           X            0.99920  -0.03795   0.01257
           Y            0.03755   0.99882   0.03096
           Z           -0.01373  -0.03046   0.99944
 This molecule is an asymmetric top.
 Rotational symmetry number  1.
 Warning -- assumption of classical behavior for rotation
           may cause significant error
 Rotational temperatures (Kelvin)      0.00859     0.00766     0.00670
 Rotational constants (GHZ):           0.17899     0.15956     0.13955
    1 imaginary frequencies ignored.
 Zero-point vibrational energy     943867.6 (Joules/Mol)
                                  225.58978 (Kcal/Mol)
 Warning -- explicit consideration of  42 degrees of freedom as
           vibrations may cause significant error
 Vibrational temperatures:     29.40    32.03    41.81    63.31    74.33
          (Kelvin)             91.55    94.95   110.93   116.14   127.89
                              136.08   145.84   156.01   166.13   167.99
                              175.20   209.21   216.47   226.64   256.50
                              295.80   297.15   310.86   371.80   377.33
                              400.98   450.33   459.17   494.72   515.41
                              550.59   561.51   576.47   586.69   593.38
                              610.09   636.01   675.91   713.39   738.67
                              791.10   815.83   896.55   957.18   997.20
                             1003.15  1079.34  1115.56  1122.66  1159.63
                             1201.76  1207.51  1229.03  1242.59  1288.81
                             1300.24  1381.56  1387.85  1407.75  1426.96
                             1433.47  1439.59  1443.28  1461.32  1463.65
                             1490.34  1505.74  1551.18  1574.38  1577.16
                             1607.99  1630.56  1633.19  1675.51  1682.62
                             1697.54  1737.78  1740.29  1765.12  1804.65
                             1841.68  1848.52  1898.78  1912.21  1926.87
                             1934.25  1966.81  1974.10  1981.42  1985.96
                             2023.30  2031.25  2037.11  2104.90  2110.69
                             2113.02  2121.58  2131.27  2133.43  2139.19
                             2141.21  2147.15  2165.57  2184.98  2253.54
                             2330.77  2363.16  2469.84  2546.46  4338.54
                             4353.52  4360.04  4377.11  4405.29  4410.42
                             4422.26  4431.45  4436.10  4441.51  4472.42
                             4479.04  4482.96  4487.60  4491.56  4512.33
                             4514.02  4569.81  4590.19  4601.55  4627.91
                             4635.43

 Zero-point correction=                           0.359500 (Hartree/Particle)
 Thermal correction to Energy=                    0.387210
 Thermal correction to Enthalpy=                  0.388155
 Thermal correction to Gibbs Free Energy=         0.296363
 Sum of electronic and zero-point Energies=          -3531.089359
 Sum of electronic and thermal Energies=             -3531.061649
 Sum of electronic and thermal Enthalpies=           -3531.060705
 Sum of electronic and thermal Free Energies=        -3531.152496

                     E (Thermal)             CV                S
                      KCal/Mol        Cal/Mol-Kelvin    Cal/Mol-Kelvin
 Total                  242.978             97.762            193.191
 Electronic               0.000              0.000              3.561
 Translational            0.889              2.981             44.100
 Rotational               0.889              2.981             35.643
 Vibrational            241.201             91.800            109.887
 Vibration     1          0.593              1.986              6.592
 Vibration     2          0.593              1.985              6.421
 Vibration     3          0.593              1.984              5.892
 Vibration     4          0.595              1.980              5.070
 Vibration     5          0.596              1.977              4.753
 Vibration     6          0.597              1.972              4.341
 Vibration     7          0.597              1.970              4.269
 Vibration     8          0.599              1.964              3.963
 Vibration     9          0.600              1.962              3.873
 Vibration    10          0.602              1.957              3.684
 Vibration    11          0.603              1.953              3.563
 Vibration    12          0.604              1.948              3.428
 Vibration    13          0.606              1.942              3.297
 Vibration    14          0.608              1.937              3.175
 Vibration    15          0.608              1.935              3.153
 Vibration    16          0.609              1.931              3.072
 Vibration    17          0.617              1.908              2.731
 Vibration    18          0.618              1.902              2.666
 Vibration    19          0.621              1.894              2.579
 Vibration    20          0.629              1.869              2.346
 Vibration    21          0.640              1.832              2.082
 Vibration    22          0.641              1.831              2.074
 Vibration    23          0.645              1.817              1.992
 Vibration    24          0.667              1.749              1.672
 Vibration    25          0.670              1.742              1.647
 Vibration    26          0.679              1.713              1.542
 Vibration    27          0.701              1.649              1.346
 Vibration    28          0.705              1.637              1.315
 Vibration    29          0.723              1.588              1.194
 Vibration    30          0.733              1.558              1.130
 Vibration    31          0.752              1.507              1.029
 Vibration    32          0.758              1.491              0.999
 Vibration    33          0.767              1.469              0.960
 Vibration    34          0.772              1.453              0.935
 Vibration    35          0.776              1.443              0.918
 Vibration    36          0.786              1.418              0.878
 Vibration    37          0.802              1.378              0.820
 Vibration    38          0.827              1.317              0.738
 Vibration    39          0.851              1.259              0.669
 Vibration    40          0.868              1.220              0.625
 Vibration    41          0.905              1.140              0.544
 Vibration    42          0.923              1.103              0.510

 Optimization completed.
    -- Stationary point found.
 Normal termination of Gaussian 16 at Sun Jun 20 21:51:23 2021.

 ----------------------------------------------------------------------
 #p ub3lyp jul-cc-pvdz pop=cm5 scrf=(pcm,solvent=dichloroethane) guess=
 read geom=allcheck
 ----------------------------------------------------------------------

 Structure from the checkpoint file:  "checkpoint.chk"
 -----
 title
 -----
 Charge =  0 Multiplicity = 6

 SCF Done:  E(UB3LYP) =  -3531.46539875     A.U. after   17 cycles
 Normal termination of Gaussian 16 at Sun Jun 20 22:15:44 2021.
 Gaussian 16:  ES64L-G16RevA.03 25-Dec-2016

 ----------------------------------------------------------------------
 #p ub3lyp jul-cc-pvdz pop=cm5 scrf=(pcm,solvent=water) guess=read geom
 =allcheck
 ----------------------------------------------------------------------

 Structure from the checkpoint file:  "checkpoint.chk"
 -----
 title
 -----
 Charge =  0 Multiplicity = 6

                         Standard orientation:
 ---------------------------------------------------------------------
 Center     Atomic      Atomic             Coordinates (Angstroms)
 Number     Number       Type             X           Y           Z
 ---------------------------------------------------------------------
      1          6           0        2.777241   -0.035268    1.436234
      2          6           0        1.525725   -0.564007    1.051022
      3          6           0        0.867923   -1.468057    1.914514
      4          6           0        1.449395   -1.838894    3.122227
      5          6           0        2.688309   -1.303704    3.496632
      6          6           0        3.345662   -0.399256    2.655469
      7          6           0        0.865576   -0.179419   -0.206058
      8          6           0        1.573629    0.605214   -1.315379
      9          6           0        2.833385   -0.055598   -1.913340
     10          6           0        2.478505   -1.303442   -2.745271
     11          6           0        1.761651   -2.338986   -1.921666
     12          6           0        0.448940   -2.643284   -1.943164
     13          6           0       -0.547505   -2.099116   -2.932158
     14          8           0       -0.344187   -0.449522   -0.394497
     15         26           0       -2.156440   -0.016304    0.338538
     16         17           0       -3.279075    0.811918   -1.355439
     17          6           0       -0.109159   -3.686087   -1.009464
     18         17           0       -1.778646    1.427156    1.956033
     19         17           0       -2.996424   -1.910719    1.089678
     20          1           0       -0.096772   -1.883454    1.629696
     21          1           0        0.933223   -2.540612    3.777742
     22          1           0        3.140290   -1.589882    4.447792
     23          1           0        4.304615    0.027112    2.951307
     24          1           0        3.297888    0.681980    0.806230
     25          1           0        0.810595    0.694554   -2.099034
     26          6           0        1.837686    2.049183   -0.844330
     27          1           0        3.335546    0.690973   -2.543524
     28          1           0        3.545847   -0.318904   -1.122528
     29          1           0        1.879825   -0.999153   -3.614643
     30          1           0        3.414947   -1.724728   -3.143865
     31          1           0        2.383441   -2.850373   -1.178813
     32          1           0        0.654656   -4.071873   -0.321650
     33          1           0       -0.948439   -3.285085   -0.421552
     34          1           0       -0.514248   -4.535155   -1.583574
     35          1           0       -0.921582   -2.921015   -3.564003
     36          1           0       -1.424080   -1.677594   -2.420811
     37          1           0       -0.137774   -1.328164   -3.593724
     38          8           0        0.683867    2.713746   -0.731729
     39          8           0        2.934521    2.518300   -0.627813
     40          6           0        0.759948    4.099340   -0.274339
     41          6           0       -0.643617    4.665998   -0.302018
     42          1           0        1.190434    4.094719    0.736047
     43          1           0        1.448002    4.637718   -0.939238
     44          1           0       -0.616684    5.708475    0.046562
     45          1           0       -1.054284    4.651385   -1.320764
     46          1           0       -1.310895    4.093037    0.354575
 ---------------------------------------------------------------------

 SCF Done:  E(UB3LYP) =  -3531.46851410     A.U. after   14 cycles

 The electronic state is 6-A.
 Alpha  occ. eigenvalues -- -256.21895-101.53093-101.53038-101.52948 -30.21264
 Alpha  occ. eigenvalues --  -26.06736 -26.06399 -26.06362 -19.21196 -19.20336
 Alpha  occ. eigenvalues --  -19.16356 -10.34333 -10.33749 -10.25265 -10.23483
 Alpha  occ. eigenvalues --  -10.23144 -10.22364 -10.22281 -10.22211 -10.21450
 Alpha  occ. eigenvalues --  -10.21434 -10.20464 -10.20106 -10.19312 -10.18753
 Alpha  occ. eigenvalues --  -10.18186 -10.18135 -10.17980  -9.44801  -9.44758
 Alpha  occ. eigenvalues --   -9.44683  -7.20671  -7.20627  -7.20551  -7.20371
 Alpha  occ. eigenvalues --   -7.20334  -7.20319  -7.20293  -7.20233  -7.20227
 Alpha  occ. eigenvalues --   -3.68898  -2.46679  -2.46050  -2.45980  -1.13162
 Alpha  occ. eigenvalues --   -1.10653  -1.04704  -0.88925  -0.84766  -0.81974
 Alpha  occ. eigenvalues --   -0.81072  -0.80323  -0.80274  -0.79236  -0.78524
 Alpha  occ. eigenvalues --   -0.77572  -0.74971  -0.69584  -0.69098  -0.67538
 Alpha  occ. eigenvalues --   -0.64795  -0.63211  -0.61775  -0.60013  -0.57839
 Alpha  occ. eigenvalues --   -0.56613  -0.53854  -0.52652  -0.51961  -0.51055
 Alpha  occ. eigenvalues --   -0.50380  -0.49531  -0.49250  -0.48958  -0.48832
 Alpha  occ. eigenvalues --   -0.48533  -0.47503  -0.47162  -0.46767  -0.45787
 Alpha  occ. eigenvalues --   -0.45404  -0.44935  -0.44470  -0.43202  -0.42920
 Alpha  occ. eigenvalues --   -0.42389  -0.40799  -0.40521  -0.39934  -0.39452
 Alpha  occ. eigenvalues --   -0.38703  -0.38658  -0.38103  -0.37877  -0.37395
 Alpha  occ. eigenvalues --   -0.37158  -0.36920  -0.36573  -0.36417  -0.35089
 Alpha  occ. eigenvalues --   -0.35062  -0.34797  -0.33135  -0.32731  -0.32392
 Alpha  occ. eigenvalues --   -0.31843  -0.31812  -0.31674  -0.31454  -0.30543
 Alpha  occ. eigenvalues --   -0.30355  -0.30023  -0.28917  -0.28197  -0.24439
 Alpha virt. eigenvalues --   -0.11539  -0.03817  -0.02370  -0.01633  -0.00724
 Alpha virt. eigenvalues --   -0.00147  -0.00042   0.00092   0.00565   0.01545
 Alpha virt. eigenvalues --    0.01681   0.01903   0.02211   0.02666   0.03331

  Beta  occ. eigenvalues -- -256.21709-101.52890-101.52842-101.52753 -30.12333
  Beta  occ. eigenvalues --  -25.99149 -25.99023 -25.98996 -19.21196 -19.20014
  Beta  occ. eigenvalues --  -19.16351 -10.34329 -10.33718 -10.25265 -10.23470
  Beta  occ. eigenvalues --  -10.23134 -10.22359 -10.22272 -10.22206 -10.21452
  Beta  occ. eigenvalues --  -10.21437 -10.20463 -10.20098 -10.19312 -10.18753
  Beta  occ. eigenvalues --  -10.18177 -10.18135 -10.17981  -9.44603  -9.44565
  Beta  occ. eigenvalues --   -9.44492  -7.20349  -7.20308  -7.20238  -7.20082
  Beta  occ. eigenvalues --   -7.20064  -7.20047  -7.20031  -7.19966  -7.19959
  Beta  occ. eigenvalues --   -3.48065  -2.24382  -2.24252  -2.24207  -1.13151
  Beta  occ. eigenvalues --   -1.10036  -1.04697  -0.88891  -0.84715  -0.81936
  Beta  occ. eigenvalues --   -0.79791  -0.79213  -0.78939  -0.78896  -0.78511
  Beta  occ. eigenvalues --   -0.77563  -0.74935  -0.69569  -0.68989  -0.67453
  Beta  occ. eigenvalues --   -0.64767  -0.63183  -0.61538  -0.59711  -0.57730
  Beta  occ. eigenvalues --   -0.55954  -0.53366  -0.52586  -0.51851  -0.50773
  Beta  occ. eigenvalues --   -0.50052  -0.49259  -0.47501  -0.46827  -0.46511
  Beta  occ. eigenvalues --   -0.45446  -0.45105  -0.44462  -0.43217  -0.42906
  Beta  occ. eigenvalues --   -0.42382  -0.40808  -0.40515  -0.39922  -0.39292
  Beta  occ. eigenvalues --   -0.38865  -0.38679  -0.38473  -0.37945  -0.37395
  Beta  occ. eigenvalues --   -0.37154  -0.36893  -0.36699  -0.36672  -0.36478
  Beta  occ. eigenvalues --   -0.36406  -0.35030  -0.33959  -0.33783  -0.33415
  Beta  occ. eigenvalues --   -0.33085  -0.32777  -0.32391  -0.31743  -0.30983
  Beta  occ. eigenvalues --   -0.30230  -0.30186  -0.28979  -0.28178  -0.24373
  Beta virt. eigenvalues --   -0.15954  -0.15494  -0.14604  -0.14149  -0.14056
  Beta virt. eigenvalues --   -0.10544  -0.03778  -0.02334  -0.01496  -0.00645
  Beta virt. eigenvalues --   -0.00087  -0.00001   0.00141   0.00667   0.01572

 Mulliken charges and spin densities:
               1          2
     1  C   -0.119534   0.004661
     2  C    3.211966  -0.002106
     3  C   -0.667241  -0.002414
     4  C    0.113467   0.000383
     5  C    0.259509   0.009348
     6  C   -0.168005  -0.002172
     7  C   -1.747498  -0.005876
     8  C    0.179533   0.008734
     9  C    0.659685   0.002540
    10  C    0.503285  -0.000547
    11  C    0.122155   0.005981
    12  C   -0.025068   0.009576
    13  C    0.180981  -0.001658
    14  O   -0.312935   0.092883
    15  Fe   0.722463   4.070054
    16  Cl  -0.482751   0.267144
    17  C    0.167050  -0.002237
    18  Cl  -0.449368   0.270809
    19  Cl  -0.446536   0.264535
    20  H   -0.263401   0.000159
    21  H   -0.159958   0.000019
    22  H   -0.140788  -0.000134
    23  H   -0.151673   0.000081
    24  H   -0.216592  -0.000103
    25  H   -0.142997  -0.000415
    26  C    0.789146   0.005917
    27  H   -0.142381   0.000347
    28  H   -0.048681   0.000024
    29  H   -0.089082  -0.000004
    30  H   -0.126598   0.000581
    31  H   -0.242116  -0.000286
    32  H   -0.030154   0.000056
    33  H    0.055898   0.000859
    34  H   -0.027117   0.000373
    35  H   -0.020786   0.000369
    36  H    0.013554   0.000813
    37  H   -0.013255   0.000036
    38  O   -0.661330   0.000901
    39  O   -0.541980   0.001697
    40  C    0.444109  -0.000025
    41  C    0.034060  -0.000569
    42  H   -0.031184   0.000037
    43  H   -0.037361   0.000006
    44  H   -0.004239   0.000044
    45  H    0.025473   0.000046
    46  H    0.028275  -0.000470
 Sum of Mulliken charges =  -0.00000   5.00000

 Dipole moment (field-independent basis, Debye):
    X=              9.3740    Y=             -0.9154    Z=             -0.1233  Tot=              9.4194
 Quadrupole moment (field-independent basis, Debye-Ang):
   XX=           -193.0539   YY=           -167.5303   ZZ=           -164.9282
   XY=             -6.7981   XZ=              8.9762   YZ=             -4.7302

 Normal termination of Gaussian 16 at Sun Jun 20 22:35:44 2021.
