 Gaussian 16, Revision A.03,

 -----------------------------------------------------------
 #p opt=modredundant freq=noraman ub3lyp jul-cc-pvdz pop=cm5
 -----------------------------------------------------------

 -----
 title
 -----
 Symbolic Z-matrix:
 Charge =  0 Multiplicity = 6

 SCF Done:  E(UB3LYP) =  -3531.45216141     A.U. after   24 cycles
 SCF Done:  E(UB3LYP) =  -3531.45238779     A.U. after   17 cycles
 SCF Done:  E(UB3LYP) =  -3531.45109168     A.U. after   20 cycles
 SCF Done:  E(UB3LYP) =  -3531.45264813     A.U. after   15 cycles
 SCF Done:  E(UB3LYP) =  -3531.45253312     A.U. after   16 cycles
 SCF Done:  E(UB3LYP) =  -3531.45279506     A.U. after   15 cycles
 SCF Done:  E(UB3LYP) =  -3531.45280925     A.U. after   13 cycles
 SCF Done:  E(UB3LYP) =  -3531.45281021     A.U. after   12 cycles
 SCF Done:  E(UB3LYP) =  -3531.45281128     A.U. after   12 cycles
 SCF Done:  E(UB3LYP) =  -3531.45281130     A.U. after   11 cycles
 SCF Done:  E(UB3LYP) =  -3531.45281165     A.U. after   10 cycles
 SCF Done:  E(UB3LYP) =  -3531.45281153     A.U. after   11 cycles
 SCF Done:  E(UB3LYP) =  -3531.45281151     A.U. after   10 cycles
 SCF Done:  E(UB3LYP) =  -3531.45281143     A.U. after    9 cycles
 SCF Done:  E(UB3LYP) =  -3531.45281159     A.U. after    9 cycles
 SCF Done:  E(UB3LYP) =  -3531.45281145     A.U. after    9 cycles
 Optimization completed.
    -- Stationary point found.
 Normal termination of Gaussian 16 at Sun Jun 20 15:56:56 2021.

 ----------------------------------------------------------------------
 #P Geom=AllCheck Guess=TCheck SCRF=Check GenChk UB3LYP/Jul-CC-pVDZ Fre
 q
 ----------------------------------------------------------------------

 Structure from the checkpoint file:  "checkpoint.chk"
 -----
 title
 -----
 Charge =  0 Multiplicity = 6

 SCF Done:  E(UB3LYP) =  -3531.45281145     A.U. after    2 cycles

  Exact polarizability: 308.019  12.400 300.814  26.529  -6.077 303.081
 Approx polarizability: 483.925  46.829 449.852  51.663 -21.040 486.333

 ******    1 imaginary frequencies (negative Signs) ******

                      1                      2                      3
                      A                      A                      A
 Frequencies --     -2.7132                17.2140                24.2359
 Red. masses --      5.7416                 7.8772                 5.1979
 Frc consts  --      0.0000                 0.0014                 0.0018
 IR Inten    --      0.2769                 0.6604                 1.0269

                      4                      5                      6
                      A                      A                      A
 Frequencies --     30.8553                42.6838                51.4603
 Red. masses --      7.5495                 7.0516                 4.9789
 Frc consts  --      0.0042                 0.0076                 0.0078
 IR Inten    --      0.8904                 1.3475                 0.4289

                      7                      8                      9
                      A                      A                      A
 Frequencies --     64.8989                66.0198                74.2391
 Red. masses --      4.6827                 2.9250                 3.8631
 Frc consts  --      0.0116                 0.0075                 0.0125
 IR Inten    --      0.3114                 0.5887                 0.4303

                     10                     11                     12
                      A                      A                      A
 Frequencies --     79.8248                82.3562                90.7019
 Red. masses --      8.6128                 6.6781                 3.3741
 Frc consts  --      0.0323                 0.0267                 0.0164
 IR Inten    --      0.2452                 1.5960                 0.4002

                     13                     14                     15
                      A                      A                      A
 Frequencies --     95.7002               106.5657               110.1397
 Red. masses --      3.9898                 3.1421                 6.6296
 Frc consts  --      0.0215                 0.0210                 0.0474
 IR Inten    --      1.6787                 0.0895                 0.2995

                     16                     17                     18
                      A                      A                      A
 Frequencies --    115.7875               121.1304               134.8153
 Red. masses --      8.1792                13.2978                 1.4099
 Frc consts  --      0.0646                 0.1150                 0.0151
 IR Inten    --      1.2086                 1.6884                 1.8988

                     19                     20                     21
                      A                      A                      A
 Frequencies --    148.8207               151.9790               173.6313
 Red. masses --      3.1167                 4.7443                 4.8009
 Frc consts  --      0.0407                 0.0646                 0.0853
 IR Inten    --      3.2543                 7.6686                10.9025

                     22                     23                     24
                      A                      A                      A
 Frequencies --    199.9175               207.5313               214.4352
 Red. masses --      1.2536                 3.0039                 3.3987
 Frc consts  --      0.0295                 0.0762                 0.0921
 IR Inten    --      3.7017                 2.2076                 1.8752

                     25                     26                     27
                      A                      A                      A
 Frequencies --    258.1089               258.2770               277.3708
 Red. masses --      1.4383                 3.1587                 4.2949
 Frc consts  --      0.0565                 0.1241                 0.1947
 IR Inten    --      1.4676                15.4631                 1.6234

                     28                     29                     30
                      A                      A                      A
 Frequencies --    298.1764               316.0987               343.7416
 Red. masses --      8.7833                 2.3523                27.1212
 Frc consts  --      0.4601                 0.1385                 1.8881
 IR Inten    --     18.9617                 0.9602                34.2877

                     31                     32                     33
                      A                      A                      A
 Frequencies --    354.9972               380.9481               388.3615
 Red. masses --      4.7733                 3.5035                 3.1402
 Frc consts  --      0.3544                 0.2996                 0.2791
 IR Inten    --     18.4419                 2.0431                 5.1852

                     34                     35                     36
                      A                      A                      A
 Frequencies --    400.8507               408.3021               412.9160
 Red. masses --     28.2775                16.5797                 3.3039
 Frc consts  --      2.6771                 1.6285                 0.3319
 IR Inten    --     77.3266                72.2212                10.8827

                     37                     38                     39
                      A                      A                      A
 Frequencies --    422.9018               440.3677               470.5139
 Red. masses --      3.6047                 2.7251                 3.4520
 Frc consts  --      0.3798                 0.3114                 0.4503
 IR Inten    --     18.1677                 8.1857                 0.5090

                     40                     41                     42
                      A                      A                      A
 Frequencies --    490.5473               512.4542               544.3660
 Red. masses --      2.3834                 2.8085                 4.0430
 Frc consts  --      0.3379                 0.4345                 0.7059
 IR Inten    --      5.6226                 0.8792                16.5219

                     43                     44                     45
                      A                      A                      A
 Frequencies --    574.1695               623.3923               662.8109
 Red. masses --      5.2286                 6.4065                 4.8108
 Frc consts  --      1.0156                 1.4669                 1.2452
 IR Inten    --     44.7169                 1.7334                30.5576

                     46                     47                     48
                      A                      A                      A
 Frequencies --    691.3575               697.6805               749.6509
 Red. masses --      5.5636                 1.5905                 4.2097
 Frc consts  --      1.5668                 0.4561                 1.3939
 IR Inten    --      3.7324                59.4886                 4.8810

                     49                     50                     51
                      A                      A                      A
 Frequencies --    775.1978               782.3063               806.1456
 Red. masses --      2.3527                 2.1868                 1.1261
 Frc consts  --      0.8330                 0.7885                 0.4312
 IR Inten    --     28.9323                 0.8519                 1.2674

                     52                     53                     54
                      A                      A                      A
 Frequencies --    835.9781               839.5062               854.1717
 Red. masses --      3.9043                 1.6077                 1.2532
 Frc consts  --      1.6076                 0.6676                 0.5387
 IR Inten    --      7.3088                18.8277                 1.7433

                     55                     56                     57
                      A                      A                      A
 Frequencies --    863.7963               897.8396               902.7636
 Red. masses --      2.7803                 2.2104                 2.2197
 Frc consts  --      1.2223                 1.0498                 1.0659
 IR Inten    --     21.5392                 0.0630                17.7369

                     58                     59                     60
                      A                      A                      A
 Frequencies --    960.8703               963.0548               977.7016
 Red. masses --      1.4321                 1.5291                 2.9659
 Frc consts  --      0.7790                 0.8356                 1.6704
 IR Inten    --      1.8387                 3.7372                16.5511

                     61                     62                     63
                      A                      A                      A
 Frequencies --    992.5047               997.6659              1000.3233
 Red. masses --      2.4794                 1.3650                 1.7529
 Frc consts  --      1.4390                 0.8005                 1.0334
 IR Inten    --     31.6096                 5.0503                 4.2889

                     64                     65                     66
                      A                      A                      A
 Frequencies --   1002.8066              1015.1801              1020.9191
 Red. masses --      2.5231                 1.3468                 2.1197
 Frc consts  --      1.4949                 0.8178                 1.3017
 IR Inten    --      0.3760                 0.8006                 0.0206

                     67                     68                     69
                      A                      A                      A
 Frequencies --   1036.2339              1046.8718              1078.1367
 Red. masses --      2.5990                 2.4134                 2.0902
 Frc consts  --      1.6443                 1.5584                 1.4315
 IR Inten    --     44.1768                 2.4773                 0.6194

                     70                     71                     72
                      A                      A                      A
 Frequencies --   1095.8521              1098.4135              1117.4245
 Red. masses --      1.7158                 2.3930                 1.5838
 Frc consts  --      1.2140                 1.7011                 1.1652
 IR Inten    --      1.1818                16.3202                 5.6511

                     73                     74                     75
                      A                      A                      A
 Frequencies --   1133.3921              1137.1101              1165.3805
 Red. masses --      2.1708                 2.1169                 1.6824
 Frc consts  --      1.6430                 1.6127                 1.3462
 IR Inten    --     16.4130                 8.8690                89.5152

                     76                     77                     78
                      A                      A                      A
 Frequencies --   1169.6114              1179.5499              1208.1164
 Red. masses --      1.5781                 1.0853                 1.2902
 Frc consts  --      1.2719                 0.8896                 1.1095
 IR Inten    --     13.4359                 1.1345                36.8402

                     79                     80                     81
                      A                      A                      A
 Frequencies --   1210.1017              1227.9253              1253.8367
 Red. masses --      1.5688                 1.9589                 1.9711
 Frc consts  --      1.3535                 1.7402                 1.8258
 IR Inten    --     96.1232               151.2137                40.1369

                     82                     83                     84
                      A                      A                      A
 Frequencies --   1278.3688              1284.0597              1321.9028
 Red. masses --      1.7871                 1.1815                 1.3874
 Frc consts  --      1.7207                 1.1478                 1.4284
 IR Inten    --    143.4413                16.5707                 9.5188

                     85                     86                     87
                      A                      A                      A
 Frequencies --   1328.0543              1339.3749              1344.3557
 Red. masses --      1.8879                 1.4969                 1.6328
 Frc consts  --      1.9618                 1.5821                 1.7386
 IR Inten    --    115.1236                11.4945                31.9172

                     88                     89                     90
                      A                      A                      A
 Frequencies --   1367.9536              1371.5967              1378.8111
 Red. masses --      1.7122                 2.3326                 1.3386
 Frc consts  --      1.8878                 2.5855                 1.4994
 IR Inten    --      5.3743                10.3314                 3.7959

                     91                     92                     93
                      A                      A                      A
 Frequencies --   1380.3506              1405.6238              1410.4197
 Red. masses --      1.3602                 1.4321                 1.2847
 Frc consts  --      1.5270                 1.6671                 1.5057
 IR Inten    --     16.2945                 8.1056                11.3934

                     94                     95                     96
                      A                      A                      A
 Frequencies --   1416.1209              1461.6350              1466.9297
 Red. masses --      1.3920                 1.0617                 1.5757
 Frc consts  --      1.6447                 1.3363                 1.9978
 IR Inten    --     12.1485                 3.8395                15.4965

                     97                     98                     99
                      A                      A                      A
 Frequencies --   1468.2238              1474.7318              1480.2115
 Red. masses --      1.3552                 1.0384                 1.0872
 Frc consts  --      1.7213                 1.3306                 1.4035
 IR Inten    --     11.8785                 5.3331                 2.0636

                    100                    101                    102
                      A                      A                      A
 Frequencies --   1481.8256              1486.4266              1487.0079
 Red. masses --      1.0469                 1.0873                 1.0594
 Frc consts  --      1.3544                 1.4154                 1.3802
 IR Inten    --     14.6508                 8.5287                 2.2284

                    103                    104                    105
                      A                      A                      A
 Frequencies --   1490.8292              1505.5110              1519.0108
 Red. masses --      1.0845                 1.0828                 2.1650
 Frc consts  --      1.4201                 1.4460                 2.9432
 IR Inten    --      9.8121                 6.5275                 5.8069

                    106                    107                    108
                      A                      A                      A
 Frequencies --   1574.7772              1621.2585              1642.9688
 Red. masses --      7.2056                 5.5870                 5.7792
 Frc consts  --     10.5284                 8.6524                 9.1912
 IR Inten    --    634.0822                76.4109                42.5211

                    109                    110                    111
                      A                      A                      A
 Frequencies --   1718.3303              1770.3792              3014.0074
 Red. masses --      6.4717                11.6181                 1.0380
 Frc consts  --     11.2586                21.4545                 5.5555
 IR Inten    --     47.2319               214.5333                16.4235

                    112                    113                    114
                      A                      A                      A
 Frequencies --   3024.3285              3026.6461              3042.1613
 Red. masses --      1.0560                 1.0508                 1.0355
 Frc consts  --      5.6906                 5.6712                 5.6463
 IR Inten    --     25.3836                23.4137                14.5415

                    115                    116                    117
                      A                      A                      A
 Frequencies --   3061.6009              3066.5416              3070.6112
 Red. masses --      1.0582                 1.0629                 1.0978
 Frc consts  --      5.8440                 5.8890                 6.0987
 IR Inten    --     14.5000                19.6636                 5.4330

                    118                    119                    120
                      A                      A                      A
 Frequencies --   3077.5716              3078.2781              3081.0610
 Red. masses --      1.0860                 1.0950                 1.0960
 Frc consts  --      6.0606                 6.1131                 6.1301
 IR Inten    --      5.7204                21.1939                 6.9996

                    121                    122                    123
                      A                      A                      A
 Frequencies --   3108.1005              3112.7668              3116.6252
 Red. masses --      1.1076                 1.0998                 1.0984
 Frc consts  --      6.3040                 6.2787                 6.2861
 IR Inten    --      6.8120                 6.0695                 1.4635

                    124                    125                    126
                      A                      A                      A
 Frequencies --   3119.0273              3121.7813              3135.5879
 Red. masses --      1.1016                 1.0919                 1.0973
 Frc consts  --      6.3144                 6.2693                 6.3565
 IR Inten    --     16.3145                39.5100                22.4069

                    127                    128                    129
                      A                      A                      A
 Frequencies --   3136.8121              3176.0061              3189.8961
 Red. masses --      1.1054                 1.0864                 1.0909
 Frc consts  --      6.4081                 6.4565                 6.5404
 IR Inten    --     18.3153                 1.1803                 7.1500

                    130                    131                    132
                      A                      A                      A
 Frequencies --   3197.9641              3215.1775              3221.0772
 Red. masses --      1.0958                 1.0944                 1.0939
 Frc consts  --      6.6029                 6.6654                 6.6867
 IR Inten    --      6.6939                 5.8494                 6.6194

 - Thermochemistry -
 -------------------
 Temperature   298.150 Kelvin.  Pressure   1.00000 Atm.
 Atom     1 has atomic number  6 and mass  12.00000

 Molecular mass:   434.99839 amu.
 Principal axes and moments of inertia in atomic units:
                           1         2         3
     Eigenvalues --  ******************************
           X            0.99767  -0.06784   0.00750
           Y            0.06762   0.99737   0.02625
           Z           -0.00926  -0.02568   0.99963
 This molecule is an asymmetric top.
 Rotational symmetry number  1.
 Warning -- assumption of classical behavior for rotation
           may cause significant error
 Rotational temperatures (Kelvin)      0.00851     0.00764     0.00654
 Rotational constants (GHZ):           0.17732     0.15929     0.13626
    1 imaginary frequencies ignored.
 Zero-point vibrational energy     943259.5 (Joules/Mol)
                                  225.44443 (Kcal/Mol)
 Warning -- explicit consideration of  42 degrees of freedom as
           vibrations may cause significant error
 Vibrational temperatures:     24.77    34.87    44.39    61.41    74.04
          (Kelvin)             93.37    94.99   106.81   114.85   118.49
                              130.50   137.69   153.32   158.47   166.59
                              174.28   193.97   214.12   218.66   249.82
                              287.64   298.59   308.52   371.36   371.60
                              399.07   429.01   454.80   494.57   510.76
                              548.10   558.77   576.73   587.46   594.09
                              608.46   633.59   676.96   705.79   737.31
                              783.22   826.10   896.92   953.64   994.71
                             1003.81  1078.58  1115.34  1125.56  1159.86
                             1202.79  1207.86  1228.96  1242.81  1291.79
                             1298.88  1382.48  1385.62  1406.69  1427.99
                             1435.42  1439.24  1442.82  1460.62  1468.87
                             1490.91  1506.22  1551.20  1576.69  1580.37
                             1607.72  1630.70  1636.05  1676.72  1682.81
                             1697.11  1738.21  1741.07  1766.71  1803.99
                             1839.29  1847.48  1901.92  1910.77  1927.06
                             1934.23  1968.18  1973.42  1983.80  1986.02
                             2022.38  2029.28  2037.48  2102.97  2110.58
                             2112.45  2121.81  2129.69  2132.02  2138.64
                             2139.47  2144.97  2166.09  2185.52  2265.75
                             2332.63  2363.87  2472.29  2547.18  4336.48
                             4351.33  4354.67  4376.99  4404.96  4412.07
                             4417.92  4427.94  4428.96  4432.96  4471.86
                             4478.58  4484.13  4487.58  4491.55  4511.41
                             4513.17  4569.56  4589.55  4601.16  4625.92
                             4634.41

 Zero-point correction=                           0.359269 (Hartree/Particle)
 Thermal correction to Energy=                    0.387123
 Thermal correction to Enthalpy=                  0.388067
 Thermal correction to Gibbs Free Energy=         0.295694
 Sum of electronic and zero-point Energies=          -3531.093543
 Sum of electronic and thermal Energies=             -3531.065689
 Sum of electronic and thermal Enthalpies=           -3531.064744
 Sum of electronic and thermal Free Energies=        -3531.157117

                     E (Thermal)             CV                S
                      KCal/Mol        Cal/Mol-Kelvin    Cal/Mol-Kelvin
 Total                  242.923             97.878            194.415
 Electronic               0.000              0.000              3.561
 Translational            0.889              2.981             44.100
 Rotational               0.889              2.981             35.678
 Vibrational            241.146             91.916            111.076
 Vibration     1          0.593              1.986              6.932
 Vibration     2          0.593              1.985              6.253
 Vibration     3          0.594              1.984              5.774
 Vibration     4          0.595              1.980              5.130
 Vibration     5          0.596              1.977              4.760
 Vibration     6          0.597              1.971              4.302
 Vibration     7          0.597              1.970              4.269
 Vibration     8          0.599              1.966              4.038
 Vibration     9          0.600              1.963              3.895
 Vibration    10          0.600              1.961              3.834
 Vibration    11          0.602              1.956              3.645
 Vibration    12          0.603              1.952              3.540
 Vibration    13          0.605              1.944              3.331
 Vibration    14          0.606              1.941              3.266
 Vibration    15          0.608              1.936              3.170
 Vibration    16          0.609              1.932              3.082
 Vibration    17          0.613              1.919              2.876
 Vibration    18          0.618              1.904              2.687
 Vibration    19          0.619              1.900              2.647
 Vibration    20          0.627              1.875              2.396
 Vibration    21          0.638              1.840              2.134
 Vibration    22          0.641              1.829              2.065
 Vibration    23          0.644              1.819              2.006
 Vibration    24          0.667              1.749              1.675
 Vibration    25          0.667              1.749              1.673
 Vibration    26          0.678              1.715              1.550
 Vibration    27          0.691              1.677              1.427
 Vibration    28          0.703              1.643              1.330
 Vibration    29          0.722              1.588              1.195
 Vibration    30          0.731              1.565              1.144
 Vibration    31          0.751              1.511              1.035
 Vibration    32          0.757              1.495              1.006
 Vibration    33          0.767              1.468              0.960
 Vibration    34          0.773              1.452              0.933
 Vibration    35          0.777              1.442              0.916
 Vibration    36          0.785              1.420              0.882
 Vibration    37          0.800              1.382              0.825
 Vibration    38          0.828              1.315              0.736
 Vibration    39          0.846              1.271              0.682
 Vibration    40          0.868              1.222              0.628
 Vibration    41          0.900              1.152              0.556
 Vibration    42          0.930              1.087              0.496

                           ! Non-Optimized Parameters !
 Normal termination of Gaussian 16 at Sun Jun 20 20:16:33 2021.

 ----------------------------------------------------------------------
 #p ub3lyp jul-cc-pvdz pop=cm5 scrf=(pcm,solvent=dichloroethane) guess=
 read geom=allcheck
 ----------------------------------------------------------------------

 Structure from the checkpoint file:  "checkpoint.chk"
 -----
 title
 -----
 Charge =  0 Multiplicity = 6

 SCF Done:  E(UB3LYP) =  -3531.46961247     A.U. after   17 cycles
 Normal termination of Gaussian 16 at Sun Jun 20 20:42:58 2021.
 Gaussian 16:  ES64L-G16RevA.03 25-Dec-2016

 ----------------------------------------------------------------------
 #p ub3lyp jul-cc-pvdz pop=cm5 scrf=(pcm,solvent=water) guess=read geom
 =allcheck
 ----------------------------------------------------------------------

 Structure from the checkpoint file:  "checkpoint.chk"
 -----
 title
 -----
 Charge =  0 Multiplicity = 6

                         Standard orientation:
 ---------------------------------------------------------------------
 Center     Atomic      Atomic             Coordinates (Angstroms)
 Number     Number       Type             X           Y           Z
 ---------------------------------------------------------------------
      1          6           0        2.746804    0.190751    1.453501
      2          6           0        1.527148   -0.405413    1.066214
      3          6           0        0.896281   -1.311045    1.946969
      4          6           0        1.474689   -1.619643    3.173770
      5          6           0        2.682478   -1.018826    3.550054
      6          6           0        3.311544   -0.110639    2.691686
      7          6           0        0.868036   -0.080521   -0.209849
      8          6           0        1.557074    0.701353   -1.332356
      9          6           0        2.859182    0.097074   -1.890956
     10          6           0        2.596591   -1.223231   -2.637024
     11          6           0        1.998753   -2.270553   -1.737999
     12          6           0        0.756725   -2.791796   -1.781257
     13          6           0       -0.288929   -2.447804   -2.807682
     14          8           0       -0.336903   -0.368260   -0.391849
     15         26           0       -2.201076   -0.121196    0.281114
     16         17           0       -3.348524    0.595931   -1.445926
     17          6           0        0.328562   -3.837783   -0.783892
     18         17           0       -2.013156    1.347593    1.907892
     19         17           0       -2.861725   -2.100344    0.994933
     20          1           0       -0.043840   -1.778703    1.660904
     21          1           0        0.979673   -2.324264    3.842403
     22          1           0        3.131630   -1.256199    4.515840
     23          1           0        4.245103    0.368111    2.988659
     24          1           0        3.244207    0.913331    0.810884
     25          1           0        0.803507    0.727238   -2.130512
     26          6           0        1.735856    2.169878   -0.896673
     27          1           0        3.304002    0.835574   -2.571647
     28          1           0        3.591155   -0.060377   -1.089947
     29          1           0        1.953343   -1.026992   -3.505589
     30          1           0        3.558073   -1.584380   -3.036314
     31          1           0        2.665394   -2.630895   -0.946904
     32          1           0        1.113991   -4.047138   -0.045947
     33          1           0       -0.585024   -3.526940   -0.254006
     34          1           0        0.081351   -4.780066   -1.299281
     35          1           0       -0.594638   -3.357320   -3.349046
     36          1           0       -1.195551   -2.057517   -2.321474
     37          1           0        0.043633   -1.710681   -3.546519
     38          8           0        0.545166    2.764245   -0.775209
     39          8           0        2.805177    2.709657   -0.710123
     40          6           0        0.544180    4.163080   -0.352979
     41          6           0       -0.894263    4.634879   -0.343197
     42          1           0        1.009232    4.213537    0.640716
     43          1           0        1.171246    4.728391   -1.054916
     44          1           0       -0.925236    5.685309   -0.019736
     45          1           0       -1.337810    4.567450   -1.345866
     46          1           0       -1.499373    4.035859    0.349536
 ---------------------------------------------------------------------

 SCF Done:  E(UB3LYP) =  -3531.47279307     A.U. after   14 cycles

 The electronic state is 6-A.
 Alpha  occ. eigenvalues -- -256.21927-101.53116-101.53061-101.52945 -30.21307
 Alpha  occ. eigenvalues --  -26.06783 -26.06438 -26.06401 -19.21210 -19.20484
 Alpha  occ. eigenvalues --  -19.16368 -10.34349 -10.33740 -10.25284 -10.23488
 Alpha  occ. eigenvalues --  -10.23118 -10.22320 -10.22190 -10.22135 -10.21412
 Alpha  occ. eigenvalues --  -10.21392 -10.20418 -10.20196 -10.19350 -10.18766
 Alpha  occ. eigenvalues --  -10.18344 -10.18218 -10.18066  -9.44828  -9.44780
 Alpha  occ. eigenvalues --   -9.44681  -7.20697  -7.20649  -7.20549  -7.20398
 Alpha  occ. eigenvalues --   -7.20362  -7.20342  -7.20315  -7.20230  -7.20225
 Alpha  occ. eigenvalues --   -3.68943  -2.46737  -2.46085  -2.46020  -1.13180
 Alpha  occ. eigenvalues --   -1.10730  -1.04719  -0.88882  -0.84792  -0.81998
 Alpha  occ. eigenvalues --   -0.81085  -0.80345  -0.80278  -0.79205  -0.78571
 Alpha  occ. eigenvalues --   -0.77523  -0.75029  -0.69610  -0.69140  -0.67545
 Alpha  occ. eigenvalues --   -0.64777  -0.63188  -0.61915  -0.60022  -0.57873
 Alpha  occ. eigenvalues --   -0.56658  -0.53897  -0.52726  -0.52001  -0.51039
 Alpha  occ. eigenvalues --   -0.50331  -0.49543  -0.49236  -0.48988  -0.48841
 Alpha  occ. eigenvalues --   -0.48561  -0.47499  -0.47078  -0.46811  -0.45734
 Alpha  occ. eigenvalues --   -0.45424  -0.44891  -0.44447  -0.43291  -0.43015
 Alpha  occ. eigenvalues --   -0.42469  -0.40896  -0.40451  -0.39916  -0.39423
 Alpha  occ. eigenvalues --   -0.38799  -0.38575  -0.38075  -0.37877  -0.37399
 Alpha  occ. eigenvalues --   -0.37216  -0.36930  -0.36570  -0.36468  -0.35158
 Alpha  occ. eigenvalues --   -0.35087  -0.34829  -0.33214  -0.32776  -0.32428
 Alpha  occ. eigenvalues --   -0.31855  -0.31843  -0.31685  -0.31481  -0.30563
 Alpha  occ. eigenvalues --   -0.30382  -0.30029  -0.28902  -0.28149  -0.24559
 Alpha virt. eigenvalues --   -0.11373  -0.03793  -0.02360  -0.01667  -0.00688
 Alpha virt. eigenvalues --   -0.00145  -0.00052   0.00120   0.00548   0.01536
 Alpha virt. eigenvalues --    0.01696   0.01881   0.02225   0.02585   0.03265

  Beta  occ. eigenvalues -- -256.21741-101.52914-101.52864-101.52749 -30.12368
  Beta  occ. eigenvalues --  -25.99184 -25.99058 -25.99031 -19.21209 -19.20158
  Beta  occ. eigenvalues --  -19.16363 -10.34346 -10.33711 -10.25283 -10.23474
  Beta  occ. eigenvalues --  -10.23108 -10.22316 -10.22182 -10.22130 -10.21414
  Beta  occ. eigenvalues --  -10.21395 -10.20416 -10.20189 -10.19350 -10.18765
  Beta  occ. eigenvalues --  -10.18338 -10.18218 -10.18066  -9.44630  -9.44587
  Beta  occ. eigenvalues --   -9.44490  -7.20376  -7.20330  -7.20235  -7.20109
  Beta  occ. eigenvalues --   -7.20092  -7.20068  -7.20053  -7.19964  -7.19957
  Beta  occ. eigenvalues --   -3.48094  -2.24409  -2.24277  -2.24237  -1.13169
  Beta  occ. eigenvalues --   -1.10112  -1.04711  -0.88849  -0.84741  -0.81963
  Beta  occ. eigenvalues --   -0.79802  -0.79180  -0.78959  -0.78899  -0.78559
  Beta  occ. eigenvalues --   -0.77515  -0.74992  -0.69598  -0.69030  -0.67450
  Beta  occ. eigenvalues --   -0.64749  -0.63160  -0.61641  -0.59713  -0.57752
  Beta  occ. eigenvalues --   -0.55983  -0.53440  -0.52654  -0.51893  -0.50769
  Beta  occ. eigenvalues --   -0.50060  -0.49271  -0.47430  -0.46872  -0.46270
  Beta  occ. eigenvalues --   -0.45471  -0.45105  -0.44440  -0.43305  -0.43009
  Beta  occ. eigenvalues --   -0.42466  -0.40909  -0.40442  -0.39901  -0.39316
  Beta  occ. eigenvalues --   -0.38896  -0.38581  -0.38500  -0.37923  -0.37391
  Beta  occ. eigenvalues --   -0.37220  -0.36919  -0.36709  -0.36682  -0.36482
  Beta  occ. eigenvalues --   -0.36456  -0.35105  -0.33989  -0.33813  -0.33497
  Beta  occ. eigenvalues --   -0.33082  -0.32834  -0.32419  -0.31803  -0.30984
  Beta  occ. eigenvalues --   -0.30239  -0.30197  -0.28943  -0.28133  -0.24499
  Beta virt. eigenvalues --   -0.16012  -0.15521  -0.14488  -0.14158  -0.14063
  Beta virt. eigenvalues --   -0.10443  -0.03758  -0.02325  -0.01530  -0.00603
  Beta virt. eigenvalues --   -0.00090  -0.00013   0.00174   0.00639   0.01562

 Mulliken charges and spin densities:
               1          2
     1  C   -0.147614   0.004574
     2  C    3.223369  -0.001830
     3  C   -0.655091  -0.004786
     4  C    0.118422   0.000856
     5  C    0.258994   0.008526
     6  C   -0.153910  -0.001604
     7  C   -1.737464  -0.004873
     8  C    0.168342   0.009165
     9  C    0.618949   0.001934
    10  C    0.541610  -0.000113
    11  C    0.143484   0.003446
    12  C   -0.022902   0.008589
    13  C    0.124667  -0.001397
    14  O   -0.320673   0.092778
    15  Fe   0.749377   4.074283
    16  Cl  -0.479072   0.268247
    17  C    0.156945  -0.001607
    18  Cl  -0.444348   0.270850
    19  Cl  -0.448755   0.264867
    20  H   -0.284383   0.000178
    21  H   -0.159986   0.000015
    22  H   -0.141316  -0.000119
    23  H   -0.152626   0.000086
    24  H   -0.211462  -0.000098
    25  H   -0.137975  -0.000309
    26  C    0.794883   0.004492
    27  H   -0.141081   0.000449
    28  H   -0.047088   0.000029
    29  H   -0.092749   0.000006
    30  H   -0.123212   0.000449
    31  H   -0.239922  -0.000204
    32  H   -0.023487   0.000053
    33  H    0.049398   0.000331
    34  H   -0.023014   0.000273
    35  H   -0.019978   0.000287
    36  H    0.013991   0.000541
    37  H   -0.010651   0.000028
    38  O   -0.660623   0.000739
    39  O   -0.544782   0.001737
    40  C    0.445074  -0.000177
    41  C    0.032825  -0.000377
    42  H   -0.031068   0.000049
    43  H   -0.035679   0.000011
    44  H   -0.003839   0.000034
    45  H    0.026086   0.000035
    46  H    0.028334  -0.000439
 Sum of Mulliken charges =  -0.00000   5.00000

 Dipole moment (field-independent basis, Debye):
    X=              9.4939    Y=             -0.3905    Z=              0.0304  Tot=              9.5020
 Quadrupole moment (field-independent basis, Debye-Ang):
   XX=           -193.1905   YY=           -168.1785   ZZ=           -164.4749
   XY=             -7.7842   XZ=              8.3966   YZ=             -3.4759

 Normal termination of Gaussian 16 at Sun Jun 20 21:04:41 2021.
