 Gaussian 16, Revision A.03,

 -----------------------------------------------------------
 #p opt=modredundant freq=noraman ub3lyp jul-cc-pvdz pop=cm5
 -----------------------------------------------------------

 -----
 title
 -----
 Symbolic Z-matrix:
 Charge =  0 Multiplicity = 6

 SCF Done:  E(UB3LYP) =  -3531.41070638     A.U. after   26 cycles
 SCF Done:  E(UB3LYP) =  -3531.41077431     A.U. after   19 cycles
 SCF Done:  E(UB3LYP) =  -3531.40583034     A.U. after   21 cycles
 SCF Done:  E(UB3LYP) =  -3531.40627134     A.U. after   19 cycles
 SCF Done:  E(UB3LYP) =  -3531.41129008     A.U. after   14 cycles
 SCF Done:  E(UB3LYP) =  -3531.41199455     A.U. after   18 cycles
 SCF Done:  E(UB3LYP) =  -3531.41236521     A.U. after   18 cycles
 SCF Done:  E(UB3LYP) =  -3531.41329705     A.U. after   18 cycles
 SCF Done:  E(UB3LYP) =  -3531.41408500     A.U. after   17 cycles
 SCF Done:  E(UB3LYP) =  -3531.41448237     A.U. after   18 cycles
 SCF Done:  E(UB3LYP) =  -3531.41488259     A.U. after   13 cycles
 SCF Done:  E(UB3LYP) =  -3531.41488597     A.U. after   13 cycles
 SCF Done:  E(UB3LYP) =  -3531.41488656     A.U. after   11 cycles
 SCF Done:  E(UB3LYP) =  -3531.41488694     A.U. after   11 cycles
 SCF Done:  E(UB3LYP) =  -3531.41488701     A.U. after   10 cycles
 SCF Done:  E(UB3LYP) =  -3531.41488707     A.U. after    9 cycles
 SCF Done:  E(UB3LYP) =  -3531.41488710     A.U. after    8 cycles
 Optimization completed.
    -- Stationary point found.
 Normal termination of Gaussian 16 at Sun Jun 20 07:17:45 2021.

 ----------------------------------------------------------------------
 #P Geom=AllCheck Guess=TCheck SCRF=Check GenChk UB3LYP/Jul-CC-pVDZ Fre
 q
 ----------------------------------------------------------------------

 Structure from the checkpoint file:  "checkpoint.chk"
 -----
 title
 -----
 Charge =  0 Multiplicity = 6

 SCF Done:  E(UB3LYP) =  -3531.41488710     A.U. after    2 cycles

  Exact polarizability: 318.233  12.961 299.641  12.854  11.624 301.897
 Approx polarizability: 493.224  43.211 459.083  13.370  16.483 502.464

 ******    2 imaginary frequencies (negative Signs) ******

                      1                      2                      3
                      A                      A                      A
 Frequencies --    -43.7217               -29.0645                21.8316
 Red. masses --      4.6375                 5.7026                 4.9745
 Frc consts  --      0.0052                 0.0028                 0.0014
 IR Inten    --     95.4710                 1.1380                 0.5407

                      4                      5                      6
                      A                      A                      A
 Frequencies --     25.9286                33.8446                47.9323
 Red. masses --      8.1599                 6.5543                 4.8227
 Frc consts  --      0.0032                 0.0044                 0.0065
 IR Inten    --      6.1261                 1.6191                 1.9037

                      7                      8                      9
                      A                      A                      A
 Frequencies --     58.3144                62.9812                71.5549
 Red. masses --      5.4096                 3.2822                 4.2616
 Frc consts  --      0.0108                 0.0077                 0.0129
 IR Inten    --      0.8368                12.8653                17.5652

                     10                     11                     12
                      A                      A                      A
 Frequencies --     82.2407                90.6982                94.1020
 Red. masses --      7.3585                 8.1593                 4.8262
 Frc consts  --      0.0293                 0.0395                 0.0252
 IR Inten    --      1.8086                 0.3434                 5.2937

                     13                     14                     15
                      A                      A                      A
 Frequencies --    103.9700               108.8690               121.6976
 Red. masses --      9.0835                 4.7110                10.8000
 Frc consts  --      0.0579                 0.0329                 0.0942
 IR Inten    --      4.3321                18.1815                13.4934

                     16                     17                     18
                      A                      A                      A
 Frequencies --    126.0784               147.2963               154.3900
 Red. masses --      9.9629                 4.6823                 2.1263
 Frc consts  --      0.0933                 0.0599                 0.0299
 IR Inten    --      2.7809                 8.4426                 2.3949

                     19                     20                     21
                      A                      A                      A
 Frequencies --    168.8687               184.6134               193.9586
 Red. masses --      1.6246                 1.9063                 2.5287
 Frc consts  --      0.0273                 0.0383                 0.0560
 IR Inten    --      3.8039                 3.6389                 5.5017

                     22                     23                     24
                      A                      A                      A
 Frequencies --    200.3947               209.5116               234.3065
 Red. masses --      2.0764                 2.1089                 3.7899
 Frc consts  --      0.0491                 0.0545                 0.1226
 IR Inten    --      0.8320                 2.9517                61.2330

                     25                     26                     27
                      A                      A                      A
 Frequencies --    237.8354               259.4758               291.5648
 Red. masses --      3.4012                 1.8185                 3.9370
 Frc consts  --      0.1134                 0.0721                 0.1972
 IR Inten    --     10.0836                 3.1469                 4.2088

                     28                     29                     30
                      A                      A                      A
 Frequencies --    317.6894               331.4673               349.0830
 Red. masses --      2.2007                10.4886                 7.1277
 Frc consts  --      0.1309                 0.6790                 0.5117
 IR Inten    --      0.2786                13.3510                10.9138

                     31                     32                     33
                      A                      A                      A
 Frequencies --    358.9954               376.3923               387.6640
 Red. masses --      8.8224                 4.0695                32.3279
 Frc consts  --      0.6699                 0.3397                 2.8625
 IR Inten    --     38.6288                 8.7555                86.5867

                     34                     35                     36
                      A                      A                      A
 Frequencies --    394.7731               401.5495               410.4486
 Red. masses --     23.4976                 2.7151                 2.8599
 Frc consts  --      2.1576                 0.2579                 0.2839
 IR Inten    --     72.8986                14.6505                 0.4964

                     37                     38                     39
                      A                      A                      A
 Frequencies --    427.8518               454.7609               479.6018
 Red. masses --      3.5433                 4.1146                 3.0672
 Frc consts  --      0.3822                 0.5014                 0.4157
 IR Inten    --     31.3352                 1.1398                11.6663

                     40                     41                     42
                      A                      A                      A
 Frequencies --    509.3067               525.4567               560.5983
 Red. masses --      3.0598                 3.0732                 3.0252
 Frc consts  --      0.4676                 0.4999                 0.5602
 IR Inten    --     11.7117                 6.1435                34.6302

                     43                     44                     45
                      A                      A                      A
 Frequencies --    603.0519               624.5579               638.0823
 Red. masses --      4.2865                 5.9164                 4.1396
 Frc consts  --      0.9185                 1.3597                 0.9930
 IR Inten    --     54.8852                24.8396                96.0996

                     46                     47                     48
                      A                      A                      A
 Frequencies --    691.5738               702.7314               755.2865
 Red. masses --      1.6129                 6.2045                 4.6473
 Frc consts  --      0.4545                 1.8053                 1.5620
 IR Inten    --     54.9210                21.0868                 6.3090

                     49                     50                     51
                      A                      A                      A
 Frequencies --    765.7774               792.2663               801.9543
 Red. masses --      2.3525                 2.3919                 1.4332
 Frc consts  --      0.8128                 0.8846                 0.5431
 IR Inten    --     15.4264                14.8362                 5.4644

                     52                     53                     54
                      A                      A                      A
 Frequencies --    818.6102               840.2454               860.8817
 Red. masses --      2.6214                 1.2607                 1.8166
 Frc consts  --      1.0350                 0.5244                 0.7932
 IR Inten    --     22.3588                 1.2577                 3.5043

                     55                     56                     57
                      A                      A                      A
 Frequencies --    866.4245               891.7228               920.6868
 Red. masses --      1.9825                 1.8199                 1.9584
 Frc consts  --      0.8769                 0.8526                 0.9781
 IR Inten    --     44.8812                 4.1490                12.9589

                     58                     59                     60
                      A                      A                      A
 Frequencies --    940.4678               948.0055               962.8659
 Red. masses --      1.4114                 1.2868                 3.3489
 Frc consts  --      0.7355                 0.6814                 1.8293
 IR Inten    --      1.5137                24.1212                27.5127

                     61                     62                     63
                      A                      A                      A
 Frequencies --    985.0324               988.3305               997.8383
 Red. masses --      1.8943                 1.8628                 1.3745
 Frc consts  --      1.0830                 1.0720                 0.8063
 IR Inten    --     16.0718                17.9422                 3.7887

                     64                     65                     66
                      A                      A                      A
 Frequencies --   1002.2476              1003.9295              1008.0941
 Red. masses --      2.2795                 2.0689                 1.8821
 Frc consts  --      1.3491                 1.2286                 1.1270
 IR Inten    --      1.2649                 5.9409                 1.6916

                     67                     68                     69
                      A                      A                      A
 Frequencies --   1036.3964              1046.9424              1068.2563
 Red. masses --      2.7097                 2.4754                 2.3234
 Frc consts  --      1.7148                 1.5986                 1.5621
 IR Inten    --     40.1491                 4.1459                 6.2362

                     70                     71                     72
                      A                      A                      A
 Frequencies --   1081.5493              1095.8782              1112.2842
 Red. masses --      1.7942                 1.8340                 1.5688
 Frc consts  --      1.2366                 1.2977                 1.1436
 IR Inten    --     29.3406                11.6620                10.1778

                     73                     74                     75
                      A                      A                      A
 Frequencies --   1132.5106              1136.6853              1161.6458
 Red. masses --      2.1303                 2.2797                 1.7061
 Frc consts  --      1.6098                 1.7355                 1.3564
 IR Inten    --     11.7851                 7.6736                63.4385

                     76                     77                     78
                      A                      A                      A
 Frequencies --   1170.5671              1176.6981              1196.7336
 Red. masses --      1.5712                 1.0875                 1.5336
 Frc consts  --      1.2685                 0.8872                 1.2941
 IR Inten    --      4.5395                 1.2179                45.3545

                     79                     80                     81
                      A                      A                      A
 Frequencies --   1205.7112              1221.1619              1246.2195
 Red. masses --      1.2686                 2.3153                 2.5711
 Frc consts  --      1.0866                 2.0343                 2.3526
 IR Inten    --     29.6547                98.5277                99.0246

                     82                     83                     84
                      A                      A                      A
 Frequencies --   1255.4705              1285.8021              1304.3122
 Red. masses --      1.9434                 1.1200                 1.8357
 Frc consts  --      1.8048                 1.0910                 1.8400
 IR Inten    --     31.2632                 6.7195               273.9251

                     85                     86                     87
                      A                      A                      A
 Frequencies --   1321.3446              1328.2648              1334.9040
 Red. masses --      1.4303                 1.5153                 1.6866
 Frc consts  --      1.4714                 1.5751                 1.7708
 IR Inten    --     40.9386                62.4948                31.2245

                     88                     89                     90
                      A                      A                      A
 Frequencies --   1360.1408              1362.8185              1365.7385
 Red. masses --      1.6365                 2.8504                 1.4130
 Frc consts  --      1.7838                 3.1191                 1.5529
 IR Inten    --     16.4977                18.8689                44.8332

                     91                     92                     93
                      A                      A                      A
 Frequencies --   1382.9323              1390.9497              1403.7848
 Red. masses --      1.4084                 1.4009                 1.4201
 Frc consts  --      1.5870                 1.5969                 1.6488
 IR Inten    --     35.9173                83.5096                74.1442

                     94                     95                     96
                      A                      A                      A
 Frequencies --   1409.3403              1416.4609              1455.4370
 Red. masses --      1.8187                 1.4659                 1.0815
 Frc consts  --      2.1283                 1.7328                 1.3498
 IR Inten    --    243.3329                 7.9700                 9.8876

                     97                     98                     99
                      A                      A                      A
 Frequencies --   1465.7960              1471.3198              1473.2555
 Red. masses --      1.0733                 1.2130                 1.0485
 Frc consts  --      1.3587                 1.5471                 1.3408
 IR Inten    --      9.3491                 2.2041                 8.3937

                    100                    101                    102
                      A                      A                      A
 Frequencies --   1474.2411              1483.5125              1487.7419
 Red. masses --      1.8151                 1.1297                 1.0544
 Frc consts  --      2.3242                 1.4648                 1.3750
 IR Inten    --     51.0358                37.0871                 1.8566

                    103                    104                    105
                      A                      A                      A
 Frequencies --   1497.5876              1505.5621              1505.8800
 Red. masses --      1.1591                 1.1055                 1.0857
 Frc consts  --      1.5316                 1.4764                 1.4506
 IR Inten    --      7.5004                13.3804                10.4948

                    106                    107                    108
                      A                      A                      A
 Frequencies --   1517.1453              1617.6445              1639.1674
 Red. masses --      1.8846                 5.4742                 5.6226
 Frc consts  --      2.5558                 8.4399                 8.9010
 IR Inten    --      2.6761                 5.4811                45.0745

                    109                    110                    111
                      A                      A                      A
 Frequencies --   1645.6213              1766.5004              3015.1946
 Red. masses --      5.4836                11.4783                 1.0509
 Frc consts  --      8.7494                21.1036                 5.6292
 IR Inten    --    131.7182               231.9134                 1.5657

                    112                    113                    114
                      A                      A                      A
 Frequencies --   3024.7760              3041.8395              3048.0568
 Red. masses --      1.0443                 1.0360                 1.0643
 Frc consts  --      5.6296                 5.6478                 5.8258
 IR Inten    --      5.5777                19.4112                24.6567

                    115                    116                    117
                      A                      A                      A
 Frequencies --   3061.8677              3069.7449              3079.6859
 Red. masses --      1.0591                 1.0649                 1.0855
 Frc consts  --      5.8498                 5.9127                 6.0661
 IR Inten    --     13.8691                28.8971                 0.4810

                    118                    119                    120
                      A                      A                      A
 Frequencies --   3090.5244              3097.9052              3110.2988
 Red. masses --      1.0901                 1.0992                 1.1054
 Frc consts  --      6.1345                 6.2153                 6.3003
 IR Inten    --      3.8525                 3.7310                10.1407

                    121                    122                    123
                      A                      A                      A
 Frequencies --   3113.4859              3118.0532              3125.1046
 Red. masses --      1.0820                 1.1027                 1.0992
 Frc consts  --      6.1797                 6.3162                 6.3250
 IR Inten    --      0.4326                15.6295                16.3256

                    124                    125                    126
                      A                      A                      A
 Frequencies --   3140.7729              3144.3924              3165.2878
 Red. masses --      1.1046                 1.1037                 1.1030
 Frc consts  --      6.4196                 6.4294                 6.5112
 IR Inten    --     13.4776                 4.8833                 3.5399

                    127                    128                    129
                      A                      A                      A
 Frequencies --   3170.8926              3174.0862              3187.1786
 Red. masses --      1.0884                 1.0861                 1.0913
 Frc consts  --      6.4474                 6.4471                 6.5312
 IR Inten    --      9.5678                 0.5761                 6.9979

                    130                    131                    132
                      A                      A                      A
 Frequencies --   3196.6425              3230.5009              3240.7851
 Red. masses --      1.0970                 1.0922                 1.0912
 Frc consts  --      6.6047                 6.7158                 6.7524
 IR Inten    --     13.3228                 1.6713                 1.2642

 - Thermochemistry -
 -------------------
 Temperature   298.150 Kelvin.  Pressure   1.00000 Atm.
 Atom     1 has atomic number  6 and mass  12.00000

 Molecular mass:   434.99839 amu.
 Principal axes and moments of inertia in atomic units:
                           1         2         3
     Eigenvalues --  9110.79152********************
           X            0.99878  -0.04721   0.01416
           Y            0.04676   0.99845   0.03029
           Z           -0.01557  -0.02959   0.99944
 This molecule is an asymmetric top.
 Rotational symmetry number  1.
 Warning -- assumption of classical behavior for rotation
           may cause significant error
 Rotational temperatures (Kelvin)      0.00951     0.00793     0.00685
 Rotational constants (GHZ):           0.19809     0.16531     0.14280
    2 imaginary frequencies ignored.
 Zero-point vibrational energy     943216.9 (Joules/Mol)
                                  225.43426 (Kcal/Mol)
 Warning -- explicit consideration of  41 degrees of freedom as
           vibrations may cause significant error
 Vibrational temperatures:     31.41    37.31    48.69    68.96    83.90
          (Kelvin)             90.62   102.95   118.33   130.49   135.39
                              149.59   156.64   175.10   181.40   211.93
                              222.13   242.96   265.62   279.06   288.32
                              301.44   337.11   342.19   373.33   419.50
                              457.08   476.91   502.25   516.51   541.54
                              557.76   567.99   577.74   590.54   615.58
                              654.30   690.04   732.78   756.02   806.58
                              867.66   898.60   918.06   995.02  1011.07
                             1086.69  1101.78  1139.89  1153.83  1177.80
                             1208.93  1238.62  1246.59  1282.99  1324.66
                             1353.12  1363.97  1385.35  1417.24  1421.99
                             1435.67  1442.01  1444.43  1450.42  1491.14
                             1506.32  1536.98  1556.11  1576.72  1600.33
                             1629.43  1635.44  1671.35  1684.18  1693.01
                             1721.83  1734.75  1756.98  1793.03  1806.34
                             1849.98  1876.61  1901.12  1911.08  1920.63
                             1956.94  1960.79  1964.99  1989.73  2001.27
                             2019.73  2027.73  2037.97  2094.05  2108.95
                             2116.90  2119.69  2121.10  2134.44  2140.53
                             2154.69  2166.17  2166.63  2182.83  2327.43
                             2358.40  2367.68  2541.60  4338.19  4351.98
                             4376.53  4385.47  4405.34  4416.68  4430.98
                             4446.58  4457.19  4475.03  4479.61  4486.18
                             4496.33  4518.87  4524.08  4554.14  4562.21
                             4566.80  4585.64  4599.26  4647.97  4662.77

 Zero-point correction=                           0.359252 (Hartree/Particle)
 Thermal correction to Energy=                    0.385883
 Thermal correction to Enthalpy=                  0.386827
 Thermal correction to Gibbs Free Energy=         0.298421
 Sum of electronic and zero-point Energies=          -3531.055635
 Sum of electronic and thermal Energies=             -3531.029004
 Sum of electronic and thermal Enthalpies=           -3531.028060
 Sum of electronic and thermal Free Energies=        -3531.116466

                     E (Thermal)             CV                S
                      KCal/Mol        Cal/Mol-Kelvin    Cal/Mol-Kelvin
 Total                  242.145             95.723            186.067
 Electronic               0.000              0.000              3.561
 Translational            0.889              2.981             44.100
 Rotational               0.889              2.981             35.484
 Vibrational            240.368             89.761            102.921
 Vibration     1          0.593              1.985              6.460
 Vibration     2          0.593              1.985              6.119
 Vibration     3          0.594              1.983              5.590
 Vibration     4          0.595              1.978              4.901
 Vibration     5          0.596              1.974              4.513
 Vibration     6          0.597              1.972              4.362
 Vibration     7          0.598              1.968              4.110
 Vibration     8          0.600              1.961              3.837
 Vibration     9          0.602              1.956              3.645
 Vibration    10          0.603              1.953              3.573
 Vibration    11          0.605              1.946              3.378
 Vibration    12          0.606              1.942              3.289
 Vibration    13          0.609              1.931              3.073
 Vibration    14          0.611              1.927              3.005
 Vibration    15          0.617              1.906              2.707
 Vibration    16          0.620              1.898              2.617
 Vibration    17          0.625              1.881              2.448
 Vibration    18          0.631              1.861              2.281
 Vibration    19          0.635              1.848              2.190
 Vibration    20          0.638              1.839              2.129
 Vibration    21          0.642              1.826              2.048
 Vibration    22          0.654              1.788              1.846
 Vibration    23          0.656              1.783              1.819
 Vibration    24          0.668              1.747              1.665
 Vibration    25          0.687              1.689              1.465
 Vibration    26          0.704              1.640              1.322
 Vibration    27          0.714              1.613              1.253
 Vibration    28          0.726              1.577              1.170
 Vibration    29          0.734              1.557              1.126
 Vibration    30          0.747              1.520              1.054
 Vibration    31          0.756              1.497              1.009
 Vibration    32          0.762              1.481              0.982
 Vibration    33          0.767              1.467              0.957
 Vibration    34          0.775              1.448              0.925
 Vibration    35          0.789              1.410              0.866
 Vibration    36          0.813              1.350              0.782
 Vibration    37          0.836              1.295              0.711
 Vibration    38          0.864              1.229              0.635
 Vibration    39          0.880              1.194              0.597
 Vibration    40          0.916              1.117              0.523
 Vibration    41          0.961              1.025              0.444

                           ! Non-Optimized Parameters !
 Normal termination of Gaussian 16 at Sun Jun 20 11:11:12 2021.

 ----------------------------------------------------------------------
 #p ub3lyp jul-cc-pvdz pop=cm5 scrf=(pcm,solvent=dichloroethane) guess=
 read geom=allcheck
 ----------------------------------------------------------------------

 Structure from the checkpoint file:  "checkpoint.chk"
 -----
 title
 -----
 Charge =  0 Multiplicity = 6

 SCF Done:  E(UB3LYP) =  -3531.43423906     A.U. after   18 cycles
 Normal termination of Gaussian 16 at Sun Jun 20 11:34:04 2021.
 Gaussian 16:  ES64L-G16RevA.03 25-Dec-2016

 ----------------------------------------------------------------------
 #p ub3lyp jul-cc-pvdz pop=cm5 scrf=(pcm,solvent=water) guess=read geom
 =allcheck
 ----------------------------------------------------------------------

 Structure from the checkpoint file:  "checkpoint.chk"
 -----
 title
 -----
 Charge =  0 Multiplicity = 6

                         Standard orientation:
 ---------------------------------------------------------------------
 Center     Atomic      Atomic             Coordinates (Angstroms)
 Number     Number       Type             X           Y           Z
 ---------------------------------------------------------------------
      1          6           0        3.224641    0.009862    0.524021
      2          6           0        1.887959   -0.395580    0.716383
      3          6           0        1.469633   -0.747862    2.015209
      4          6           0        2.362313   -0.705505    3.085965
      5          6           0        3.687719   -0.312991    2.879504
      6          6           0        4.113616    0.048726    1.595490
      7          6           0        0.881922   -0.423946   -0.386192
      8          6           0        0.994933    0.533198   -1.606350
      9          6           0        1.990087    0.078533   -2.682062
     10          6           0        1.773426   -1.424797   -2.920251
     11          6           0        1.646165   -2.103829   -1.583657
     12          6           0        0.520598   -2.702569   -1.086745
     13          6           0       -0.772783   -2.781953   -1.837544
     14          8           0       -0.306842   -0.813457   -0.068609
     15         26           0       -2.077234   -0.178583    0.417572
     16         17           0       -2.995821    0.642148   -1.420996
     17          6           0        0.580813   -3.500305    0.176378
     18         17           0       -1.872913    1.270668    2.072404
     19         17           0       -3.088871   -2.024792    1.121929
     20          1           0        0.433002   -1.026705    2.185377
     21          1           0        2.016342   -0.969900    4.085697
     22          1           0        4.386082   -0.277885    3.717194
     23          1           0        5.142240    0.370664    1.429648
     24          1           0        3.576338    0.313265   -0.457329
     25          1           0       -0.018827    0.538853   -2.026220
     26          6           0        1.286997    1.970593   -1.145793
     27          1           0        1.828009    0.661428   -3.598897
     28          1           0        3.018732    0.283842   -2.365168
     29          1           0        0.877188   -1.583251   -3.532468
     30          1           0        2.620725   -1.846814   -3.480190
     31          1           0        2.575402   -2.259312   -1.035372
     32          1           0        1.544016   -3.410003    0.690284
     33          1           0       -0.238667   -3.226211    0.853974
     34          1           0        0.427507   -4.560846   -0.084401
     35          1           0       -0.736412   -3.698140   -2.452691
     36          1           0       -1.625125   -2.878156   -1.156576
     37          1           0       -0.948994   -1.938201   -2.510355
     38          8           0        0.174821    2.556234   -0.695356
     39          8           0        2.376249    2.501147   -1.209999
     40          6           0        0.296753    3.932542   -0.221516
     41          6           0       -1.101368    4.490129   -0.057027
     42          1           0        0.850649    3.906829    0.726948
     43          1           0        0.892581    4.492065   -0.953618
     44          1           0       -1.032871    5.523761    0.312314
     45          1           0       -1.635747    4.498520   -1.016781
     46          1           0       -1.679157    3.896080    0.661832
 ---------------------------------------------------------------------

 SCF Done:  E(UB3LYP) =  -3531.43794009     A.U. after   17 cycles

 The electronic state is 6-A.
 Alpha  occ. eigenvalues -- -256.20682-101.52232-101.52221-101.52183 -30.20064
 Alpha  occ. eigenvalues --  -26.05412 -26.05289 -26.05192 -19.20754 -19.17454
 Alpha  occ. eigenvalues --  -19.15726 -10.33646 -10.33164 -10.25027 -10.24969
 Alpha  occ. eigenvalues --  -10.22949 -10.22338 -10.21325 -10.21283 -10.21217
 Alpha  occ. eigenvalues --  -10.20810 -10.20741 -10.20732 -10.20426 -10.20038
 Alpha  occ. eigenvalues --  -10.19510 -10.19489 -10.18541  -9.43954  -9.43938
 Alpha  occ. eigenvalues --   -9.43904  -7.19822  -7.19804  -7.19772  -7.19503
 Alpha  occ. eigenvalues --   -7.19494  -7.19484  -7.19481  -7.19448  -7.19442
 Alpha  occ. eigenvalues --   -3.67753  -2.45321  -2.45075  -2.44899  -1.12645
 Alpha  occ. eigenvalues --   -1.08067  -1.04140  -0.88156  -0.86287  -0.83376
 Alpha  occ. eigenvalues --   -0.80242  -0.79508  -0.79459  -0.78745  -0.78512
 Alpha  occ. eigenvalues --   -0.76771  -0.75076  -0.71611  -0.70686  -0.66841
 Alpha  occ. eigenvalues --   -0.64695  -0.62557  -0.61794  -0.59718  -0.57541
 Alpha  occ. eigenvalues --   -0.56026  -0.54048  -0.53237  -0.51726  -0.50623
 Alpha  occ. eigenvalues --   -0.49990  -0.49348  -0.49080  -0.48189  -0.47949
 Alpha  occ. eigenvalues --   -0.47775  -0.47605  -0.47029  -0.46822  -0.46047
 Alpha  occ. eigenvalues --   -0.45256  -0.44968  -0.43794  -0.43073  -0.42840
 Alpha  occ. eigenvalues --   -0.42415  -0.40929  -0.40449  -0.40305  -0.40040
 Alpha  occ. eigenvalues --   -0.38874  -0.38762  -0.38068  -0.37811  -0.37626
 Alpha  occ. eigenvalues --   -0.37265  -0.37034  -0.36319  -0.36001  -0.35559
 Alpha  occ. eigenvalues --   -0.34617  -0.34181  -0.33906  -0.32258  -0.31969
 Alpha  occ. eigenvalues --   -0.31123  -0.31061  -0.30739  -0.30624  -0.30057
 Alpha  occ. eigenvalues --   -0.29683  -0.29319  -0.28386  -0.27455  -0.25378
 Alpha virt. eigenvalues --   -0.10852  -0.03189  -0.02583  -0.01686  -0.01238
 Alpha virt. eigenvalues --   -0.00138   0.00027   0.00054   0.01226   0.01539
 Alpha virt. eigenvalues --    0.01707   0.01975   0.02498   0.02840   0.03194

  Beta  occ. eigenvalues -- -256.20497-101.52048-101.52041-101.52006 -30.11130
  Beta  occ. eigenvalues --  -25.97876 -25.97864 -25.97812 -19.20754 -19.16953
  Beta  occ. eigenvalues --  -19.15725 -10.33647 -10.33164 -10.24998 -10.24969
  Beta  occ. eigenvalues --  -10.22936 -10.22319 -10.21328 -10.21287 -10.21222
  Beta  occ. eigenvalues --  -10.20806 -10.20739 -10.20667 -10.20421 -10.20040
  Beta  occ. eigenvalues --  -10.19510 -10.19490 -10.18540  -9.43774  -9.43761
  Beta  occ. eigenvalues --   -9.43730  -7.19521  -7.19507  -7.19473  -7.19256
  Beta  occ. eigenvalues --   -7.19245  -7.19244  -7.19236  -7.19214  -7.19209
  Beta  occ. eigenvalues --   -3.46917  -2.23189  -2.23125  -2.23101  -1.12641
  Beta  occ. eigenvalues --   -1.07107  -1.04138  -0.88111  -0.86178  -0.83321
  Beta  occ. eigenvalues --   -0.79080  -0.78753  -0.78461  -0.78224  -0.78194
  Beta  occ. eigenvalues --   -0.76769  -0.75035  -0.71586  -0.70566  -0.66719
  Beta  occ. eigenvalues --   -0.64634  -0.62528  -0.61732  -0.59289  -0.57307
  Beta  occ. eigenvalues --   -0.55569  -0.53981  -0.52448  -0.51654  -0.50367
  Beta  occ. eigenvalues --   -0.49521  -0.48938  -0.48478  -0.47687  -0.47192
  Beta  occ. eigenvalues --   -0.45934  -0.45107  -0.43813  -0.43088  -0.42861
  Beta  occ. eigenvalues --   -0.42362  -0.40902  -0.40438  -0.40309  -0.40049
  Beta  occ. eigenvalues --   -0.38892  -0.38597  -0.38103  -0.37932  -0.37726
  Beta  occ. eigenvalues --   -0.37456  -0.37038  -0.36348  -0.36026  -0.35856
  Beta  occ. eigenvalues --   -0.35831  -0.35523  -0.34309  -0.33302  -0.33007
  Beta  occ. eigenvalues --   -0.32496  -0.32360  -0.32078  -0.31190  -0.30365
  Beta  occ. eigenvalues --   -0.29594  -0.29312  -0.28584  -0.27459  -0.25315
  Beta virt. eigenvalues --   -0.14630  -0.14234  -0.13414  -0.13104  -0.12917
  Beta virt. eigenvalues --   -0.10192  -0.03165  -0.02522  -0.01620  -0.01140
  Beta virt. eigenvalues --   -0.00099   0.00065   0.00084   0.01350   0.01563

 Mulliken charges and spin densities:
               1          2
     1  C    0.280568  -0.001427
     2  C    2.966890  -0.001554
     3  C   -0.552675  -0.012570
     4  C    0.073628   0.005857
     5  C    0.274584  -0.002493
     6  C   -0.097204   0.003059
     7  C   -2.452554  -0.008104
     8  C    0.421503   0.013176
     9  C    0.475615   0.004632
    10  C    0.658859  -0.003666
    11  C    0.423252   0.043085
    12  C   -0.260446   0.014079
    13  C    0.267294   0.000264
    14  O   -0.402552   0.150326
    15  Fe   0.700015   4.058983
    16  Cl  -0.529585   0.239156
    17  C    0.344637  -0.000417
    18  Cl  -0.492226   0.247631
    19  Cl  -0.510301   0.241966
    20  H   -0.260033   0.000881
    21  H   -0.159780  -0.000011
    22  H   -0.152999   0.000055
    23  H   -0.154220   0.000151
    24  H   -0.254355  -0.000117
    25  H   -0.186179  -0.000805
    26  C    0.814345   0.001998
    27  H   -0.133440   0.000310
    28  H   -0.008082  -0.000046
    29  H   -0.082397   0.000091
    30  H   -0.109513   0.001598
    31  H   -0.272877  -0.001515
    32  H    0.004564   0.000095
    33  H    0.072934   0.000391
    34  H   -0.007316   0.001054
    35  H    0.009905   0.000933
    36  H    0.045664   0.001228
    37  H    0.068543  -0.000175
    38  O   -0.656053   0.002495
    39  O   -0.607672   0.000755
    40  C    0.424619   0.000544
    41  C    0.040695  -0.001564
    42  H   -0.034452  -0.000016
    43  H   -0.037542   0.000024
    44  H   -0.008015   0.000050
    45  H    0.026032   0.000073
    46  H    0.028321  -0.000459
 Sum of Mulliken charges =  -0.00000   5.00000

 Dipole moment (field-independent basis, Debye):
    X=             10.7085    Y=             -3.7666    Z=             -3.3088  Tot=             11.8240
 Quadrupole moment (field-independent basis, Debye-Ang):
   XX=           -192.8778   YY=           -162.3735   ZZ=           -167.4022
   XY=            -11.2218   XZ=              8.6450   YZ=              6.7790

 Normal termination of Gaussian 16 at Sun Jun 20 11:55:16 2021.
