 Gaussian 16, Revision A.03,

 -----------------------------------------------------------
 #p opt=modredundant freq=noraman ub3lyp jul-cc-pvdz pop=cm5
 -----------------------------------------------------------

 -----
 title
 -----
 Symbolic Z-matrix:
 Charge =  0 Multiplicity = 6

 SCF Done:  E(UB3LYP) =  -3531.42421414     A.U. after   25 cycles
 SCF Done:  E(UB3LYP) =  -3531.42394210     A.U. after   17 cycles
 SCF Done:  E(UB3LYP) =  -3531.42149203     A.U. after   19 cycles
 SCF Done:  E(UB3LYP) =  -3531.42135314     A.U. after   18 cycles
 SCF Done:  E(UB3LYP) =  -3531.42440893     A.U. after   13 cycles
 SCF Done:  E(UB3LYP) =  -3531.42395049     A.U. after   18 cycles
 SCF Done:  E(UB3LYP) =  -3531.42469656     A.U. after   17 cycles
 SCF Done:  E(UB3LYP) =  -3531.42468430     A.U. after   15 cycles
 SCF Done:  E(UB3LYP) =  -3531.42485871     A.U. after   15 cycles
 SCF Done:  E(UB3LYP) =  -3531.42484913     A.U. after   15 cycles
 SCF Done:  E(UB3LYP) =  -3531.42489950     A.U. after   12 cycles
 SCF Done:  E(UB3LYP) =  -3531.42490079     A.U. after   14 cycles
 SCF Done:  E(UB3LYP) =  -3531.42490143     A.U. after   12 cycles
 SCF Done:  E(UB3LYP) =  -3531.42490188     A.U. after   12 cycles
 SCF Done:  E(UB3LYP) =  -3531.42490220     A.U. after   10 cycles
 SCF Done:  E(UB3LYP) =  -3531.42490226     A.U. after   11 cycles
 SCF Done:  E(UB3LYP) =  -3531.42490228     A.U. after    8 cycles
 Optimization completed.
    -- Stationary point found.
 Normal termination of Gaussian 16 at Sun Jun 20 05:29:50 2021.

 ----------------------------------------------------------------------
 #P Geom=AllCheck Guess=TCheck SCRF=Check GenChk UB3LYP/Jul-CC-pVDZ Fre
 q
 ----------------------------------------------------------------------

 Structure from the checkpoint file:  "checkpoint.chk"
 -----
 title
 -----
 Charge =  0 Multiplicity = 6

 SCF Done:  E(UB3LYP) =  -3531.42490228     A.U. after    1 cycles

  Exact polarizability: 317.778  15.881 304.868  10.835  10.688 294.978
 Approx polarizability: 492.331  41.361 461.610   2.808  17.042 492.604

 ******    2 imaginary frequencies (negative Signs) ******

                      1                      2                      3
                      A                      A                      A
 Frequencies --    -56.0967               -15.9762                17.8702
 Red. masses --      5.9876                 7.4329                 4.9024
 Frc consts  --      0.0111                 0.0011                 0.0009
 IR Inten    --    130.6574                 1.2087                 5.9962

                      4                      5                      6
                      A                      A                      A
 Frequencies --     27.4620                32.9898                53.6576
 Red. masses --      3.7982                 8.1096                 6.6454
 Frc consts  --      0.0017                 0.0052                 0.0113
 IR Inten    --      0.1768                 0.5852                 3.6703

                      7                      8                      9
                      A                      A                      A
 Frequencies --     61.1057                65.4691                73.2660
 Red. masses --      2.8211                 7.4015                 4.6498
 Frc consts  --      0.0062                 0.0187                 0.0147
 IR Inten    --      7.6550                15.7552                 7.7919

                     10                     11                     12
                      A                      A                      A
 Frequencies --     80.8493                89.4755                96.8363
 Red. masses --      4.0056                 6.5919                 1.8753
 Frc consts  --      0.0154                 0.0311                 0.0104
 IR Inten    --      2.5974                 4.3913                 2.5916

                     13                     14                     15
                      A                      A                      A
 Frequencies --     99.5335               105.3975               113.1732
 Red. masses --      3.5065                 4.7193                 7.7054
 Frc consts  --      0.0205                 0.0309                 0.0581
 IR Inten    --      0.6546                 3.4851                32.3929

                     16                     17                     18
                      A                      A                      A
 Frequencies --    120.5076               131.2844               142.3955
 Red. masses --      7.8797                 6.5245                 2.3512
 Frc consts  --      0.0674                 0.0663                 0.0281
 IR Inten    --     14.1036                12.3001                 8.1509

                     19                     20                     21
                      A                      A                      A
 Frequencies --    148.3605               152.7383               156.6690
 Red. masses --      1.9328                 2.8356                 1.9585
 Frc consts  --      0.0251                 0.0390                 0.0283
 IR Inten    --      2.2132                13.9442                 1.3843

                     22                     23                     24
                      A                      A                      A
 Frequencies --    194.0948               206.6958               221.9008
 Red. masses --      3.0670                 3.4494                 3.9810
 Frc consts  --      0.0681                 0.0868                 0.1155
 IR Inten    --      2.2989                17.4260                30.4213

                     25                     26                     27
                      A                      A                      A
 Frequencies --    238.7972               258.7727               292.2337
 Red. masses --      3.4353                 1.7671                 4.0460
 Frc consts  --      0.1154                 0.0697                 0.2036
 IR Inten    --     11.2677                 3.1442                 1.7511

                     28                     29                     30
                      A                      A                      A
 Frequencies --    312.1698               319.6304               345.8940
 Red. masses --      2.4025                 7.9895                18.3071
 Frc consts  --      0.1379                 0.4809                 1.2905
 IR Inten    --      5.3814                 0.3440                50.1355

                     31                     32                     33
                      A                      A                      A
 Frequencies --    356.5896               371.4580               387.0372
 Red. masses --      5.1137                 4.8883                33.2220
 Frc consts  --      0.3831                 0.3974                 2.9321
 IR Inten    --      6.8300                15.3536                89.5783

                     34                     35                     36
                      A                      A                      A
 Frequencies --    394.3325               402.4562               413.5123
 Red. masses --     25.7512                 2.8567                 2.9097
 Frc consts  --      2.3592                 0.2726                 0.2931
 IR Inten    --     75.2469                 4.9442                 0.8323

                     37                     38                     39
                      A                      A                      A
 Frequencies --    433.8584               453.5636               485.2458
 Red. masses --      3.8448                 4.1974                 2.3552
 Frc consts  --      0.4264                 0.5088                 0.3267
 IR Inten    --     36.1432                 3.9523                 8.4581

                     40                     41                     42
                      A                      A                      A
 Frequencies --    505.5187               529.2468               541.0710
 Red. masses --      2.7725                 3.3608                 3.2953
 Frc consts  --      0.4174                 0.5546                 0.5684
 IR Inten    --      2.9609                 1.5495                30.7257

                     43                     44                     45
                      A                      A                      A
 Frequencies --    602.3558               625.6202               641.9636
 Red. masses --      5.0040                 6.1736                 3.9672
 Frc consts  --      1.0697                 1.4237                 0.9633
 IR Inten    --     56.3769                10.1921               123.4603

                     46                     47                     48
                      A                      A                      A
 Frequencies --    699.1786               700.1685               754.6431
 Red. masses --      1.7392                 5.0197                 4.2202
 Frc consts  --      0.5009                 1.4499                 1.4160
 IR Inten    --     41.2677                39.2452                 5.9516

                     49                     50                     51
                      A                      A                      A
 Frequencies --    767.2424               800.4736               812.5531
 Red. masses --      2.3408                 1.5691                 1.9466
 Frc consts  --      0.8119                 0.5924                 0.7572
 IR Inten    --     11.0460                16.7742                16.3816

                     52                     53                     54
                      A                      A                      A
 Frequencies --    822.1410               846.1976               864.9763
 Red. masses --      3.0357                 1.2565                 2.4101
 Frc consts  --      1.2089                 0.5301                 1.0624
 IR Inten    --     10.2499                 2.0862                13.4806

                     55                     56                     57
                      A                      A                      A
 Frequencies --    875.8092               904.7294               926.5669
 Red. masses --      1.6478                 1.7174                 2.0214
 Frc consts  --      0.7447                 0.8283                 1.0225
 IR Inten    --     22.6304                 6.2500                16.1434

                     58                     59                     60
                      A                      A                      A
 Frequencies --    941.2836               955.5385               966.2483
 Red. masses --      1.4240                 1.4167                 2.8790
 Frc consts  --      0.7434                 0.7621                 1.5837
 IR Inten    --      0.2472                 3.3535                13.0104

                     61                     62                     63
                      A                      A                      A
 Frequencies --    986.7122               988.9391              1001.4415
 Red. masses --      1.4542                 2.7108                 1.5033
 Frc consts  --      0.8342                 1.5620                 0.8883
 IR Inten    --      1.4691                56.6338                 8.4652

                     64                     65                     66
                      A                      A                      A
 Frequencies --   1001.9214              1008.0673              1013.0300
 Red. masses --      1.5596                 2.2876                 1.9040
 Frc consts  --      0.9224                 1.3696                 1.1512
 IR Inten    --      8.3530                 2.6943                19.5980

                     67                     68                     69
                      A                      A                      A
 Frequencies --   1038.4152              1047.4291              1068.1792
 Red. masses --      2.7692                 2.3593                 2.2538
 Frc consts  --      1.7594                 1.5250                 1.5152
 IR Inten    --     41.5281                 4.5902                 1.4730

                     70                     71                     72
                      A                      A                      A
 Frequencies --   1079.4581              1095.3672              1110.1629
 Red. masses --      1.8349                 1.7197                 1.5683
 Frc consts  --      1.2597                 1.2157                 1.1388
 IR Inten    --      3.0701                14.2475                10.2655

                     73                     74                     75
                      A                      A                      A
 Frequencies --   1132.9223              1137.7903              1162.8680
 Red. masses --      2.1624                 2.3818                 1.6914
 Frc consts  --      1.6353                 1.8167                 1.3476
 IR Inten    --     12.8493                 5.1679                41.3589

                     76                     77                     78
                      A                      A                      A
 Frequencies --   1170.2386              1175.8130              1197.7476
 Red. masses --      1.5731                 1.0893                 1.5329
 Frc consts  --      1.2693                 0.8873                 1.2957
 IR Inten    --      2.7179                 0.7713                61.6368

                     79                     80                     81
                      A                      A                      A
 Frequencies --   1204.3813              1222.0099              1233.4750
 Red. masses --      1.2594                 3.2044                 2.0048
 Frc consts  --      1.0763                 2.8193                 1.7971
 IR Inten    --     16.4696                77.2445               130.6314

                     82                     83                     84
                      A                      A                      A
 Frequencies --   1261.3128              1284.8917              1305.4173
 Red. masses --      1.8927                 1.1142                 1.7446
 Frc consts  --      1.7741                 1.0838                 1.7516
 IR Inten    --     28.4373                 5.7528               246.9969

                     85                     86                     87
                      A                      A                      A
 Frequencies --   1324.7348              1326.3383              1333.7625
 Red. masses --      1.5197                 1.4558                 1.7023
 Frc consts  --      1.5713                 1.5089                 1.7842
 IR Inten    --     69.6619                23.8191                19.9073

                     88                     89                     90
                      A                      A                      A
 Frequencies --   1360.2873              1365.4826              1368.3972
 Red. masses --      3.2846                 1.4759                 1.3842
 Frc consts  --      3.5809                 1.6213                 1.5271
 IR Inten    --      5.6712                20.9102                63.0430

                     91                     92                     93
                      A                      A                      A
 Frequencies --   1384.8389              1387.4451              1397.8527
 Red. masses --      1.4632                 1.3044                 1.5895
 Frc consts  --      1.6533                 1.4794                 1.8299
 IR Inten    --     46.2590                69.1541               102.5464

                     94                     95                     96
                      A                      A                      A
 Frequencies --   1414.1774              1418.2477              1449.5002
 Red. masses --      1.7371                 1.6594                 1.0658
 Frc consts  --      2.0468                 1.9666                 1.3194
 IR Inten    --    216.6967                84.8869                 8.0785

                     97                     98                     99
                      A                      A                      A
 Frequencies --   1458.1883              1472.8521              1473.1631
 Red. masses --      1.0783                 1.4611                 1.3339
 Frc consts  --      1.3509                 1.8675                 1.7056
 IR Inten    --      3.1549                33.3537                22.9219

                    100                    101                    102
                      A                      A                      A
 Frequencies --   1477.8030              1478.9502              1487.6981
 Red. masses --      1.0757                 1.1496                 1.0547
 Frc consts  --      1.3841                 1.4815                 1.3754
 IR Inten    --     21.1945                30.0555                 4.0772

                    103                    104                    105
                      A                      A                      A
 Frequencies --   1489.6042              1499.1489              1506.7729
 Red. masses --      1.1382                 1.1569                 1.0848
 Frc consts  --      1.4881                 1.5319                 1.4511
 IR Inten    --     22.3573                11.8824                 7.7255

                    106                    107                    108
                      A                      A                      A
 Frequencies --   1516.0268              1618.7348              1637.7862
 Red. masses --      1.9817                 5.5393                 5.0910
 Frc consts  --      2.6836                 8.5517                 8.0457
 IR Inten    --      3.2609                10.8761               135.1166

                    109                    110                    111
                      A                      A                      A
 Frequencies --   1640.2750              1764.5941              3015.7181
 Red. masses --      5.5020                11.6765                 1.0420
 Frc consts  --      8.7217                21.4217                 5.5836
 IR Inten    --     27.4483               231.4933                 3.8026

                    112                    113                    114
                      A                      A                      A
 Frequencies --   3023.6892              3042.0594              3043.8281
 Red. masses --      1.0431                 1.0361                 1.0656
 Frc consts  --      5.6191                 5.6494                 5.8168
 IR Inten    --      6.6644                18.8048                22.2682

                    115                    116                    117
                      A                      A                      A
 Frequencies --   3059.0041              3068.2100              3074.2787
 Red. masses --      1.0595                 1.0637                 1.0826
 Frc consts  --      5.8415                 5.8996                 6.0286
 IR Inten    --     16.2559                21.2579                 2.9518

                    118                    119                    120
                      A                      A                      A
 Frequencies --   3075.0026              3082.6206              3099.9071
 Red. masses --      1.0939                 1.0936                 1.0999
 Frc consts  --      6.0943                 6.1231                 6.2271
 IR Inten    --      8.1936                 5.2937                 5.7795

                    121                    122                    123
                      A                      A                      A
 Frequencies --   3108.1170              3117.7892              3118.3128
 Red. masses --      1.1058                 1.1018                 1.1025
 Frc consts  --      6.2939                 6.3102                 6.3166
 IR Inten    --      9.2338                15.1846                17.3819

                    124                    125                    126
                      A                      A                      A
 Frequencies --   3139.9068              3144.4718              3164.5920
 Red. masses --      1.1042                 1.1010                 1.0971
 Frc consts  --      6.4142                 6.4143                 6.4734
 IR Inten    --     14.4177                 8.3049                 8.2370

                    127                    128                    129
                      A                      A                      A
 Frequencies --   3169.8368              3172.9679              3185.1695
 Red. masses --      1.0875                 1.0858                 1.0908
 Frc consts  --      6.4382                 6.4407                 6.5203
 IR Inten    --     11.7748                 0.4780                 7.0938

                    130                    131                    132
                      A                      A                      A
 Frequencies --   3195.3290              3219.7551              3224.0698
 Red. masses --      1.0966                 1.0924                 1.0924
 Frc consts  --      6.5965                 6.6725                 6.6902
 IR Inten    --     13.8065                 1.6676                 2.2394

 - Thermochemistry -
 -------------------
 Temperature   298.150 Kelvin.  Pressure   1.00000 Atm.
 Atom     1 has atomic number  6 and mass  12.00000

 Molecular mass:   434.99839 amu.
 Principal axes and moments of inertia in atomic units:
                           1         2         3
     Eigenvalues --  9150.23876********************
           X            0.99985   0.00537   0.01665
           Y           -0.00570   0.99979   0.01992
           Z           -0.01654  -0.02001   0.99966
 This molecule is an asymmetric top.
 Rotational symmetry number  1.
 Warning -- assumption of classical behavior for rotation
           may cause significant error
 Rotational temperatures (Kelvin)      0.00947     0.00783     0.00663
 Rotational constants (GHZ):           0.19723     0.16317     0.13820
    2 imaginary frequencies ignored.
 Zero-point vibrational energy     941856.4 (Joules/Mol)
                                  225.10909 (Kcal/Mol)
 Warning -- explicit consideration of  41 degrees of freedom as
           vibrations may cause significant error
 Vibrational temperatures:     25.71    39.51    47.46    77.20    87.92
          (Kelvin)             94.20   105.41   116.32   128.74   139.33
                              143.21   151.64   162.83   173.38   188.89
                              204.88   213.46   219.76   225.41   279.26
                              297.39   319.27   343.58   372.32   420.46
                              449.14   459.88   497.66   513.05   534.45
                              556.86   567.36   579.04   594.95   624.23
                              652.58   698.16   727.33   761.47   778.48
                              866.66   900.13   923.64  1005.96  1007.39
                             1085.76  1103.89  1151.70  1169.08  1182.88
                             1217.49  1244.51  1260.09  1301.70  1333.12
                             1354.30  1374.81  1390.22  1419.66  1422.86
                             1440.85  1441.54  1450.38  1457.52  1494.05
                             1507.02  1536.87  1553.10  1575.99  1597.28
                             1630.02  1637.03  1673.11  1683.71  1691.73
                             1723.29  1732.84  1758.20  1774.70  1814.75
                             1848.67  1878.20  1906.00  1908.30  1918.99
                             1957.15  1964.62  1968.82  1992.47  1996.22
                             2011.20  2034.69  2040.54  2085.51  2098.01
                             2119.11  2119.55  2126.23  2127.88  2140.47
                             2143.21  2156.94  2167.91  2181.22  2329.00
                             2356.41  2359.99  2538.86  4338.95  4350.41
                             4376.84  4379.39  4401.22  4414.47  4423.20
                             4424.24  4435.20  4460.07  4471.89  4485.80
                             4486.56  4517.63  4524.19  4553.14  4560.69
                             4565.19  4582.75  4597.37  4632.51  4638.72

 Zero-point correction=                           0.358734 (Hartree/Particle)
 Thermal correction to Energy=                    0.385628
 Thermal correction to Enthalpy=                  0.386573
 Thermal correction to Gibbs Free Energy=         0.297241
 Sum of electronic and zero-point Energies=          -3531.066168
 Sum of electronic and thermal Energies=             -3531.039274
 Sum of electronic and thermal Enthalpies=           -3531.038330
 Sum of electronic and thermal Free Energies=        -3531.127661

                     E (Thermal)             CV                S
                      KCal/Mol        Cal/Mol-Kelvin    Cal/Mol-Kelvin
 Total                  241.985             95.846            188.014
 Electronic               0.000              0.000              3.561
 Translational            0.889              2.981             44.100
 Rotational               0.889              2.981             35.534
 Vibrational            240.208             89.884            104.819
 Vibration     1          0.593              1.986              6.858
 Vibration     2          0.593              1.984              6.005
 Vibration     3          0.594              1.983              5.641
 Vibration     4          0.596              1.976              4.678
 Vibration     5          0.597              1.973              4.421
 Vibration     6          0.597              1.971              4.285
 Vibration     7          0.599              1.967              4.064
 Vibration     8          0.600              1.962              3.870
 Vibration     9          0.602              1.957              3.672
 Vibration    10          0.603              1.951              3.517
 Vibration    11          0.604              1.949              3.463
 Vibration    12          0.605              1.945              3.352
 Vibration    13          0.607              1.939              3.214
 Vibration    14          0.609              1.932              3.092
 Vibration    15          0.612              1.922              2.927
 Vibration    16          0.616              1.911              2.771
 Vibration    17          0.618              1.904              2.693
 Vibration    18          0.619              1.900              2.638
 Vibration    19          0.620              1.895              2.590
 Vibration    20          0.635              1.848              2.188
 Vibration    21          0.641              1.830              2.073
 Vibration    22          0.648              1.808              1.944
 Vibration    23          0.657              1.781              1.812
 Vibration    24          0.668              1.748              1.670
 Vibration    25          0.688              1.688              1.461
 Vibration    26          0.701              1.650              1.351
 Vibration    27          0.706              1.636              1.312
 Vibration    28          0.724              1.584              1.185
 Vibration    29          0.732              1.562              1.137
 Vibration    30          0.743              1.531              1.074
 Vibration    31          0.755              1.498              1.012
 Vibration    32          0.761              1.482              0.984
 Vibration    33          0.768              1.465              0.954
 Vibration    34          0.777              1.441              0.914
 Vibration    35          0.795              1.396              0.846
 Vibration    36          0.812              1.353              0.785
 Vibration    37          0.841              1.283              0.696
 Vibration    38          0.861              1.238              0.644
 Vibration    39          0.884              1.185              0.589
 Vibration    40          0.896              1.159              0.563
 Vibration    41          0.961              1.027              0.446

                           ! Non-Optimized Parameters !
 Normal termination of Gaussian 16 at Sun Jun 20 09:34:36 2021.

 ----------------------------------------------------------------------
 #p ub3lyp jul-cc-pvdz pop=cm5 scrf=(pcm,solvent=dichloroethane) guess=
 read geom=allcheck
 ----------------------------------------------------------------------

 Structure from the checkpoint file:  "checkpoint.chk"
 -----
 title
 -----
 Charge =  0 Multiplicity = 6

 SCF Done:  E(UB3LYP) =  -3531.44539696     A.U. after   18 cycles
 Normal termination of Gaussian 16 at Sun Jun 20 09:57:37 2021.
 Gaussian 16:  ES64L-G16RevA.03 25-Dec-2016

 ----------------------------------------------------------------------
 #p ub3lyp jul-cc-pvdz pop=cm5 scrf=(pcm,solvent=water) guess=read geom
 =allcheck
 ----------------------------------------------------------------------

 Structure from the checkpoint file:  "checkpoint.chk"
 -----
 title
 -----
 Charge =  0 Multiplicity = 6

                         Standard orientation:
 ---------------------------------------------------------------------
 Center     Atomic      Atomic             Coordinates (Angstroms)
 Number     Number       Type             X           Y           Z
 ---------------------------------------------------------------------
      1          6           0        3.181030   -0.423503    0.404763
      2          6           0        1.808438   -0.536990    0.700302
      3          6           0        1.406367   -0.555970    2.048177
      4          6           0        2.351663   -0.478061    3.072709
      5          6           0        3.711667   -0.379924    2.768004
      6          6           0        4.122173   -0.346996    1.429373
      7          6           0        0.749441   -0.580178   -0.367228
      8          6           0        0.937017    0.257666   -1.677691
      9          6           0        1.676478   -0.487802   -2.790958
     10          6           0        1.152436   -1.924831   -2.762889
     11          6           0        1.227737   -2.384775   -1.328822
     12          6           0        0.267746   -3.082558   -0.638649
     13          6           0       -1.130971   -3.266186   -1.113612
     14          8           0       -0.463783   -0.687314    0.059680
     15         26           0       -2.171624    0.181964    0.351392
     16         17           0       -2.834445    1.000164   -1.596945
     17          6           0        0.569607   -3.656345    0.706609
     18         17           0       -1.883431    1.694566    1.934657
     19         17           0       -3.510560   -1.428524    1.085120
     20          1           0        0.346377   -0.596908    2.287861
     21          1           0        2.020044   -0.483360    4.111662
     22          1           0        4.450680   -0.317583    3.568337
     23          1           0        5.180386   -0.253489    1.182688
     24          1           0        3.524559   -0.378354   -0.626118
     25          1           0       -0.093638    0.455576   -1.999715
     26          6           0        1.575863    1.620004   -1.381868
     27          1           0        1.497046    0.002299   -3.756742
     28          1           0        2.760074   -0.458672   -2.620669
     29          1           0        0.125799   -1.962040   -3.146923
     30          1           0        1.761888   -2.582111   -3.401018
     31          1           0        2.242980   -2.463112   -0.939971
     32          1           0        1.630535   -3.595131    0.970080
     33          1           0       -0.024383   -3.126001    1.469313
     34          1           0        0.247393   -4.708183    0.745868
     35          1           0       -1.290007   -4.338577   -1.318126
     36          1           0       -1.844562   -2.990380   -0.323618
     37          1           0       -1.371441   -2.705049   -2.020221
     38          8           0        0.717484    2.422321   -0.744792
     39          8           0        2.701335    1.932470   -1.711588
     40          6           0        1.191984    3.763579   -0.418526
     41          6           0        0.000991    4.577442    0.041712
     42          1           0        1.958697    3.664138    0.362451
     43          1           0        1.668800    4.182253   -1.313862
     44          1           0        0.340617    5.588140    0.311245
     45          1           0       -0.747154    4.663651   -0.757923
     46          1           0       -0.477349    4.119083    0.916218
 ---------------------------------------------------------------------

 SCF Done:  E(UB3LYP) =  -3531.44924450     A.U. after   17 cycles

 The electronic state is 6-A.
 Alpha  occ. eigenvalues -- -256.20841-101.52352-101.52234-101.52223 -30.20244
 Alpha  occ. eigenvalues --  -26.05604 -26.05462 -26.05358 -19.20662 -19.17503
 Alpha  occ. eigenvalues --  -19.15611 -10.33443 -10.32720 -10.25482 -10.24936
 Alpha  occ. eigenvalues --  -10.22649 -10.22105 -10.21290 -10.21108 -10.20996
 Alpha  occ. eigenvalues --  -10.20925 -10.20693 -10.20589 -10.20168 -10.20138
 Alpha  occ. eigenvalues --  -10.19952 -10.19638 -10.18534  -9.44075  -9.43967
 Alpha  occ. eigenvalues --   -9.43953  -7.19940  -7.19836  -7.19822  -7.19624
 Alpha  occ. eigenvalues --   -7.19617  -7.19513  -7.19506  -7.19496  -7.19490
 Alpha  occ. eigenvalues --   -3.67919  -2.45513  -2.45228  -2.45037  -1.12540
 Alpha  occ. eigenvalues --   -1.07516  -1.04005  -0.88030  -0.86538  -0.83441
 Alpha  occ. eigenvalues --   -0.80323  -0.79597  -0.79517  -0.78847  -0.78256
 Alpha  occ. eigenvalues --   -0.76567  -0.75075  -0.71830  -0.70688  -0.66689
 Alpha  occ. eigenvalues --   -0.64576  -0.62433  -0.61683  -0.59618  -0.57470
 Alpha  occ. eigenvalues --   -0.55990  -0.54427  -0.53129  -0.51580  -0.50435
 Alpha  occ. eigenvalues --   -0.49808  -0.49260  -0.48846  -0.48289  -0.48044
 Alpha  occ. eigenvalues --   -0.47839  -0.47705  -0.47097  -0.46810  -0.46002
 Alpha  occ. eigenvalues --   -0.45286  -0.44820  -0.43768  -0.43371  -0.42692
 Alpha  occ. eigenvalues --   -0.42382  -0.40815  -0.40739  -0.40220  -0.40056
 Alpha  occ. eigenvalues --   -0.39187  -0.38654  -0.37971  -0.37636  -0.37587
 Alpha  occ. eigenvalues --   -0.37352  -0.36896  -0.36222  -0.36003  -0.35704
 Alpha  occ. eigenvalues --   -0.34768  -0.34444  -0.33975  -0.32195  -0.32047
 Alpha  occ. eigenvalues --   -0.31156  -0.31116  -0.30796  -0.30478  -0.30050
 Alpha  occ. eigenvalues --   -0.29740  -0.29232  -0.28358  -0.27302  -0.26064
 Alpha virt. eigenvalues --   -0.11099  -0.03327  -0.02903  -0.01611  -0.01211
 Alpha virt. eigenvalues --   -0.00177  -0.00014   0.00042   0.01458   0.01593
 Alpha virt. eigenvalues --    0.01791   0.01959   0.02513   0.03308   0.03497

  Beta  occ. eigenvalues -- -256.20656-101.52171-101.52049-101.52046 -30.11292
  Beta  occ. eigenvalues --  -25.98044 -25.98027 -25.97968 -19.20662 -19.17000
  Beta  occ. eigenvalues --  -19.15609 -10.33443 -10.32714 -10.25444 -10.24936
  Beta  occ. eigenvalues --  -10.22636 -10.22084 -10.21257 -10.21110 -10.20998
  Beta  occ. eigenvalues --  -10.20928 -10.20690 -10.20588 -10.20167 -10.20138
  Beta  occ. eigenvalues --  -10.19954 -10.19640 -10.18533  -9.43896  -9.43786
  Beta  occ. eigenvalues --   -9.43778  -7.19640  -7.19532  -7.19521  -7.19381
  Beta  occ. eigenvalues --   -7.19372  -7.19267  -7.19263  -7.19255  -7.19255
  Beta  occ. eigenvalues --   -3.47045  -2.23316  -2.23260  -2.23209  -1.12537
  Beta  occ. eigenvalues --   -1.06541  -1.04003  -0.87972  -0.86464  -0.83385
  Beta  occ. eigenvalues --   -0.79154  -0.78845  -0.78341  -0.78268  -0.78155
  Beta  occ. eigenvalues --   -0.76563  -0.75046  -0.71813  -0.70589  -0.66539
  Beta  occ. eigenvalues --   -0.64503  -0.62400  -0.61615  -0.59217  -0.57217
  Beta  occ. eigenvalues --   -0.55540  -0.54346  -0.52261  -0.51526  -0.50202
  Beta  occ. eigenvalues --   -0.49619  -0.48862  -0.48056  -0.47649  -0.47052
  Beta  occ. eigenvalues --   -0.45860  -0.44901  -0.43766  -0.43385  -0.42705
  Beta  occ. eigenvalues --   -0.42347  -0.40836  -0.40705  -0.40207  -0.40070
  Beta  occ. eigenvalues --   -0.39191  -0.38520  -0.38148  -0.37872  -0.37541
  Beta  occ. eigenvalues --   -0.37353  -0.36935  -0.36273  -0.36075  -0.35938
  Beta  occ. eigenvalues --   -0.35841  -0.35705  -0.34586  -0.33310  -0.33145
  Beta  occ. eigenvalues --   -0.32575  -0.32379  -0.32029  -0.31365  -0.30268
  Beta  occ. eigenvalues --   -0.29629  -0.29210  -0.28455  -0.27305  -0.25971
  Beta virt. eigenvalues --   -0.14797  -0.14343  -0.13489  -0.13219  -0.12907
  Beta virt. eigenvalues --   -0.10283  -0.03285  -0.02873  -0.01533  -0.01150
  Beta virt. eigenvalues --   -0.00135   0.00014   0.00073   0.01475   0.01623

 Mulliken charges and spin densities:
               1          2
     1  C    0.087414  -0.001664
     2  C    2.908385   0.009409
     3  C   -0.551538  -0.009969
     4  C    0.038800   0.004820
     5  C    0.263364  -0.001806
     6  C   -0.058093   0.002921
     7  C   -2.447417  -0.006255
     8  C    0.486508   0.007886
     9  C    0.587092   0.001724
    10  C    0.720839  -0.000232
    11  C    0.499789   0.013050
    12  C   -0.229734   0.025333
    13  C    0.165383  -0.000861
    14  O   -0.330285   0.148266
    15  Fe   0.629543   4.065410
    16  Cl  -0.511010   0.240403
    17  C    0.332567  -0.000862
    18  Cl  -0.475222   0.250421
    19  Cl  -0.491205   0.243224
    20  H   -0.236140   0.001391
    21  H   -0.158478   0.000001
    22  H   -0.154991   0.000033
    23  H   -0.156722   0.000154
    24  H   -0.219931  -0.000096
    25  H   -0.190663   0.000159
    26  C    0.784688  -0.001913
    27  H   -0.154378   0.000310
    28  H   -0.022796  -0.000054
    29  H   -0.089184   0.000070
    30  H   -0.122233   0.000915
    31  H   -0.239496  -0.000886
    32  H    0.000811   0.000025
    33  H    0.091783   0.001206
    34  H   -0.012376   0.001110
    35  H    0.014517   0.001122
    36  H    0.084526   0.002256
    37  H    0.021881  -0.000013
    38  O   -0.684122   0.002397
    39  O   -0.628970   0.000923
    40  C    0.426532   0.000912
    41  C    0.043872  -0.001053
    42  H   -0.033457   0.000047
    43  H   -0.035052   0.000024
    44  H   -0.006929   0.000029
    45  H    0.023810   0.000042
    46  H    0.028316  -0.000328
 Sum of Mulliken charges =  -0.00000   5.00000

 Dipole moment (field-independent basis, Debye):
    X=             10.2145    Y=             -6.6439    Z=             -2.0345  Tot=             12.3538
 Quadrupole moment (field-independent basis, Debye-Ang):
   XX=           -197.9005   YY=           -154.1646   ZZ=           -171.2049
   XY=             -3.8284   XZ=             11.4480   YZ=              6.4045

 Normal termination of Gaussian 16 at Sun Jun 20 10:16:36 2021.
