 Gaussian 16, Revision A.03,

 -----------------------------------------------------------
 #p opt=modredundant freq=noraman ub3lyp jul-cc-pvdz pop=cm5
 -----------------------------------------------------------

 -----
 title
 -----
 Symbolic Z-matrix:
 Charge =  0 Multiplicity = 6

 SCF Done:  E(UB3LYP) =  -3531.40537573     A.U. after   24 cycles
 SCF Done:  E(UB3LYP) =  -3531.40542527     A.U. after   15 cycles
 SCF Done:  E(UB3LYP) =  -3531.40525049     A.U. after   18 cycles
 SCF Done:  E(UB3LYP) =  -3531.40586668     A.U. after   15 cycles
 SCF Done:  E(UB3LYP) =  -3531.40593778     A.U. after   15 cycles
 SCF Done:  E(UB3LYP) =  -3531.40597738     A.U. after   14 cycles
 SCF Done:  E(UB3LYP) =  -3531.40598402     A.U. after   14 cycles
 SCF Done:  E(UB3LYP) =  -3531.40599616     A.U. after   13 cycles
 SCF Done:  E(UB3LYP) =  -3531.40599878     A.U. after   12 cycles
 SCF Done:  E(UB3LYP) =  -3531.40600010     A.U. after   11 cycles
 SCF Done:  E(UB3LYP) =  -3531.40600119     A.U. after   12 cycles
 SCF Done:  E(UB3LYP) =  -3531.40600190     A.U. after   14 cycles
 SCF Done:  E(UB3LYP) =  -3531.40600409     A.U. after   13 cycles
 SCF Done:  E(UB3LYP) =  -3531.40600577     A.U. after   14 cycles
 SCF Done:  E(UB3LYP) =  -3531.40600715     A.U. after   11 cycles
 SCF Done:  E(UB3LYP) =  -3531.40600754     A.U. after   11 cycles
 SCF Done:  E(UB3LYP) =  -3531.40600754     A.U. after    9 cycles
 Optimization completed.
    -- Stationary point found.
 Normal termination of Gaussian 16 at Sun Jun 20 04:59:24 2021.

 ----------------------------------------------------------------------
 #P Geom=AllCheck Guess=TCheck SCRF=Check GenChk UB3LYP/Jul-CC-pVDZ Fre
 q
 ----------------------------------------------------------------------

 Structure from the checkpoint file:  "checkpoint.chk"
 -----
 title
 -----
 Charge =  0 Multiplicity = 6

 SCF Done:  E(UB3LYP) =  -3531.40600754     A.U. after    2 cycles

  Exact polarizability: 296.908  -3.981 309.824  23.665  11.679 281.979
 Approx polarizability: 436.133  -9.083 488.151  43.035  18.147 447.082

 ******    1 imaginary frequencies (negative Signs) ******

                      1                      2                      3
                      A                      A                      A
 Frequencies --   -280.1755                23.3156                29.3734
 Red. masses --      6.7085                 8.0297                 4.9152
 Frc consts  --      0.3103                 0.0026                 0.0025
 IR Inten    --    102.9972                 0.2882                 1.7318

                      4                      5                      6
                      A                      A                      A
 Frequencies --     31.9487                50.4639                58.5306
 Red. masses --      6.7048                 5.2841                 4.0846
 Frc consts  --      0.0040                 0.0079                 0.0082
 IR Inten    --      0.3167                 2.6425                 0.6539

                      7                      8                      9
                      A                      A                      A
 Frequencies --     65.1541                68.9136                76.3929
 Red. masses --      3.6353                 3.6485                 5.7111
 Frc consts  --      0.0091                 0.0102                 0.0196
 IR Inten    --      0.2838                 0.8167                 0.9145

                     10                     11                     12
                      A                      A                      A
 Frequencies --     84.1784                93.9150               102.8888
 Red. masses --     10.0026                 7.5679                 7.8913
 Frc consts  --      0.0418                 0.0393                 0.0492
 IR Inten    --      1.0341                 0.6881                 0.9443

                     13                     14                     15
                      A                      A                      A
 Frequencies --    112.2448               118.8595               121.6572
 Red. masses --      9.0620                 3.5589                 4.7874
 Frc consts  --      0.0673                 0.0296                 0.0417
 IR Inten    --      0.6443                 2.4191                13.6637

                     16                     17                     18
                      A                      A                      A
 Frequencies --    130.5091               136.3707               152.1438
 Red. masses --      5.3127                 2.3368                 1.9323
 Frc consts  --      0.0533                 0.0256                 0.0264
 IR Inten    --      3.5804                 1.6151                 3.9596

                     19                     20                     21
                      A                      A                      A
 Frequencies --    160.7500               178.6886               191.9285
 Red. masses --      2.4434                 3.0397                 2.9046
 Frc consts  --      0.0372                 0.0572                 0.0630
 IR Inten    --      2.5915                 1.7992                 1.2196

                     22                     23                     24
                      A                      A                      A
 Frequencies --    214.9447               221.7199               231.9099
 Red. masses --      1.8683                 2.8592                 3.0537
 Frc consts  --      0.0509                 0.0828                 0.0968
 IR Inten    --      5.8215                18.6558                 6.3339

                     25                     26                     27
                      A                      A                      A
 Frequencies --    249.8646               262.1278               287.0503
 Red. masses --      2.2527                 2.0246                 3.7488
 Frc consts  --      0.0829                 0.0820                 0.1820
 IR Inten    --      1.1039                 0.7226                 4.9287

                     28                     29                     30
                      A                      A                      A
 Frequencies --    307.9170               330.5810               343.8969
 Red. masses --      2.9425                15.7516                 4.2020
 Frc consts  --      0.1644                 1.0142                 0.2928
 IR Inten    --      0.7319                38.2888                 6.3820

                     31                     32                     33
                      A                      A                      A
 Frequencies --    361.3785               365.6539               373.6203
 Red. masses --      3.3904                17.8975                 5.1440
 Frc consts  --      0.2609                 1.4099                 0.4231
 IR Inten    --      6.8735                56.6565                35.8731

                     34                     35                     36
                      A                      A                      A
 Frequencies --    387.3024               394.0426               409.5190
 Red. masses --     29.6511                 3.7297                 3.6551
 Frc consts  --      2.6205                 0.3412                 0.3612
 IR Inten    --     92.7934                 6.2300                 2.6983

                     37                     38                     39
                      A                      A                      A
 Frequencies --    412.4044               461.7786               507.5228
 Red. masses --      3.0527                 3.5675                 2.8314
 Frc consts  --      0.3059                 0.4482                 0.4297
 IR Inten    --      2.3102                 2.7702                 1.5954

                     40                     41                     42
                      A                      A                      A
 Frequencies --    545.9493               564.7796               625.9281
 Red. masses --      3.7875                 2.4355                 5.8491
 Frc consts  --      0.6651                 0.4577                 1.3502
 IR Inten    --     24.2927                 2.9250                 2.9301

                     43                     44                     45
                      A                      A                      A
 Frequencies --    637.1484               668.9615               698.4356
 Red. masses --      4.5856                 3.1940                 4.9974
 Frc consts  --      1.0968                 0.8421                 1.4363
 IR Inten    --     20.7263                 7.7229                22.5046

                     46                     47                     48
                      A                      A                      A
 Frequencies --    707.0122               752.9908               774.7747
 Red. masses --      1.5525                 2.6085                 4.5011
 Frc consts  --      0.4572                 0.8714                 1.5919
 IR Inten    --     36.8009                28.4278                 2.0314

                     49                     50                     51
                      A                      A                      A
 Frequencies --    782.2335               792.3280               808.6072
 Red. masses --      3.5044                 3.0459                 1.1641
 Frc consts  --      1.2634                 1.1266                 0.4485
 IR Inten    --     28.7877                 4.8349                 0.1549

                     52                     53                     54
                      A                      A                      A
 Frequencies --    831.9765               843.1800               847.5768
 Red. masses --      1.2605                 1.4663                 1.6614
 Frc consts  --      0.5141                 0.6142                 0.7032
 IR Inten    --      9.2135                 7.5133                 6.0945

                     55                     56                     57
                      A                      A                      A
 Frequencies --    872.3320               907.0759               926.9713
 Red. masses --      2.6264                 2.3989                 1.7697
 Frc consts  --      1.1775                 1.1629                 0.8959
 IR Inten    --     11.8985                 7.3385                 1.7793

                     58                     59                     60
                      A                      A                      A
 Frequencies --    941.0361               952.4106               979.6925
 Red. masses --      2.1316                 3.4217                 1.9924
 Frc consts  --      1.1122                 1.8287                 1.1267
 IR Inten    --      5.5044                 9.6164                50.5930

                     61                     62                     63
                      A                      A                      A
 Frequencies --    981.0895               990.2589              1002.3044
 Red. masses --      1.4304                 1.5373                 1.4422
 Frc consts  --      0.8112                 0.8882                 0.8536
 IR Inten    --      4.5184                 4.1598                 0.9053

                     64                     65                     66
                      A                      A                      A
 Frequencies --   1003.1179              1011.7626              1017.8634
 Red. masses --      3.9174                 2.5058                 2.7522
 Frc consts  --      2.3225                 1.5113                 1.6800
 IR Inten    --      4.6671                18.8579                51.9336

                     67                     68                     69
                      A                      A                      A
 Frequencies --   1036.9814              1045.0999              1049.2910
 Red. masses --      2.9543                 3.2773                 2.5928
 Frc consts  --      1.8718                 2.1090                 1.6820
 IR Inten    --     90.7258                63.3631                13.8765

                     70                     71                     72
                      A                      A                      A
 Frequencies --   1057.0262              1086.7363              1104.0406
 Red. masses --      2.0567                 2.5263                 2.3132
 Frc consts  --      1.3539                 1.7578                 1.6613
 IR Inten    --      0.2569                92.9060                 6.8339

                     73                     74                     75
                      A                      A                      A
 Frequencies --   1118.0936              1133.7264              1160.0852
 Red. masses --      1.7732                 2.1769                 1.7144
 Frc consts  --      1.3061                 1.6486                 1.3594
 IR Inten    --     14.0583                 7.0727                32.1962

                     76                     77                     78
                      A                      A                      A
 Frequencies --   1169.5829              1174.7147              1183.5063
 Red. masses --      1.5542                 1.0941                 1.5851
 Frc consts  --      1.2526                 0.8895                 1.3081
 IR Inten    --      2.7217                 0.3681                 6.3873

                     79                     80                     81
                      A                      A                      A
 Frequencies --   1195.5705              1208.3913              1225.9014
 Red. masses --      1.7940                 1.1418                 2.1595
 Frc consts  --      1.5108                 0.9823                 1.9121
 IR Inten    --     92.2215                 0.5603               161.7326

                     82                     83                     84
                      A                      A                      A
 Frequencies --   1248.6015              1266.2914              1282.6111
 Red. masses --      1.6660                 1.7661                 1.1055
 Frc consts  --      1.5303                 1.6685                 1.0715
 IR Inten    --     67.5627                39.3551                 1.5446

                     85                     86                     87
                      A                      A                      A
 Frequencies --   1291.8200              1304.6588              1314.3560
 Red. masses --      1.5847                 1.7624                 1.4065
 Frc consts  --      1.5581                 1.7674                 1.4316
 IR Inten    --     76.4656                36.9327                12.7067

                     88                     89                     90
                      A                      A                      A
 Frequencies --   1320.4944              1334.6247              1346.0475
 Red. masses --      1.5684                 2.0725                 1.1574
 Frc consts  --      1.6114                 2.1751                 1.2355
 IR Inten    --     50.5243                15.4079                44.1745

                     91                     92                     93
                      A                      A                      A
 Frequencies --   1357.7656              1359.7332              1368.8528
 Red. masses --      1.6036                 1.6338                 1.3425
 Frc consts  --      1.7418                 1.7797                 1.4821
 IR Inten    --     39.5205                28.3537                 7.1149

                     94                     95                     96
                      A                      A                      A
 Frequencies --   1393.9477              1411.9664              1417.6536
 Red. masses --      1.5900                 1.2603                 1.5041
 Frc consts  --      1.8203                 1.4804                 1.7810
 IR Inten    --     64.3780                10.3567                 7.6353

                     97                     98                     99
                      A                      A                      A
 Frequencies --   1428.2240              1444.6208              1467.5381
 Red. masses --      1.2259                 1.1155                 2.2698
 Frc consts  --      1.4733                 1.3715                 2.8802
 IR Inten    --     15.2938                 5.5119                 9.1460

                    100                    101                    102
                      A                      A                      A
 Frequencies --   1474.4152              1485.6289              1488.0739
 Red. masses --      1.0387                 1.1448                 1.3218
 Frc consts  --      1.3304                 1.4887                 1.7245
 IR Inten    --      3.7443                 5.9530                13.5616

                    103                    104                    105
                      A                      A                      A
 Frequencies --   1488.9859              1494.5490              1507.1946
 Red. masses --      1.0542                 1.1143                 1.0922
 Frc consts  --      1.3770                 1.4665                 1.4619
 IR Inten    --      0.7594                11.0470                 5.1004

                    106                    107                    108
                      A                      A                      A
 Frequencies --   1508.0358              1521.3914              1624.3397
 Red. masses --      1.0972                 2.1815                 5.6287
 Frc consts  --      1.4701                 2.9750                 8.7502
 IR Inten    --      5.7709                 4.2306                 0.6491

                    109                    110                    111
                      A                      A                      A
 Frequencies --   1644.9323              1770.5342              2971.8818
 Red. masses --      5.7784                11.6891                 1.0483
 Frc consts  --      9.2120                21.5894                 5.4550
 IR Inten    --      0.1200               220.9138                26.2058

                    112                    113                    114
                      A                      A                      A
 Frequencies --   2980.8645              3031.7039              3038.2666
 Red. masses --      1.0523                 1.0896                 1.0354
 Frc consts  --      5.5090                 5.9007                 5.6315
 IR Inten    --     53.6392                16.5831                21.7927

                    115                    116                    117
                      A                      A                      A
 Frequencies --   3057.9715              3059.6459              3072.5374
 Red. masses --      1.0582                 1.0611                 1.0624
 Frc consts  --      5.8302                 5.8528                 5.9091
 IR Inten    --     15.2941                24.5920                24.5993

                    118                    119                    120
                      A                      A                      A
 Frequencies --   3073.2728              3075.0778              3093.3851
 Red. masses --      1.0790                 1.0841                 1.0998
 Frc consts  --      6.0045                 6.0401                 6.2007
 IR Inten    --     12.8742                 8.8773                 5.0385

                    121                    122                    123
                      A                      A                      A
 Frequencies --   3101.6517              3107.7991              3114.6023
 Red. masses --      1.1067                 1.0908                 1.1024
 Frc consts  --      6.2731                 6.2072                 6.3006
 IR Inten    --      8.7034                 5.7776                19.9369

                    124                    125                    126
                      A                      A                      A
 Frequencies --   3122.6781              3132.3966              3161.0923
 Red. masses --      1.1040                 1.1048                 1.1038
 Frc consts  --      6.3425                 6.3867                 6.4987
 IR Inten    --     21.6797                17.4356                 3.3312

                    127                    128                    129
                      A                      A                      A
 Frequencies --   3165.6293              3175.8684              3178.3305
 Red. masses --      1.0846                 1.0879                 1.0969
 Frc consts  --      6.4040                 6.4651                 6.5287
 IR Inten    --      3.2383                 5.4723                 5.4669

                    130                    131                    132
                      A                      A                      A
 Frequencies --   3184.7095              3195.2209              3206.4391
 Red. masses --      1.0928                 1.0970                 1.0942
 Frc consts  --      6.5303                 6.5989                 6.6279
 IR Inten    --     19.4211                11.1822                 6.0566

 - Thermochemistry -
 -------------------
 Temperature   298.150 Kelvin.  Pressure   1.00000 Atm.
 Atom     1 has atomic number  6 and mass  12.00000

 Molecular mass:   434.99839 amu.
 Principal axes and moments of inertia in atomic units:
                           1         2         3
     Eigenvalues --  9009.30212********************
           X            0.99763   0.06638   0.01795
           Y           -0.06647   0.99778   0.00443
           Z           -0.01762  -0.00562   0.99983
 This molecule is an asymmetric top.
 Rotational symmetry number  1.
 Warning -- assumption of classical behavior for rotation
           may cause significant error
 Rotational temperatures (Kelvin)      0.00961     0.00757     0.00687
 Rotational constants (GHZ):           0.20032     0.15770     0.14307
    1 imaginary frequencies ignored.
 Zero-point vibrational energy     940246.4 (Joules/Mol)
                                  224.72428 (Kcal/Mol)
 Warning -- explicit consideration of  40 degrees of freedom as
           vibrations may cause significant error
 Vibrational temperatures:     33.55    42.26    45.97    72.61    84.21
          (Kelvin)             93.74    99.15   109.91   121.11   135.12
                              148.03   161.50   171.01   175.04   187.77
                              196.21   218.90   231.28   257.09   276.14
                              309.26   319.01   333.67   359.50   377.14
                              413.00   443.02   475.63   494.79   519.94
                              526.09   537.56   557.24   566.94   589.21
                              593.36   664.40   730.21   785.50   812.59
                              900.57   916.71   962.49  1004.89  1017.23
                             1083.39  1114.73  1125.46  1139.98  1163.41
                             1197.03  1213.15  1219.47  1255.09  1305.08
                             1333.70  1353.94  1370.31  1409.56  1411.57
                             1424.76  1442.09  1443.26  1455.70  1464.48
                             1491.98  1503.67  1509.70  1520.82  1563.57
                             1588.47  1608.69  1631.18  1669.10  1682.77
                             1690.15  1702.80  1720.16  1738.61  1763.80
                             1796.46  1821.91  1845.39  1858.64  1877.11
                             1891.07  1899.90  1920.23  1936.66  1953.52
                             1956.35  1969.47  2005.58  2031.50  2039.69
                             2054.90  2078.49  2111.46  2121.35  2137.49
                             2141.01  2142.32  2150.32  2168.52  2169.73
                             2188.94  2337.06  2366.69  2547.40  4275.88
                             4288.80  4361.95  4371.39  4399.74  4402.15
                             4420.70  4421.75  4424.35  4450.69  4462.58
                             4471.43  4481.22  4492.84  4506.82  4548.11
                             4554.63  4569.37  4572.91  4582.09  4597.21
                             4613.35

 Zero-point correction=                           0.358121 (Hartree/Particle)
 Thermal correction to Energy=                    0.385319
 Thermal correction to Enthalpy=                  0.386264
 Thermal correction to Gibbs Free Energy=         0.296588
 Sum of electronic and zero-point Energies=          -3531.047887
 Sum of electronic and thermal Energies=             -3531.020688
 Sum of electronic and thermal Enthalpies=           -3531.019744
 Sum of electronic and thermal Free Energies=        -3531.109420

                     E (Thermal)             CV                S
                      KCal/Mol        Cal/Mol-Kelvin    Cal/Mol-Kelvin
 Total                  241.792             97.145            188.738
 Electronic               0.000              0.000              3.561
 Translational            0.889              2.981             44.100
 Rotational               0.889              2.981             35.518
 Vibrational            240.014             91.183            105.559
 Vibration     1          0.593              1.985              6.330
 Vibration     2          0.593              1.984              5.871
 Vibration     3          0.594              1.983              5.705
 Vibration     4          0.595              1.977              4.799
 Vibration     5          0.596              1.974              4.506
 Vibration     6          0.597              1.971              4.295
 Vibration     7          0.598              1.969              4.184
 Vibration     8          0.599              1.965              3.981
 Vibration     9          0.601              1.960              3.791
 Vibration    10          0.603              1.954              3.577
 Vibration    11          0.605              1.947              3.399
 Vibration    12          0.607              1.939              3.230
 Vibration    13          0.609              1.934              3.119
 Vibration    14          0.609              1.931              3.074
 Vibration    15          0.612              1.923              2.939
 Vibration    16          0.614              1.917              2.854
 Vibration    17          0.619              1.900              2.645
 Vibration    18          0.622              1.890              2.541
 Vibration    19          0.629              1.869              2.342
 Vibration    20          0.634              1.851              2.209
 Vibration    21          0.645              1.818              2.001
 Vibration    22          0.648              1.808              1.945
 Vibration    23          0.653              1.792              1.864
 Vibration    24          0.663              1.763              1.732
 Vibration    25          0.669              1.742              1.648
 Vibration    26          0.684              1.698              1.491
 Vibration    27          0.698              1.659              1.374
 Vibration    28          0.713              1.614              1.257
 Vibration    29          0.723              1.588              1.194
 Vibration    30          0.736              1.552              1.116
 Vibration    31          0.739              1.543              1.098
 Vibration    32          0.745              1.526              1.065
 Vibration    33          0.756              1.497              1.011
 Vibration    34          0.761              1.483              0.985
 Vibration    35          0.774              1.450              0.928
 Vibration    36          0.776              1.443              0.918
 Vibration    37          0.820              1.335              0.761
 Vibration    38          0.863              1.233              0.640
 Vibration    39          0.901              1.149              0.553
 Vibration    40          0.921              1.107              0.514

                           ! Non-Optimized Parameters !
 Normal termination of Gaussian 16 at Sun Jun 20 09:36:05 2021.

 ----------------------------------------------------------------------
 #p ub3lyp jul-cc-pvdz pop=cm5 scrf=(pcm,solvent=dichloroethane) guess=
 read geom=allcheck
 ----------------------------------------------------------------------

 Structure from the checkpoint file:  "checkpoint.chk"
 -----
 title
 -----
 Charge =  0 Multiplicity = 6

 SCF Done:  E(UB3LYP) =  -3531.43388329     A.U. after   19 cycles
 Normal termination of Gaussian 16 at Sun Jun 20 10:06:29 2021.
 Gaussian 16:  ES64L-G16RevA.03 25-Dec-2016

 ----------------------------------------------------------------------
 #p ub3lyp jul-cc-pvdz pop=cm5 scrf=(pcm,solvent=water) guess=read geom
 =allcheck
 ----------------------------------------------------------------------

 Structure from the checkpoint file:  "checkpoint.chk"
 -----
 title
 -----
 Charge =  0 Multiplicity = 6

                         Standard orientation:
 ---------------------------------------------------------------------
 Center     Atomic      Atomic             Coordinates (Angstroms)
 Number     Number       Type             X           Y           Z
 ---------------------------------------------------------------------
      1          6           0        2.179990   -1.761205    1.622291
      2          6           0        1.366961   -0.775673    1.041472
      3          6           0        1.270968    0.469866    1.679534
      4          6           0        1.956231    0.715733    2.871011
      5          6           0        2.756357   -0.275324    3.445435
      6          6           0        2.868595   -1.515526    2.813508
      7          6           0        0.651484   -0.999133   -0.289028
      8          6           0        1.572869   -0.664505   -1.528789
      9          6           0        2.346179   -1.954439   -1.809830
     10          6           0        1.329416   -3.093575   -1.569676
     11          6           0        0.297439   -2.536681   -0.554734
     12          6           0       -1.129324   -2.452728   -1.011107
     13          6           0       -1.530912   -2.178974   -2.398378
     14          8           0       -0.585640   -0.306827   -0.386995
     15         26           0       -1.974531    0.738560    0.343869
     16         17           0       -3.643098    0.416796   -1.135126
     17          6           0       -2.179011   -2.853924   -0.061768
     18         17           0       -1.455962    2.882667    0.533721
     19         17           0       -2.540640   -0.156818    2.307791
     20          1           0        0.658796    1.261174    1.251187
     21          1           0        1.854381    1.688448    3.353950
     22          1           0        3.286433   -0.083590    4.379410
     23          1           0        3.490993   -2.299412    3.247478
     24          1           0        2.294773   -2.739611    1.154806
     25          1           0        0.881697   -0.429707   -2.348764
     26          6           0        2.475795    0.545638   -1.341568
     27          1           0        2.760936   -1.971185   -2.825675
     28          1           0        3.193979   -2.025928   -1.117659
     29          1           0        0.845053   -3.389238   -2.509708
     30          1           0        1.808767   -3.997784   -1.173379
     31          1           0        0.314500   -3.080691    0.394760
     32          1           0       -2.107631   -3.959793   -0.009946
     33          1           0       -1.973942   -2.484539    0.952833
     34          1           0       -3.186610   -2.571628   -0.382602
     35          1           0       -2.055544   -3.074589   -2.779160
     36          1           0       -2.294721   -1.380309   -2.375142
     37          1           0       -0.711087   -1.917180   -3.070043
     38          8           0        1.807692    1.685496   -1.581319
     39          8           0        3.647920    0.488272   -1.033717
     40          6           0        2.550446    2.924985   -1.400450
     41          6           0        1.649512    4.064938   -1.828844
     42          1           0        2.837549    2.995697   -0.342436
     43          1           0        3.469752    2.865103   -1.998290
     44          1           0        2.177132    5.018447   -1.681361
     45          1           0        1.383984    3.978127   -2.891798
     46          1           0        0.725775    4.078307   -1.235845
 ---------------------------------------------------------------------

 SCF Done:  E(UB3LYP) =  -3531.43913290     A.U. after   14 cycles

 The electronic state is 6-A.
 Alpha  occ. eigenvalues -- -256.20063-101.52083-101.51889-101.51889 -30.19459
 Alpha  occ. eigenvalues --  -26.04766 -26.04697 -26.04609 -19.20254 -19.16595
 Alpha  occ. eigenvalues --  -19.15163 -10.33284 -10.32775 -10.29206 -10.24729
 Alpha  occ. eigenvalues --  -10.23108 -10.22166 -10.22157 -10.21734 -10.21359
 Alpha  occ. eigenvalues --  -10.20762 -10.20432 -10.20200 -10.20132 -10.20073
 Alpha  occ. eigenvalues --  -10.20024 -10.19824 -10.18518  -9.43809  -9.43608
 Alpha  occ. eigenvalues --   -9.43596  -7.19667  -7.19479  -7.19466  -7.19362
 Alpha  occ. eigenvalues --   -7.19343  -7.19156  -7.19139  -7.19139  -7.19130
 Alpha  occ. eigenvalues --   -3.67169  -2.44685  -2.44509  -2.44365  -1.12000
 Alpha  occ. eigenvalues --   -1.03544  -1.02816  -0.88880  -0.87269  -0.84565
 Alpha  occ. eigenvalues --   -0.79970  -0.79289  -0.79129  -0.78849  -0.77484
 Alpha  occ. eigenvalues --   -0.76068  -0.75485  -0.74700  -0.71967  -0.66511
 Alpha  occ. eigenvalues --   -0.64117  -0.62042  -0.61114  -0.59630  -0.57057
 Alpha  occ. eigenvalues --   -0.56548  -0.54839  -0.53173  -0.51392  -0.50520
 Alpha  occ. eigenvalues --   -0.50045  -0.49605  -0.48803  -0.47899  -0.47643
 Alpha  occ. eigenvalues --   -0.47410  -0.47319  -0.46823  -0.46749  -0.46306
 Alpha  occ. eigenvalues --   -0.45098  -0.44459  -0.44209  -0.43387  -0.43001
 Alpha  occ. eigenvalues --   -0.42746  -0.41837  -0.41045  -0.40924  -0.40759
 Alpha  occ. eigenvalues --   -0.39889  -0.38743  -0.38021  -0.37442  -0.37389
 Alpha  occ. eigenvalues --   -0.36889  -0.36185  -0.35991  -0.35767  -0.35718
 Alpha  occ. eigenvalues --   -0.34709  -0.34180  -0.33849  -0.32026  -0.31525
 Alpha  occ. eigenvalues --   -0.30910  -0.30805  -0.30608  -0.30437  -0.29888
 Alpha  occ. eigenvalues --   -0.29522  -0.29161  -0.28458  -0.26739  -0.26235
 Alpha virt. eigenvalues --   -0.13416  -0.03172  -0.02815  -0.01504  -0.01283
 Alpha virt. eigenvalues --   -0.00209  -0.00076   0.00097   0.01422   0.01655
 Alpha virt. eigenvalues --    0.01736   0.01823   0.02452   0.03265   0.03830

  Beta  occ. eigenvalues -- -256.19879-101.51913-101.51727-101.51717 -30.10532
  Beta  occ. eigenvalues --  -25.97313 -25.97244 -25.97194 -19.20254 -19.15834
  Beta  occ. eigenvalues --  -19.15159 -10.33292 -10.32775 -10.29178 -10.24729
  Beta  occ. eigenvalues --  -10.23083 -10.22166 -10.22152 -10.21712 -10.21346
  Beta  occ. eigenvalues --  -10.20760 -10.20430 -10.20199 -10.20131 -10.20073
  Beta  occ. eigenvalues --  -10.20026 -10.19821 -10.18516  -9.43642  -9.43439
  Beta  occ. eigenvalues --   -9.43437  -7.19390  -7.19182  -7.19179  -7.19129
  Beta  occ. eigenvalues --   -7.19120  -7.18934  -7.18928  -7.18922  -7.18921
  Beta  occ. eigenvalues --   -3.46359  -2.22691  -2.22600  -2.22482  -1.11998
  Beta  occ. eigenvalues --   -1.03540  -1.01361  -0.88661  -0.87238  -0.84496
  Beta  occ. eigenvalues --   -0.78914  -0.78840  -0.78099  -0.77974  -0.77391
  Beta  occ. eigenvalues --   -0.76054  -0.75455  -0.74692  -0.71783  -0.66415
  Beta  occ. eigenvalues --   -0.64068  -0.62008  -0.61076  -0.59423  -0.57023
  Beta  occ. eigenvalues --   -0.56044  -0.54749  -0.52126  -0.51280  -0.50451
  Beta  occ. eigenvalues --   -0.49864  -0.49184  -0.48082  -0.47654  -0.46894
  Beta  occ. eigenvalues --   -0.46312  -0.44648  -0.44289  -0.43432  -0.43041
  Beta  occ. eigenvalues --   -0.42906  -0.41794  -0.40985  -0.40911  -0.40785
  Beta  occ. eigenvalues --   -0.39884  -0.38655  -0.37872  -0.37629  -0.37384
  Beta  occ. eigenvalues --   -0.36853  -0.36483  -0.36086  -0.35830  -0.35691
  Beta  occ. eigenvalues --   -0.35494  -0.35383  -0.34674  -0.33000  -0.32883
  Beta  occ. eigenvalues --   -0.32440  -0.31930  -0.31832  -0.31511  -0.29841
  Beta  occ. eigenvalues --   -0.29534  -0.29480  -0.28438  -0.26735  -0.26183
  Beta virt. eigenvalues --   -0.14339  -0.13703  -0.13266  -0.12700  -0.12261
  Beta virt. eigenvalues --   -0.11765  -0.03103  -0.02789  -0.01406  -0.01241
  Beta virt. eigenvalues --   -0.00153  -0.00049   0.00125   0.01450   0.01675

 Mulliken charges and spin densities:
               1          2
     1  C   -0.359028   0.003474
     2  C    3.464281  -0.001091
     3  C   -0.468966  -0.010995
     4  C    0.049346   0.002587
     5  C    0.192711   0.000238
     6  C   -0.117478   0.001197
     7  C   -2.891702   0.007871
     8  C    0.484316   0.006884
     9  C    0.562401   0.002250
    10  C    0.604369   0.000563
    11  C    1.108576   0.017358
    12  C   -0.692774  -0.006341
    13  C    0.216461  -0.003949
    14  O   -0.355011   0.253393
    15  Fe   0.657385   4.041880
    16  Cl  -0.553842   0.218518
    17  C    0.424920   0.002613
    18  Cl  -0.488365   0.234963
    19  Cl  -0.520113   0.225459
    20  H   -0.301257   0.000685
    21  H   -0.166024  -0.000027
    22  H   -0.162040   0.000023
    23  H   -0.158745   0.000132
    24  H   -0.214612   0.000007
    25  H   -0.195319   0.000035
    26  C    0.894831   0.004054
    27  H   -0.147625   0.000605
    28  H   -0.056792   0.000027
    29  H   -0.088316   0.000060
    30  H   -0.097147   0.000343
    31  H   -0.188416   0.000364
    32  H    0.071749  -0.001055
    33  H    0.102754  -0.000390
    34  H    0.033136  -0.000515
    35  H    0.080276   0.000493
    36  H    0.124721  -0.000956
    37  H    0.066052   0.000012
    38  O   -0.706182  -0.000825
    39  O   -0.649600   0.001077
    40  C    0.427198  -0.001184
    41  C    0.055695   0.000607
    42  H   -0.040609  -0.000002
    43  H   -0.048735   0.000007
    44  H   -0.005619   0.000047
    45  H    0.021656  -0.000017
    46  H    0.031484  -0.000479
 Sum of Mulliken charges =  -0.00000   5.00000

 Dipole moment (field-independent basis, Debye):
    X=              4.7076    Y=            -12.6680    Z=             -6.0099  Tot=             14.7904
 Quadrupole moment (field-independent basis, Debye-Ang):
   XX=           -205.2351   YY=           -142.7840   ZZ=           -168.3196
   XY=             19.0180   XZ=             11.3810   YZ=              9.1806

 Normal termination of Gaussian 16 at Sun Jun 20 10:29:09 2021.
