 Gaussian 16, Revision A.03,

 -----------------------------------------------------------
 #p opt=modredundant freq=noraman ub3lyp jul-cc-pvdz pop=cm5
 -----------------------------------------------------------

 -----
 title
 -----
 Symbolic Z-matrix:
 Charge =  0 Multiplicity = 6

 SCF Done:  E(UB3LYP) =  -3531.41092413     A.U. after   24 cycles
 SCF Done:  E(UB3LYP) =  -3531.41089154     A.U. after   17 cycles
 SCF Done:  E(UB3LYP) =  -3531.40944367     A.U. after   17 cycles
 SCF Done:  E(UB3LYP) =  -3531.40903014     A.U. after   15 cycles
 SCF Done:  E(UB3LYP) =  -3531.41108448     A.U. after   11 cycles
 SCF Done:  E(UB3LYP) =  -3531.41076729     A.U. after   16 cycles
 SCF Done:  E(UB3LYP) =  -3531.41129893     A.U. after   16 cycles
 SCF Done:  E(UB3LYP) =  -3531.41148406     A.U. after   14 cycles
 SCF Done:  E(UB3LYP) =  -3531.41149622     A.U. after   14 cycles
 SCF Done:  E(UB3LYP) =  -3531.41150783     A.U. after   13 cycles
 SCF Done:  E(UB3LYP) =  -3531.41151857     A.U. after   12 cycles
 SCF Done:  E(UB3LYP) =  -3531.41151864     A.U. after   10 cycles
 SCF Done:  E(UB3LYP) =  -3531.41151879     A.U. after    9 cycles
 SCF Done:  E(UB3LYP) =  -3531.41151886     A.U. after    9 cycles
 SCF Done:  E(UB3LYP) =  -3531.41151899     A.U. after    9 cycles
 SCF Done:  E(UB3LYP) =  -3531.41151907     A.U. after    9 cycles
 SCF Done:  E(UB3LYP) =  -3531.41151917     A.U. after    9 cycles
 Optimization completed.
    -- Stationary point found.
 Normal termination of Gaussian 16 at Sun Jun 20 03:44:26 2021.

 ----------------------------------------------------------------------
 #P Geom=AllCheck Guess=TCheck SCRF=Check GenChk UB3LYP/Jul-CC-pVDZ Fre
 q
 ----------------------------------------------------------------------

 Structure from the checkpoint file:  "checkpoint.chk"
 -----
 title
 -----
 Charge =  0 Multiplicity = 6

 SCF Done:  E(UB3LYP) =  -3531.41151917     A.U. after    1 cycles

  Exact polarizability: 287.584   1.221 305.127  23.354   8.478 284.451
 Approx polarizability: 421.720  -0.007 483.113  43.316  11.861 449.551

 ******    1 imaginary frequencies (negative Signs) ******

                      1                      2                      3
                      A                      A                      A
 Frequencies --   -301.5631                22.4219                25.2036
 Red. masses --     10.4574                 7.6026                 4.8045
 Frc consts  --      0.5603                 0.0023                 0.0018
 IR Inten    --    219.3804                 0.0809                 0.9101

                      4                      5                      6
                      A                      A                      A
 Frequencies --     33.0033                48.0532                50.1281
 Red. masses --      6.0579                 5.6614                 4.1288
 Frc consts  --      0.0039                 0.0077                 0.0061
 IR Inten    --      0.6374                 1.2894                 1.4545

                      7                      8                      9
                      A                      A                      A
 Frequencies --     63.4119                68.5200                77.9133
 Red. masses --      2.6411                 4.5853                 8.4188
 Frc consts  --      0.0063                 0.0127                 0.0301
 IR Inten    --      0.0356                 1.1981                 0.8858

                     10                     11                     12
                      A                      A                      A
 Frequencies --     83.3437                91.2963               104.2536
 Red. masses --      9.9929                11.5736                 7.1140
 Frc consts  --      0.0409                 0.0568                 0.0456
 IR Inten    --      0.9094                 0.4851                 0.6419

                     13                     14                     15
                      A                      A                      A
 Frequencies --    114.0548               119.4838               123.2082
 Red. masses --     13.5610                 6.1574                 4.8107
 Frc consts  --      0.1039                 0.0518                 0.0430
 IR Inten    --      1.8405                 4.7772                 4.1936

                     16                     17                     18
                      A                      A                      A
 Frequencies --    130.2632               149.1369               168.1173
 Red. masses --      5.4426                 3.8189                 2.4780
 Frc consts  --      0.0544                 0.0500                 0.0413
 IR Inten    --      2.5578                 1.9293                 1.8151

                     19                     20                     21
                      A                      A                      A
 Frequencies --    181.6570               186.0651               199.6183
 Red. masses --      2.5553                 1.4997                 2.6033
 Frc consts  --      0.0497                 0.0306                 0.0611
 IR Inten    --      2.4320                 5.7808                 0.3954

                     22                     23                     24
                      A                      A                      A
 Frequencies --    222.4085               232.0883               238.1925
 Red. masses --      4.6154                 1.4119                 3.0055
 Frc consts  --      0.1345                 0.0448                 0.1005
 IR Inten    --     11.2404                 1.0630                 4.5184

                     25                     26                     27
                      A                      A                      A
 Frequencies --    248.7011               258.3848               288.8548
 Red. masses --      2.0013                 1.8492                 3.4901
 Frc consts  --      0.0729                 0.0727                 0.1716
 IR Inten    --      1.8232                 1.0601                 4.8087

                     28                     29                     30
                      A                      A                      A
 Frequencies --    312.2263               340.1592               344.1453
 Red. masses --      2.8018                 9.0246                 5.0156
 Frc consts  --      0.1609                 0.6152                 0.3500
 IR Inten    --      0.3219                19.5176                16.4024

                     31                     32                     33
                      A                      A                      A
 Frequencies --    351.9929               381.9575               384.0263
 Red. masses --      4.2057                16.7595                 3.5228
 Frc consts  --      0.3070                 1.4406                 0.3061
 IR Inten    --      9.5694                55.5339                20.4283

                     34                     35                     36
                      A                      A                      A
 Frequencies --    391.5631               396.1116               402.8515
 Red. masses --      6.1800                14.2085                 3.7455
 Frc consts  --      0.5583                 1.3135                 0.3581
 IR Inten    --     46.1084                65.8043                12.3352

                     37                     38                     39
                      A                      A                      A
 Frequencies --    410.0536               465.8114               512.1360
 Red. masses --      2.9383                 3.5601                 3.0584
 Frc consts  --      0.2911                 0.4551                 0.4726
 IR Inten    --      0.8804                 3.3176                 4.3745

                     40                     41                     42
                      A                      A                      A
 Frequencies --    524.9842               542.6982               620.4340
 Red. masses --      2.7850                 3.1099                 4.3591
 Frc consts  --      0.4522                 0.5396                 0.9886
 IR Inten    --      6.8306                19.7111                15.9527

                     43                     44                     45
                      A                      A                      A
 Frequencies --    628.9440               659.8681               678.3318
 Red. masses --      5.9823                 3.2574                 4.9739
 Frc consts  --      1.3942                 0.8357                 1.3484
 IR Inten    --      5.1054                 4.0679                19.9740

                     46                     47                     48
                      A                      A                      A
 Frequencies --    706.1779               737.0122               757.5389
 Red. masses --      1.5950                 4.2391                 3.2144
 Frc consts  --      0.4686                 1.3567                 1.0868
 IR Inten    --     41.2397                35.1153                 5.6413

                     49                     50                     51
                      A                      A                      A
 Frequencies --    782.1754               790.3960               806.8902
 Red. masses --      3.3662                 3.1983                 1.1463
 Frc consts  --      1.2134                 1.1772                 0.4397
 IR Inten    --     14.2956                 4.6617                 0.7164

                     52                     53                     54
                      A                      A                      A
 Frequencies --    843.5539               848.3413               869.7073
 Red. masses --      1.2917                 2.2085                 1.7012
 Frc consts  --      0.5415                 0.9365                 0.7581
 IR Inten    --      2.6057                16.7269                 4.8377

                     55                     56                     57
                      A                      A                      A
 Frequencies --    871.8779               874.4181               927.0747
 Red. masses --      3.0873                 1.9898                 1.4931
 Frc consts  --      1.3827                 0.8964                 0.7561
 IR Inten    --     18.5948                 2.6663                 9.2621

                     58                     59                     60
                      A                      A                      A
 Frequencies --    932.5484               943.0476               969.8628
 Red. masses --      2.5009                 2.0793                 2.6285
 Frc consts  --      1.2814                 1.0895                 1.4567
 IR Inten    --      2.6521                40.8188                62.1717

                     61                     62                     63
                      A                      A                      A
 Frequencies --    980.3804               991.8455              1001.1131
 Red. masses --      1.3585                 3.5965                 1.3289
 Frc consts  --      0.7693                 2.0846                 0.7847
 IR Inten    --      0.1240                78.6125                 0.7639

                     64                     65                     66
                      A                      A                      A
 Frequencies --   1004.4578              1005.8934              1016.0999
 Red. masses --      3.9752                 1.5938                 2.4680
 Frc consts  --      2.3631                 0.9501                 1.5013
 IR Inten    --      2.4524                 4.1694                45.3319

                     67                     68                     69
                      A                      A                      A
 Frequencies --   1035.1610              1046.5076              1048.6981
 Red. masses --      2.3796                 2.7989                 2.2171
 Frc consts  --      1.5023                 1.8060                 1.4366
 IR Inten    --     18.6018                41.9934                17.9271

                     70                     71                     72
                      A                      A                      A
 Frequencies --   1058.9292              1084.8217              1104.5609
 Red. masses --      1.9889                 2.0019                 1.9668
 Frc consts  --      1.3140                 1.3881                 1.4138
 IR Inten    --      9.0490                32.3339                 3.9245

                     73                     74                     75
                      A                      A                      A
 Frequencies --   1115.4452              1132.9703              1138.9923
 Red. masses --      1.8462                 2.1737                 1.5618
 Frc consts  --      1.3534                 1.6439                 1.1937
 IR Inten    --      7.5939                 7.3549                17.0104

                     76                     77                     78
                      A                      A                      A
 Frequencies --   1160.9862              1169.7974              1175.0744
 Red. masses --      1.6600                 1.5634                 1.0853
 Frc consts  --      1.3183                 1.2605                 0.8830
 IR Inten    --     35.6790                 1.7881                 0.0756

                     79                     80                     81
                      A                      A                      A
 Frequencies --   1198.4467              1208.5284              1226.4066
 Red. masses --      1.9425                 1.1572                 1.8802
 Frc consts  --      1.6438                 0.9958                 1.6662
 IR Inten    --    125.2551                 7.1262               116.3731

                     82                     83                     84
                      A                      A                      A
 Frequencies --   1249.7808              1257.5878              1283.2468
 Red. masses --      1.8795                 2.1037                 1.1066
 Frc consts  --      1.7297                 1.9602                 1.0736
 IR Inten    --     26.3840                53.3577                 1.4937

                     85                     86                     87
                      A                      A                      A
 Frequencies --   1298.6236              1309.8192              1316.2873
 Red. masses --      1.5708                 2.1840                 1.3453
 Frc consts  --      1.5608                 2.2076                 1.3734
 IR Inten    --     61.4196                 9.5953                 2.2012

                     88                     89                     90
                      A                      A                      A
 Frequencies --   1324.1270              1334.3386              1359.0497
 Red. masses --      1.6887                 2.0399                 2.2377
 Frc consts  --      1.7444                 2.1399                 2.4352
 IR Inten    --     43.5790                23.8879                 0.0436

                     91                     92                     93
                      A                      A                      A
 Frequencies --   1365.9684              1374.4918              1390.5439
 Red. masses --      1.3677                 1.3027                 1.3449
 Frc consts  --      1.5036                 1.4500                 1.5322
 IR Inten    --     20.0114                29.3544                93.6630

                     94                     95                     96
                      A                      A                      A
 Frequencies --   1391.5923              1406.3412              1416.7247
 Red. masses --      1.3971                 1.4308                 1.5022
 Frc consts  --      1.5941                 1.6673                 1.7764
 IR Inten    --      8.7794                22.2430                 5.7695

                     97                     98                     99
                      A                      A                      A
 Frequencies --   1439.7949              1461.2669              1467.8580
 Red. masses --      1.1396                 1.1606                 2.1044
 Frc consts  --      1.3918                 1.4602                 2.6715
 IR Inten    --      1.2419                 1.5816                 7.3117

                    100                    101                    102
                      A                      A                      A
 Frequencies --   1473.7478              1475.8049              1487.2251
 Red. masses --      1.0391                 1.1639                 1.0836
 Frc consts  --      1.3297                 1.4935                 1.4121
 IR Inten    --      3.7431                 1.9049                 4.6364

                    103                    104                    105
                      A                      A                      A
 Frequencies --   1488.3380              1498.6494              1507.3808
 Red. masses --      1.0530                 1.0974                 1.0839
 Frc consts  --      1.3743                 1.4521                 1.4510
 IR Inten    --      0.7524                13.5838                 6.0253

                    106                    107                    108
                      A                      A                      A
 Frequencies --   1510.8045              1523.1534              1624.5280
 Red. masses --      1.0897                 2.2295                 5.6222
 Frc consts  --      1.4655                 3.0475                 8.7420
 IR Inten    --      2.9730                 3.6201                 0.6367

                    109                    110                    111
                      A                      A                      A
 Frequencies --   1646.8073              1772.1336              2996.1239
 Red. masses --      5.7770                11.6208                 1.0522
 Frc consts  --      9.2308                21.5019                 5.5650
 IR Inten    --      0.0734               212.2630                 2.5736

                    112                    113                    114
                      A                      A                      A
 Frequencies --   3009.6590              3039.5160              3058.8374
 Red. masses --      1.0517                 1.0356                 1.0584
 Frc consts  --      5.6127                 5.6370                 5.8347
 IR Inten    --      7.5564                21.2843                13.3319

                    115                    116                    117
                      A                      A                      A
 Frequencies --   3060.1758              3066.6815              3077.9367
 Red. masses --      1.0602                 1.0619                 1.0849
 Frc consts  --      5.8496                 5.8841                 6.0558
 IR Inten    --     19.3118                28.7337                 8.3066

                    118                    119                    120
                      A                      A                      A
 Frequencies --   3095.9979              3102.9316              3107.2150
 Red. masses --      1.1035                 1.1064                 1.0789
 Frc consts  --      6.2321                 6.2762                 6.1371
 IR Inten    --      9.2587                 8.0141                 2.4911

                    121                    122                    123
                      A                      A                      A
 Frequencies --   3110.9698              3115.2296              3116.6552
 Red. masses --      1.0805                 1.1025                 1.1028
 Frc consts  --      6.1614                 6.3041                 6.3115
 IR Inten    --      3.2034                18.7815                17.1091

                    124                    125                    126
                      A                      A                      A
 Frequencies --   3127.0638              3134.1935              3165.9038
 Red. masses --      1.0891                 1.1044                 1.1061
 Frc consts  --      6.2748                 6.3917                 6.5320
 IR Inten    --     13.7341                19.9139                 0.8878

                    127                    128                    129
                      A                      A                      A
 Frequencies --   3168.6704              3168.8000              3178.6164
 Red. masses --      1.0848                 1.1045                 1.0880
 Frc consts  --      6.4171                 6.5347                 6.4768
 IR Inten    --      0.6580                 4.0196                 6.1150

                    130                    131                    132
                      A                      A                      A
 Frequencies --   3187.2567              3194.9499              3200.9472
 Red. masses --      1.0921                 1.0951                 1.0972
 Frc consts  --      6.5367                 6.5861                 6.6236
 IR Inten    --     19.2652                 5.6993                 9.0306

 - Thermochemistry -
 -------------------
 Temperature   298.150 Kelvin.  Pressure   1.00000 Atm.
 Atom     1 has atomic number  6 and mass  12.00000

 Molecular mass:   434.99839 amu.
 Principal axes and moments of inertia in atomic units:
                           1         2         3
     Eigenvalues --  9062.93830********************
           X            0.99658   0.08125   0.01529
           Y           -0.08145   0.99659   0.01292
           Z           -0.01419  -0.01412   0.99980
 This molecule is an asymmetric top.
 Rotational symmetry number  1.
 Warning -- assumption of classical behavior for rotation
           may cause significant error
 Rotational temperatures (Kelvin)      0.00956     0.00752     0.00684
 Rotational constants (GHZ):           0.19913     0.15664     0.14261
    1 imaginary frequencies ignored.
 Zero-point vibrational energy     941354.4 (Joules/Mol)
                                  224.98910 (Kcal/Mol)
 Warning -- explicit consideration of  41 degrees of freedom as
           vibrations may cause significant error
 Vibrational temperatures:     32.26    36.26    47.48    69.14    72.12
          (Kelvin)             91.24    98.59   112.10   119.91   131.35
                              150.00   164.10   171.91   177.27   187.42
                              214.57   241.88   261.36   267.71   287.21
                              320.00   333.92   342.71   357.83   371.76
                              415.60   449.22   489.41   495.15   506.44
                              549.55   552.53   563.37   569.92   579.61
                              589.98   670.20   736.85   755.34   780.82
                              892.67   904.91   949.40   975.97  1016.03
                             1060.40  1089.93  1125.38  1137.20  1160.93
                             1213.69  1220.57  1251.31  1254.44  1258.09
                             1333.85  1341.73  1356.84  1395.42  1410.55
                             1427.04  1440.38  1445.19  1447.26  1461.94
                             1489.37  1505.69  1508.84  1523.56  1560.82
                             1589.22  1604.88  1630.09  1638.76  1670.40
                             1683.08  1690.67  1724.30  1738.80  1764.53
                             1798.16  1809.39  1846.31  1868.43  1884.54
                             1893.84  1905.12  1919.82  1955.37  1965.32
                             1977.59  2000.68  2002.19  2023.41  2038.35
                             2071.54  2102.44  2111.92  2120.39  2123.35
                             2139.79  2141.39  2156.22  2168.78  2173.71
                             2191.48  2337.33  2369.39  2549.70  4310.75
                             4330.23  4373.19  4400.98  4402.91  4412.27
                             4428.46  4454.45  4464.43  4470.59  4475.99
                             4482.12  4484.17  4499.15  4509.41  4555.03
                             4559.01  4559.20  4573.32  4585.75  4596.82
                             4605.45

 Zero-point correction=                           0.358543 (Hartree/Particle)
 Thermal correction to Energy=                    0.385657
 Thermal correction to Enthalpy=                  0.386601
 Thermal correction to Gibbs Free Energy=         0.296980
 Sum of electronic and zero-point Energies=          -3531.052976
 Sum of electronic and thermal Energies=             -3531.025862
 Sum of electronic and thermal Enthalpies=           -3531.024918
 Sum of electronic and thermal Free Energies=        -3531.114540

                     E (Thermal)             CV                S
                      KCal/Mol        Cal/Mol-Kelvin    Cal/Mol-Kelvin
 Total                  242.003             97.234            188.624
 Electronic               0.000              0.000              3.561
 Translational            0.889              2.981             44.100
 Rotational               0.889              2.981             35.534
 Vibrational            240.226             91.272            105.429
 Vibration     1          0.593              1.985              6.407
 Vibration     2          0.593              1.985              6.175
 Vibration     3          0.594              1.983              5.640
 Vibration     4          0.595              1.978              4.896
 Vibration     5          0.595              1.978              4.812
 Vibration     6          0.597              1.972              4.348
 Vibration     7          0.598              1.969              4.195
 Vibration     8          0.599              1.964              3.943
 Vibration     9          0.600              1.961              3.811
 Vibration    10          0.602              1.955              3.632
 Vibration    11          0.605              1.946              3.373
 Vibration    12          0.607              1.938              3.199
 Vibration    13          0.609              1.933              3.109
 Vibration    14          0.610              1.930              3.049
 Vibration    15          0.612              1.923              2.942
 Vibration    16          0.618              1.904              2.683
 Vibration    17          0.625              1.882              2.456
 Vibration    18          0.630              1.865              2.311
 Vibration    19          0.632              1.859              2.267
 Vibration    20          0.638              1.840              2.137
 Vibration    21          0.648              1.807              1.939
 Vibration    22          0.653              1.792              1.863
 Vibration    23          0.656              1.782              1.816
 Vibration    24          0.662              1.765              1.740
 Vibration    25          0.667              1.749              1.673
 Vibration    26          0.685              1.694              1.481
 Vibration    27          0.701              1.650              1.351
 Vibration    28          0.720              1.595              1.211
 Vibration    29          0.723              1.587              1.193
 Vibration    30          0.729              1.571              1.157
 Vibration    31          0.751              1.509              1.031
 Vibration    32          0.753              1.504              1.023
 Vibration    33          0.759              1.488              0.994
 Vibration    34          0.763              1.478              0.977
 Vibration    35          0.768              1.464              0.952
 Vibration    36          0.774              1.448              0.926
 Vibration    37          0.823              1.326              0.749
 Vibration    38          0.867              1.223              0.628
 Vibration    39          0.880              1.195              0.599
 Vibration    40          0.898              1.156              0.560
 Vibration    41          0.980              0.989              0.416

                           ! Non-Optimized Parameters !
 Normal termination of Gaussian 16 at Sun Jun 20 07:20:23 2021.

 ----------------------------------------------------------------------
 #p ub3lyp jul-cc-pvdz pop=cm5 scrf=(pcm,solvent=dichloroethane) guess=
 read geom=allcheck
 ----------------------------------------------------------------------

 Structure from the checkpoint file:  "checkpoint.chk"
 -----
 title
 -----
 Charge =  0 Multiplicity = 6

 SCF Done:  E(UB3LYP) =  -3531.43450785     A.U. after   17 cycles
 Normal termination of Gaussian 16 at Sun Jun 20 07:39:47 2021.
 Gaussian 16:  ES64L-G16RevA.03 25-Dec-2016

 ----------------------------------------------------------------------
 #p ub3lyp jul-cc-pvdz pop=cm5 scrf=(pcm,solvent=water) guess=read geom
 =allcheck
 ----------------------------------------------------------------------

 Structure from the checkpoint file:  "checkpoint.chk"
 -----
 title
 -----
 Charge =  0 Multiplicity = 6

                         Standard orientation:
 ---------------------------------------------------------------------
 Center     Atomic      Atomic             Coordinates (Angstroms)
 Number     Number       Type             X           Y           Z
 ---------------------------------------------------------------------
      1          6           0        1.975444   -1.979623    1.631130
      2          6           0        1.255558   -0.924706    1.050767
      3          6           0        1.192676    0.298140    1.736396
      4          6           0        1.811123    0.451640    2.978346
      5          6           0        2.516678   -0.609041    3.552947
      6          6           0        2.601896   -1.824464    2.870947
      7          6           0        0.623833   -1.060556   -0.318295
      8          6           0        1.546309   -0.646863   -1.515901
      9          6           0        2.224637   -1.949422   -1.967008
     10          6           0        1.117162   -3.024396   -1.938896
     11          6           0        0.196536   -2.642711   -0.770175
     12          6           0       -1.262076   -2.296555   -1.021345
     13          6           0       -1.787865   -2.063722   -2.390759
     14          8           0       -0.701200   -0.470131   -0.430075
     15         26           0       -1.955269    0.835220    0.299854
     16         17           0       -3.707906    0.661667   -1.064223
     17          6           0       -2.238412   -2.717873    0.016877
     18         17           0       -1.138554    2.885149    0.283456
     19         17           0       -2.521318    0.170783    2.333193
     20          1           0        0.664766    1.147418    1.305745
     21          1           0        1.735482    1.407437    3.498303
     22          1           0        2.997444   -0.488452    4.524731
     23          1           0        3.154977   -2.659651    3.302971
     24          1           0        2.066350   -2.937362    1.119275
     25          1           0        0.874161   -0.268991   -2.296929
     26          6           0        2.557041    0.449314   -1.206879
     27          1           0        2.687049   -1.844331   -2.957193
     28          1           0        3.029891   -2.194036   -1.261951
     29          1           0        0.575519   -3.036722   -2.893552
     30          1           0        1.533173   -4.031221   -1.803262
     31          1           0        0.269239   -3.324164    0.081516
     32          1           0       -2.414050   -3.795610   -0.163798
     33          1           0       -1.837675   -2.611108    1.030198
     34          1           0       -3.196458   -2.194598   -0.071615
     35          1           0       -2.057290   -3.055777   -2.797699
     36          1           0       -2.697572   -1.453811   -2.357164
     37          1           0       -1.055555   -1.609610   -3.063742
     38          8           0        2.038802    1.665457   -1.447297
     39          8           0        3.687329    0.251361   -0.813890
     40          6           0        2.901645    2.805100   -1.169179
     41          6           0        2.192496    4.049736   -1.661933
     42          1           0        3.086889    2.832240   -0.086647
     43          1           0        3.862734    2.639670   -1.673765
     44          1           0        2.814439    4.930409   -1.445395
     45          1           0        2.025303    4.003436   -2.747185
     46          1           0        1.222853    4.172441   -1.162442
 ---------------------------------------------------------------------

 SCF Done:  E(UB3LYP) =  -3531.43887857     A.U. after   14 cycles

 The electronic state is 6-A.
 Alpha  occ. eigenvalues -- -256.20912-101.52603-101.52426-101.52329 -30.20296
 Alpha  occ. eigenvalues --  -26.05610 -26.05552 -26.05429 -19.20285 -19.18540
 Alpha  occ. eigenvalues --  -19.15167 -10.32800 -10.31961 -10.29364 -10.24726
 Alpha  occ. eigenvalues --  -10.22838 -10.21826 -10.21508 -10.21195 -10.21125
 Alpha  occ. eigenvalues --  -10.20474 -10.20246 -10.20239 -10.20193 -10.20163
 Alpha  occ. eigenvalues --  -10.20144 -10.19868 -10.18545  -9.44326  -9.44149
 Alpha  occ. eigenvalues --   -9.44057  -7.20190  -7.20020  -7.19930  -7.19878
 Alpha  occ. eigenvalues --   -7.19865  -7.19699  -7.19682  -7.19604  -7.19595
 Alpha  occ. eigenvalues --   -3.67954  -2.45438  -2.45361  -2.45097  -1.12004
 Alpha  occ. eigenvalues --   -1.03562  -1.03209  -0.87608  -0.86714  -0.84103
 Alpha  occ. eigenvalues --   -0.80541  -0.79818  -0.79653  -0.78676  -0.77676
 Alpha  occ. eigenvalues --   -0.76080  -0.74909  -0.73571  -0.71329  -0.66424
 Alpha  occ. eigenvalues --   -0.64001  -0.62073  -0.60987  -0.59406  -0.56878
 Alpha  occ. eigenvalues --   -0.56110  -0.54360  -0.52631  -0.51296  -0.50291
 Alpha  occ. eigenvalues --   -0.49945  -0.49538  -0.48953  -0.48265  -0.48095
 Alpha  occ. eigenvalues --   -0.47807  -0.47487  -0.47169  -0.46418  -0.46084
 Alpha  occ. eigenvalues --   -0.45451  -0.44611  -0.44062  -0.43213  -0.42923
 Alpha  occ. eigenvalues --   -0.42294  -0.41613  -0.40669  -0.40140  -0.39983
 Alpha  occ. eigenvalues --   -0.39629  -0.38842  -0.38174  -0.37647  -0.37248
 Alpha  occ. eigenvalues --   -0.36872  -0.36431  -0.36054  -0.35831  -0.35631
 Alpha  occ. eigenvalues --   -0.34656  -0.34351  -0.33971  -0.32625  -0.31837
 Alpha  occ. eigenvalues --   -0.31273  -0.31214  -0.31028  -0.30788  -0.30147
 Alpha  occ. eigenvalues --   -0.29853  -0.29704  -0.28810  -0.26798  -0.26268
 Alpha virt. eigenvalues --   -0.09917  -0.03387  -0.02910  -0.01484  -0.01284
 Alpha virt. eigenvalues --   -0.00182  -0.00062   0.00109   0.01456   0.01644
 Alpha virt. eigenvalues --    0.01744   0.01841   0.02417   0.03250   0.03818

  Beta  occ. eigenvalues -- -256.20726-101.52418-101.52244-101.52143 -30.11374
  Beta  occ. eigenvalues --  -25.98133 -25.98096 -25.98051 -19.20285 -19.18011
  Beta  occ. eigenvalues --  -19.15165 -10.32800 -10.31958 -10.29334 -10.24726
  Beta  occ. eigenvalues --  -10.22818 -10.21814 -10.21501 -10.21195 -10.21121
  Beta  occ. eigenvalues --  -10.20472 -10.20245 -10.20238 -10.20193 -10.20161
  Beta  occ. eigenvalues --  -10.20143 -10.19866 -10.18544  -9.44144  -9.43970
  Beta  occ. eigenvalues --   -9.43874  -7.19892  -7.19712  -7.19625  -7.19619
  Beta  occ. eigenvalues --   -7.19614  -7.19455  -7.19444  -7.19351  -7.19349
  Beta  occ. eigenvalues --   -3.47146  -2.23474  -2.23332  -2.23299  -1.12002
  Beta  occ. eigenvalues --   -1.03557  -1.02194  -0.87509  -0.86611  -0.84067
  Beta  occ. eigenvalues --   -0.79351  -0.78715  -0.78501  -0.78370  -0.77614
  Beta  occ. eigenvalues --   -0.76071  -0.74883  -0.73558  -0.71162  -0.66357
  Beta  occ. eigenvalues --   -0.63965  -0.62050  -0.60955  -0.59214  -0.56814
  Beta  occ. eigenvalues --   -0.55606  -0.54311  -0.51794  -0.51228  -0.50035
  Beta  occ. eigenvalues --   -0.49761  -0.48882  -0.47904  -0.47354  -0.46424
  Beta  occ. eigenvalues --   -0.46068  -0.44669  -0.44057  -0.43267  -0.42940
  Beta  occ. eigenvalues --   -0.42353  -0.41567  -0.40673  -0.40079  -0.39955
  Beta  occ. eigenvalues --   -0.39615  -0.38443  -0.38135  -0.37820  -0.37236
  Beta  occ. eigenvalues --   -0.36840  -0.36814  -0.36155  -0.36038  -0.35958
  Beta  occ. eigenvalues --   -0.35779  -0.35503  -0.34350  -0.33407  -0.33355
  Beta  occ. eigenvalues --   -0.32800  -0.32470  -0.31909  -0.31546  -0.30613
  Beta  occ. eigenvalues --   -0.29936  -0.29844  -0.28773  -0.26788  -0.26234
  Beta virt. eigenvalues --   -0.14929  -0.14478  -0.13680  -0.13353  -0.12828
  Beta virt. eigenvalues --   -0.09324  -0.03313  -0.02881  -0.01383  -0.01243
  Beta virt. eigenvalues --   -0.00120  -0.00038   0.00134   0.01482   0.01668

 Mulliken charges and spin densities:
               1          2
     1  C   -0.284425   0.005047
     2  C    3.376848  -0.005677
     3  C   -0.384732  -0.012667
     4  C    0.030169  -0.000296
     5  C    0.220431  -0.000502
     6  C   -0.161300   0.001224
     7  C   -2.596649   0.029068
     8  C    0.305422   0.001468
     9  C    0.505425   0.001654
    10  C    0.560422   0.000998
    11  C    0.964379   0.008992
    12  C   -0.814141   0.006093
    13  C    0.403335  -0.004611
    14  O   -0.282342   0.158431
    15  Fe   0.608383   4.051678
    16  Cl  -0.508105   0.248514
    17  C    0.437025   0.001433
    18  Cl  -0.464686   0.255340
    19  Cl  -0.472928   0.247907
    20  H   -0.317953   0.001019
    21  H   -0.162811   0.000003
    22  H   -0.162550   0.000034
    23  H   -0.157766   0.000065
    24  H   -0.206587   0.000029
    25  H   -0.205026   0.000063
    26  C    0.982708   0.003282
    27  H   -0.142530   0.000458
    28  H   -0.050656   0.000024
    29  H   -0.088560  -0.000024
    30  H   -0.113107   0.000493
    31  H   -0.224377   0.000995
    32  H    0.046482  -0.000116
    33  H    0.062459  -0.000664
    34  H    0.038768  -0.000243
    35  H    0.071370   0.002119
    36  H    0.046713  -0.000643
    37  H    0.054187  -0.000199
    38  O   -0.694244  -0.000739
    39  O   -0.653542   0.000814
    40  C    0.419952  -0.001249
    41  C    0.057960   0.000952
    42  H   -0.041521   0.000008
    43  H   -0.048192  -0.000005
    44  H   -0.004463   0.000068
    45  H    0.022184  -0.000013
    46  H    0.028573  -0.000625
 Sum of Mulliken charges =  -0.00000   5.00000

 Dipole moment (field-independent basis, Debye):
    X=              4.1448    Y=            -10.6301    Z=             -5.3157  Tot=             12.5871
 Quadrupole moment (field-independent basis, Debye-Ang):
   XX=           -201.8590   YY=           -148.7322   ZZ=           -167.4395
   XY=             19.5628   XZ=              9.2226   YZ=              7.8133

 Normal termination of Gaussian 16 at Sun Jun 20 07:55:45 2021.
