 Gaussian 16, Revision A.03,

 -----------------------------------------------------------
 #p opt=modredundant freq=noraman ub3lyp jul-cc-pvdz pop=cm5
 -----------------------------------------------------------

 -----
 title
 -----
 Symbolic Z-matrix:
 Charge =  0 Multiplicity = 6

 SCF Done:  E(UB3LYP) =  -3531.40272177     A.U. after   24 cycles
 SCF Done:  E(UB3LYP) =  -3531.40283250     A.U. after   18 cycles
 SCF Done:  E(UB3LYP) =  -3531.40244406     A.U. after   18 cycles
 SCF Done:  E(UB3LYP) =  -3531.40315937     A.U. after   17 cycles
 SCF Done:  E(UB3LYP) =  -3531.40330400     A.U. after   17 cycles
 SCF Done:  E(UB3LYP) =  -3531.40327680     A.U. after   15 cycles
 SCF Done:  E(UB3LYP) =  -3531.40333136     A.U. after   14 cycles
 SCF Done:  E(UB3LYP) =  -3531.40333788     A.U. after   14 cycles
 SCF Done:  E(UB3LYP) =  -3531.40334194     A.U. after   14 cycles
 SCF Done:  E(UB3LYP) =  -3531.40334523     A.U. after   13 cycles
 SCF Done:  E(UB3LYP) =  -3531.40334803     A.U. after   14 cycles
 SCF Done:  E(UB3LYP) =  -3531.40335164     A.U. after   14 cycles
 SCF Done:  E(UB3LYP) =  -3531.40335388     A.U. after   12 cycles
 SCF Done:  E(UB3LYP) =  -3531.40335576     A.U. after   13 cycles
 SCF Done:  E(UB3LYP) =  -3531.40335637     A.U. after   12 cycles
 SCF Done:  E(UB3LYP) =  -3531.40335675     A.U. after   11 cycles
 Optimization completed.
    -- Stationary point found.
 Normal termination of Gaussian 16 at Sun Jun 20 03:16:23 2021.

 ----------------------------------------------------------------------
 #P Geom=AllCheck Guess=TCheck SCRF=Check GenChk UB3LYP/Jul-CC-pVDZ Fre
 q
 ----------------------------------------------------------------------

 Structure from the checkpoint file:  "checkpoint.chk"
 -----
 title
 -----
 Charge =  0 Multiplicity = 6

 SCF Done:  E(UB3LYP) =  -3531.40335675     A.U. after    2 cycles

  Exact polarizability: 291.847  -2.706 311.561  23.086  10.648 280.312
 Approx polarizability: 426.972  -5.625 493.807  41.696  14.825 444.867

 ******    1 imaginary frequencies (negative Signs) ******

                      1                      2                      3
                      A                      A                      A
 Frequencies --   -218.7150                24.4731                28.8630
 Red. masses --      4.9485                 7.1658                 4.9604
 Frc consts  --      0.1395                 0.0025                 0.0024
 IR Inten    --    101.6410                 0.5359                 1.6593

                      4                      5                      6
                      A                      A                      A
 Frequencies --     32.3630                49.1265                60.4237
 Red. masses --      7.9494                 4.8813                 4.0792
 Frc consts  --      0.0049                 0.0069                 0.0088
 IR Inten    --      0.5721                 2.7133                 0.5745

                      7                      8                      9
                      A                      A                      A
 Frequencies --     67.4269                68.8717                76.1726
 Red. masses --      3.3533                 4.3693                 5.3578
 Frc consts  --      0.0090                 0.0122                 0.0183
 IR Inten    --      0.2737                 0.8869                 0.8679

                     10                     11                     12
                      A                      A                      A
 Frequencies --     85.5951                92.6144               103.3573
 Red. masses --      9.4793                 6.1594                 7.4956
 Frc consts  --      0.0409                 0.0311                 0.0472
 IR Inten    --      0.8886                 2.0360                 0.5907

                     13                     14                     15
                      A                      A                      A
 Frequencies --    110.7472               118.1527               120.1193
 Red. masses --      8.6761                 3.3649                 5.9554
 Frc consts  --      0.0627                 0.0277                 0.0506
 IR Inten    --      0.7980                 1.8458                14.3857

                     16                     17                     18
                      A                      A                      A
 Frequencies --    132.4416               139.5631               158.0558
 Red. masses --     10.6829                 2.9986                 2.1341
 Frc consts  --      0.1104                 0.0344                 0.0314
 IR Inten    --      5.8542                 2.3092                12.7597

                     19                     20                     21
                      A                      A                      A
 Frequencies --    158.3440               175.8680               191.9160
 Red. masses --      1.4677                 3.7319                 3.2095
 Frc consts  --      0.0217                 0.0680                 0.0696
 IR Inten    --      5.9853                 1.6990                 2.6074

                     22                     23                     24
                      A                      A                      A
 Frequencies --    217.5505               224.9476               249.4981
 Red. masses --      4.9249                 1.7757                 2.7824
 Frc consts  --      0.1373                 0.0529                 0.1020
 IR Inten    --      2.1799                22.2394                 2.3905

                     25                     26                     27
                      A                      A                      A
 Frequencies --    253.1923               262.9443               287.3258
 Red. masses --      1.8595                 2.0922                 3.2812
 Frc consts  --      0.0702                 0.0852                 0.1596
 IR Inten    --      9.7913                 0.6077                 3.4277

                     28                     29                     30
                      A                      A                      A
 Frequencies --    301.7137               329.6392               343.0835
 Red. masses --      3.0792                13.6854                 4.0026
 Frc consts  --      0.1652                 0.8762                 0.2776
 IR Inten    --      1.2572                34.9046                 8.8179

                     31                     32                     33
                      A                      A                      A
 Frequencies --    365.0691               369.6257               374.7678
 Red. masses --     17.7655                 3.9963                 4.6639
 Frc consts  --      1.3950                 0.3217                 0.3859
 IR Inten    --     62.6299                19.3807                25.1420

                     34                     35                     36
                      A                      A                      A
 Frequencies --    389.0451               396.1727               412.0898
 Red. masses --     29.6640                 3.6410                 3.1005
 Frc consts  --      2.6453                 0.3367                 0.3102
 IR Inten    --     92.5233                 5.4574                 0.5217

                     37                     38                     39
                      A                      A                      A
 Frequencies --    414.3501               461.7136               505.0589
 Red. masses --      3.4076                 3.6334                 2.7736
 Frc consts  --      0.3447                 0.4564                 0.4168
 IR Inten    --      7.8019                 3.2880                 0.7992

                     40                     41                     42
                      A                      A                      A
 Frequencies --    547.7849               582.1626               626.8403
 Red. masses --      3.7504                 2.5560                 6.0576
 Frc consts  --      0.6631                 0.5104                 1.4024
 IR Inten    --     25.7414                 0.8538                 1.7414

                     43                     44                     45
                      A                      A                      A
 Frequencies --    639.4050               677.7362               700.2739
 Red. masses --      4.6465                 3.2443                 5.3361
 Frc consts  --      1.1193                 0.8780                 1.5417
 IR Inten    --     21.5789                 9.8576                24.5798

                     46                     47                     48
                      A                      A                      A
 Frequencies --    707.4001               753.8818               780.2916
 Red. masses --      1.5087                 2.9450                 3.5292
 Frc consts  --      0.4448                 0.9862                 1.2660
 IR Inten    --     41.5316                24.3638                14.8879

                     49                     50                     51
                      A                      A                      A
 Frequencies --    789.6172               802.2593               810.7893
 Red. masses --      3.1629                 2.0211                 1.6244
 Frc consts  --      1.1619                 0.7664                 0.6292
 IR Inten    --      6.3145                12.6303                 4.3074

                     52                     53                     54
                      A                      A                      A
 Frequencies --    838.0264               839.5009               844.9252
 Red. masses --      1.3732                 1.6874                 1.2899
 Frc consts  --      0.5682                 0.7007                 0.5426
 IR Inten    --      2.5209                18.2814                 0.3440

                     55                     56                     57
                      A                      A                      A
 Frequencies --    872.6000               918.1377               923.3168
 Red. masses --      2.6323                 1.6763                 2.3801
 Frc consts  --      1.1809                 0.8326                 1.1955
 IR Inten    --     10.3942                 8.5196                 0.8084

                     58                     59                     60
                      A                      A                      A
 Frequencies --    937.1582               968.4069               980.6272
 Red. masses --      1.9303                 2.0226                 1.3543
 Frc consts  --      0.9988                 1.1176                 0.7673
 IR Inten    --      5.0950                46.4477                 0.8219

                     61                     62                     63
                      A                      A                      A
 Frequencies --    991.2418               998.8235              1003.0107
 Red. masses --      1.5687                 3.6380                 1.6560
 Frc consts  --      0.9082                 2.1384                 0.9815
 IR Inten    --      5.1269                 1.9019                14.1155

                     64                     65                     66
                      A                      A                      A
 Frequencies --   1004.9155              1011.4698              1024.6790
 Red. masses --      3.0083                 2.3797                 4.0982
 Frc consts  --      1.7899                 1.4344                 2.5353
 IR Inten    --      4.0138                57.8536                99.2119

                     67                     68                     69
                      A                      A                      A
 Frequencies --   1038.3393              1042.2805              1053.4406
 Red. masses --      2.9750                 2.4219                 2.2158
 Frc consts  --      1.8898                 1.5501                 1.4487
 IR Inten    --     47.4340                33.1110                14.7501

                     70                     71                     72
                      A                      A                      A
 Frequencies --   1063.2453              1098.1163              1106.6271
 Red. masses --      2.1647                 2.3310                 1.6340
 Frc consts  --      1.4418                 1.6561                 1.1789
 IR Inten    --     48.9759                20.6941                 6.5302

                     73                     74                     75
                      A                      A                      A
 Frequencies --   1133.5952              1154.5748              1168.9758
 Red. masses --      2.1719                 1.8653                 1.5608
 Frc consts  --      1.6444                 1.4650                 1.2566
 IR Inten    --      6.4575                28.8857                 4.0369

                     76                     77                     78
                      A                      A                      A
 Frequencies --   1174.5510              1182.8744              1205.4683
 Red. masses --      1.0935                 2.7318                 1.3321
 Frc consts  --      0.8888                 2.2521                 1.1405
 IR Inten    --      0.0711                25.2505                 4.9912

                     79                     80                     81
                      A                      A                      A
 Frequencies --   1211.2349              1212.0598              1223.1499
 Red. masses --      1.7317                 1.4431                 2.1941
 Frc consts  --      1.4968                 1.2491                 1.9340
 IR Inten    --     66.0835                 8.5059               156.6387

                     82                     83                     84
                      A                      A                      A
 Frequencies --   1263.8396              1269.3240              1282.0774
 Red. masses --      1.6993                 1.6749                 1.1261
 Frc consts  --      1.5992                 1.5900                 1.0906
 IR Inten    --     31.7307                46.3487                 4.9443

                     85                     86                     87
                      A                      A                      A
 Frequencies --   1285.5018              1297.7016              1317.1312
 Red. masses --      1.7253                 1.4278                 1.5061
 Frc consts  --      1.6798                 1.4167                 1.5394
 IR Inten    --     81.1406                11.0628                27.4556

                     88                     89                     90
                      A                      A                      A
 Frequencies --   1331.5995              1338.8749              1346.8130
 Red. masses --      1.7526                 1.5834                 1.2735
 Frc consts  --      1.8310                 1.6723                 1.3610
 IR Inten    --     15.0642                 9.6144                55.2242

                     91                     92                     93
                      A                      A                      A
 Frequencies --   1357.7187              1359.9719              1370.4688
 Red. masses --      1.8586                 1.6374                 1.3603
 Frc consts  --      2.0186                 1.7843                 1.5052
 IR Inten    --     33.0911                28.7642                 4.5971

                     94                     95                     96
                      A                      A                      A
 Frequencies --   1396.7787              1413.4453              1418.5626
 Red. masses --      1.6309                 1.2698                 1.5390
 Frc consts  --      1.8747                 1.4947                 1.8246
 IR Inten    --     55.8730                 9.6897                11.9473

                     97                     98                     99
                      A                      A                      A
 Frequencies --   1428.3848              1443.2803              1469.1255
 Red. masses --      1.1657                 1.0944                 2.2916
 Frc consts  --      1.4013                 1.3432                 2.9141
 IR Inten    --     14.5623                 5.0656                 7.9338

                    100                    101                    102
                      A                      A                      A
 Frequencies --   1474.5160              1485.0525              1488.6732
 Red. masses --      1.0387                 1.1527                 1.0534
 Frc consts  --      1.3306                 1.4978                 1.3754
 IR Inten    --      3.9331                 8.2139                 0.8705

                    103                    104                    105
                      A                      A                      A
 Frequencies --   1489.4352              1492.6442              1506.8083
 Red. masses --      1.2575                 1.1591                 1.1055
 Frc consts  --      1.6436                 1.5215                 1.4788
 IR Inten    --      8.1340                13.0347                 5.5170

                    106                    107                    108
                      A                      A                      A
 Frequencies --   1507.8284              1522.2491              1625.6632
 Red. masses --      1.0922                 2.1803                 5.6939
 Frc consts  --      1.4631                 2.9767                 8.8658
 IR Inten    --      6.4002                 5.3036                 0.8488

                    109                    110                    111
                      A                      A                      A
 Frequencies --   1646.0473              1770.9358              2973.2168
 Red. masses --      5.7792                11.7342                 1.0461
 Frc consts  --      9.2258                21.6825                 5.4484
 IR Inten    --      0.3083               218.2034                20.8534

                    112                    113                    114
                      A                      A                      A
 Frequencies --   2981.9080              3033.3999              3038.3469
 Red. masses --      1.0498                 1.0894                 1.0354
 Frc consts  --      5.4996                 5.9059                 5.6316
 IR Inten    --     51.6284                12.4051                20.5732

                    115                    116                    117
                      A                      A                      A
 Frequencies --   3045.3056              3057.3772              3059.0684
 Red. masses --      1.0869                 1.0581                 1.0619
 Frc consts  --      5.9390                 5.8276                 5.8551
 IR Inten    --     32.6193                16.2114                23.4786

                    118                    119                    120
                      A                      A                      A
 Frequencies --   3073.4024              3077.0319              3083.0155
 Red. masses --      1.0619                 1.0844                 1.0882
 Frc consts  --      5.9100                 6.0491                 6.0942
 IR Inten    --     20.9816                 9.4024                 3.5856

                    121                    122                    123
                      A                      A                      A
 Frequencies --   3100.8248              3100.9447              3114.7027
 Red. masses --      1.1068                 1.1012                 1.1021
 Frc consts  --      6.2698                 6.2387                 6.2995
 IR Inten    --      8.6258                 9.2608                20.0752

                    124                    125                    126
                      A                      A                      A
 Frequencies --   3123.7568              3131.4007              3161.1591
 Red. masses --      1.1045                 1.1048                 1.1007
 Frc consts  --      6.3499                 6.3830                 6.4807
 IR Inten    --     20.3077                19.1108                 4.9971

                    127                    128                    129
                      A                      A                      A
 Frequencies --   3164.1553              3174.7856              3179.5421
 Red. masses --      1.0848                 1.0878                 1.0973
 Frc consts  --      6.3992                 6.4601                 6.5362
 IR Inten    --      4.4251                 4.6690                 5.2841

                    130                    131                    132
                      A                      A                      A
 Frequencies --   3183.8711              3194.9588              3206.9813
 Red. masses --      1.0927                 1.0971                 1.0940
 Frc consts  --      6.5265                 6.5985                 6.6294
 IR Inten    --     18.9505                12.3124                 4.8851

 - Thermochemistry -
 -------------------
 Temperature   298.150 Kelvin.  Pressure   1.00000 Atm.
 Atom     1 has atomic number  6 and mass  12.00000

 Molecular mass:   434.99839 amu.
 Principal axes and moments of inertia in atomic units:
                           1         2         3
     Eigenvalues --  8938.30553********************
           X            0.99740   0.06986   0.01752
           Y           -0.06988   0.99756   0.00030
           Z           -0.01746  -0.00153   0.99985
 This molecule is an asymmetric top.
 Rotational symmetry number  1.
 Warning -- assumption of classical behavior for rotation
           may cause significant error
 Rotational temperatures (Kelvin)      0.00969     0.00756     0.00688
 Rotational constants (GHZ):           0.20191     0.15757     0.14340
    1 imaginary frequencies ignored.
 Zero-point vibrational energy     941794.3 (Joules/Mol)
                                  225.09423 (Kcal/Mol)
 Warning -- explicit consideration of  40 degrees of freedom as
           vibrations may cause significant error
 Vibrational temperatures:     35.21    41.53    46.56    70.68    86.94
          (Kelvin)             97.01    99.09   109.60   123.15   133.25
                              148.71   159.34   170.00   172.82   190.55
                              200.80   227.41   227.82   253.03   276.12
                              313.01   323.65   358.97   364.29   378.32
                              413.40   434.10   474.28   493.62   525.25
                              531.81   539.21   559.75   570.00   592.91
                              596.16   664.30   726.67   788.14   837.60
                              901.88   919.96   975.11  1007.54  1017.79
                             1084.67  1122.67  1136.08  1154.27  1166.54
                             1205.73  1207.85  1215.66  1255.48  1321.00
                             1328.45  1348.36  1393.32  1410.90  1426.18
                             1437.08  1443.11  1445.85  1455.28  1474.28
                             1493.94  1499.61  1515.67  1529.77  1579.94
                             1592.19  1630.99  1661.18  1681.90  1689.92
                             1701.89  1734.40  1742.70  1743.88  1759.84
                             1818.38  1826.27  1844.62  1849.55  1867.10
                             1895.06  1915.87  1926.34  1937.76  1953.45
                             1956.70  1971.80  2009.65  2033.63  2041.00
                             2055.13  2076.56  2113.74  2121.50  2136.66
                             2141.87  2142.97  2147.58  2167.96  2169.43
                             2190.18  2338.97  2368.29  2547.98  4277.80
                             4290.30  4364.39  4371.50  4381.52  4398.88
                             4401.32  4421.94  4427.16  4435.77  4461.40
                             4461.57  4481.36  4494.39  4505.39  4548.20
                             4552.51  4567.81  4574.65  4580.88  4596.83
                             4614.13

 Zero-point correction=                           0.358710 (Hartree/Particle)
 Thermal correction to Energy=                    0.385806
 Thermal correction to Enthalpy=                  0.386751
 Thermal correction to Gibbs Free Energy=         0.297341
 Sum of electronic and zero-point Energies=          -3531.044646
 Sum of electronic and thermal Energies=             -3531.017550
 Sum of electronic and thermal Enthalpies=           -3531.016606
 Sum of electronic and thermal Free Energies=        -3531.106016

                     E (Thermal)             CV                S
                      KCal/Mol        Cal/Mol-Kelvin    Cal/Mol-Kelvin
 Total                  242.097             96.807            188.179
 Electronic               0.000              0.000              3.561
 Translational            0.889              2.981             44.100
 Rotational               0.889              2.981             35.509
 Vibrational            240.320             90.845            105.009
 Vibration     1          0.593              1.985              6.233
 Vibration     2          0.593              1.984              5.906
 Vibration     3          0.594              1.983              5.679
 Vibration     4          0.595              1.978              4.852
 Vibration     5          0.597              1.973              4.443
 Vibration     6          0.598              1.970              4.227
 Vibration     7          0.598              1.969              4.185
 Vibration     8          0.599              1.965              3.987
 Vibration     9          0.601              1.959              3.758
 Vibration    10          0.602              1.954              3.604
 Vibration    11          0.605              1.947              3.390
 Vibration    12          0.607              1.941              3.256
 Vibration    13          0.608              1.934              3.130
 Vibration    14          0.609              1.932              3.098
 Vibration    15          0.613              1.921              2.910
 Vibration    16          0.615              1.914              2.810
 Vibration    17          0.621              1.894              2.573
 Vibration    18          0.621              1.893              2.569
 Vibration    19          0.628              1.872              2.372
 Vibration    20          0.634              1.851              2.209
 Vibration    21          0.646              1.814              1.979
 Vibration    22          0.650              1.803              1.919
 Vibration    23          0.662              1.764              1.734
 Vibration    24          0.664              1.757              1.708
 Vibration    25          0.670              1.741              1.642
 Vibration    26          0.684              1.697              1.490
 Vibration    27          0.694              1.670              1.407
 Vibration    28          0.712              1.616              1.262
 Vibration    29          0.722              1.589              1.198
 Vibration    30          0.738              1.544              1.100
 Vibration    31          0.742              1.535              1.081
 Vibration    32          0.746              1.524              1.060
 Vibration    33          0.757              1.494              1.004
 Vibration    34          0.763              1.478              0.977
 Vibration    35          0.776              1.444              0.919
 Vibration    36          0.778              1.439              0.911
 Vibration    37          0.819              1.335              0.761
 Vibration    38          0.860              1.239              0.646
 Vibration    39          0.903              1.145              0.549
 Vibration    40          0.939              1.070              0.481

                           ! Non-Optimized Parameters !
 Normal termination of Gaussian 16 at Sun Jun 20 07:04:25 2021.

 ----------------------------------------------------------------------
 #p ub3lyp jul-cc-pvdz pop=cm5 scrf=(pcm,solvent=dichloroethane) guess=
 read geom=allcheck
 ----------------------------------------------------------------------

 Structure from the checkpoint file:  "checkpoint.chk"
 -----
 title
 -----
 Charge =  0 Multiplicity = 6

 SCF Done:  E(UB3LYP) =  -3531.43132254     A.U. after   19 cycles
 Normal termination of Gaussian 16 at Sun Jun 20 07:26:06 2021.
 Gaussian 16:  ES64L-G16RevA.03 25-Dec-2016

 ----------------------------------------------------------------------
 #p ub3lyp jul-cc-pvdz pop=cm5 scrf=(pcm,solvent=water) guess=read geom
 =allcheck
 ----------------------------------------------------------------------

 Structure from the checkpoint file:  "checkpoint.chk"
 -----
 title
 -----
 Charge =  0 Multiplicity = 6

                         Standard orientation:
 ---------------------------------------------------------------------
 Center     Atomic      Atomic             Coordinates (Angstroms)
 Number     Number       Type             X           Y           Z
 ---------------------------------------------------------------------
      1          6           0        2.077968   -1.748047    1.719671
      2          6           0        1.343351   -0.754415    1.055739
      3          6           0        1.326263    0.537938    1.600134
      4          6           0        2.009822    0.822343    2.783676
      5          6           0        2.733608   -0.176223    3.441153
      6          6           0        2.768272   -1.463436    2.901861
      7          6           0        0.621593   -1.032049   -0.266552
      8          6           0        1.575387   -0.764410   -1.506350
      9          6           0        2.302592   -2.095856   -1.708644
     10          6           0        1.247768   -3.175665   -1.373132
     11          6           0        0.213693   -2.464351   -0.445809
     12          6           0       -1.195734   -2.400279   -0.998322
     13          6           0       -1.514112   -2.146718   -2.411132
     14          8           0       -0.581230   -0.264706   -0.405271
     15         26           0       -1.965374    0.784120    0.333316
     16         17           0       -3.631816    0.473944   -1.148154
     17          6           0       -2.293330   -2.815350   -0.113533
     18         17           0       -1.431891    2.922894    0.525036
     19         17           0       -2.532196   -0.129666    2.290786
     20          1           0        0.770312    1.332834    1.106617
     21          1           0        1.967321    1.831436    3.195655
     22          1           0        3.264165    0.046686    4.367890
     23          1           0        3.330192   -2.253961    3.401371
     24          1           0        2.130217   -2.764154    1.326829
     25          1           0        0.906070   -0.543354   -2.347676
     26          6           0        2.514398    0.422171   -1.363135
     27          1           0        2.701161   -2.199162   -2.725642
     28          1           0        3.156563   -2.149157   -1.022590
     29          1           0        0.768968   -3.559090   -2.284132
     30          1           0        1.687164   -4.044410   -0.867289
     31          1           0        0.146428   -2.966064    0.525937
     32          1           0       -2.146393   -3.902491    0.047138
     33          1           0       -2.200224   -2.351378    0.881264
     34          1           0       -3.287121   -2.634284   -0.533756
     35          1           0       -2.029531   -3.039664   -2.809246
     36          1           0       -2.269138   -1.339280   -2.436365
     37          1           0       -0.657255   -1.898267   -3.039948
     38          8           0        1.876302    1.574543   -1.627094
     39          8           0        3.688842    0.340350   -1.069951
     40          6           0        2.656147    2.796021   -1.489076
     41          6           0        1.767802    3.953532   -1.896643
     42          1           0        2.986653    2.871508   -0.444162
     43          1           0        3.549864    2.706583   -2.121303
     44          1           0        2.324068    4.895204   -1.782201
     45          1           0        1.458185    3.860877   -2.947047
     46          1           0        0.868175    3.997810   -1.268804
 ---------------------------------------------------------------------

 SCF Done:  E(UB3LYP) =  -3531.43663250     A.U. after   14 cycles

 The electronic state is 6-A.
 Alpha  occ. eigenvalues -- -256.20091-101.52079-101.51955-101.51883 -30.19493
 Alpha  occ. eigenvalues --  -26.04798 -26.04740 -26.04635 -19.20212 -19.16676
 Alpha  occ. eigenvalues --  -19.15147 -10.33403 -10.32732 -10.28414 -10.24726
 Alpha  occ. eigenvalues --  -10.22808 -10.22270 -10.22207 -10.21662 -10.21246
 Alpha  occ. eigenvalues --  -10.20877 -10.20377 -10.20158 -10.20076 -10.20016
 Alpha  occ. eigenvalues --  -10.19910 -10.19816 -10.18533  -9.43806  -9.43670
 Alpha  occ. eigenvalues --   -9.43592  -7.19664  -7.19540  -7.19462  -7.19358
 Alpha  occ. eigenvalues --   -7.19342  -7.19218  -7.19203  -7.19134  -7.19126
 Alpha  occ. eigenvalues --   -3.67200  -2.44711  -2.44557  -2.44381  -1.11968
 Alpha  occ. eigenvalues --   -1.03517  -1.02679  -0.89106  -0.87224  -0.84733
 Alpha  occ. eigenvalues --   -0.79981  -0.79309  -0.79155  -0.78927  -0.77451
 Alpha  occ. eigenvalues --   -0.76109  -0.75553  -0.74732  -0.72257  -0.66512
 Alpha  occ. eigenvalues --   -0.64033  -0.62041  -0.61028  -0.59793  -0.57203
 Alpha  occ. eigenvalues --   -0.56507  -0.54968  -0.53340  -0.51402  -0.50555
 Alpha  occ. eigenvalues --   -0.49892  -0.49576  -0.48654  -0.47872  -0.47659
 Alpha  occ. eigenvalues --   -0.47452  -0.47372  -0.46871  -0.46858  -0.46196
 Alpha  occ. eigenvalues --   -0.45237  -0.44552  -0.44248  -0.43386  -0.43015
 Alpha  occ. eigenvalues --   -0.42736  -0.41882  -0.41358  -0.40955  -0.40568
 Alpha  occ. eigenvalues --   -0.39882  -0.38658  -0.37957  -0.37473  -0.37300
 Alpha  occ. eigenvalues --   -0.36905  -0.36080  -0.35848  -0.35735  -0.35608
 Alpha  occ. eigenvalues --   -0.34759  -0.34209  -0.33926  -0.32024  -0.31510
 Alpha  occ. eigenvalues --   -0.30923  -0.30825  -0.30625  -0.30600  -0.29896
 Alpha  occ. eigenvalues --   -0.29512  -0.29239  -0.28480  -0.26703  -0.26247
 Alpha virt. eigenvalues --   -0.13424  -0.03162  -0.02769  -0.01505  -0.01312
 Alpha virt. eigenvalues --   -0.00221  -0.00076   0.00092   0.01424   0.01669
 Alpha virt. eigenvalues --    0.01724   0.01814   0.02426   0.03248   0.03795

  Beta  occ. eigenvalues -- -256.19907-101.51909-101.51784-101.51720 -30.10562
  Beta  occ. eigenvalues --  -25.97340 -25.97279 -25.97222 -19.20212 -19.15919
  Beta  occ. eigenvalues --  -19.15144 -10.33410 -10.32732 -10.28384 -10.24726
  Beta  occ. eigenvalues --  -10.22789 -10.22266 -10.22207 -10.21639 -10.21233
  Beta  occ. eigenvalues --  -10.20874 -10.20375 -10.20157 -10.20076 -10.20016
  Beta  occ. eigenvalues --  -10.19912 -10.19813 -10.18532  -9.43640  -9.43502
  Beta  occ. eigenvalues --   -9.43431  -7.19387  -7.19243  -7.19174  -7.19124
  Beta  occ. eigenvalues --   -7.19119  -7.18996  -7.18983  -7.18927  -7.18916
  Beta  occ. eigenvalues --   -3.46381  -2.22703  -2.22632  -2.22498  -1.11965
  Beta  occ. eigenvalues --   -1.03513  -1.01268  -0.88829  -0.87197  -0.84670
  Beta  occ. eigenvalues --   -0.78985  -0.78861  -0.78118  -0.77995  -0.77356
  Beta  occ. eigenvalues --   -0.76092  -0.75529  -0.74723  -0.72076  -0.66435
  Beta  occ. eigenvalues --   -0.63989  -0.62004  -0.60993  -0.59638  -0.57160
  Beta  occ. eigenvalues --   -0.56014  -0.54899  -0.52247  -0.51263  -0.50511
  Beta  occ. eigenvalues --   -0.49737  -0.49222  -0.47961  -0.47543  -0.47106
  Beta  occ. eigenvalues --   -0.46183  -0.44654  -0.44397  -0.43423  -0.43059
  Beta  occ. eigenvalues --   -0.42899  -0.41840  -0.41327  -0.40964  -0.40602
  Beta  occ. eigenvalues --   -0.39872  -0.38548  -0.37839  -0.37563  -0.37409
  Beta  occ. eigenvalues --   -0.36884  -0.36316  -0.35990  -0.35798  -0.35667
  Beta  occ. eigenvalues --   -0.35487  -0.35374  -0.34735  -0.33027  -0.32894
  Beta  occ. eigenvalues --   -0.32448  -0.32023  -0.31783  -0.31568  -0.29850
  Beta  occ. eigenvalues --   -0.29554  -0.29502  -0.28548  -0.26701  -0.26207
  Beta virt. eigenvalues --   -0.14440  -0.13705  -0.13237  -0.12763  -0.12139
  Beta virt. eigenvalues --   -0.11785  -0.03090  -0.02743  -0.01404  -0.01270
  Beta virt. eigenvalues --   -0.00164  -0.00047   0.00121   0.01452   0.01687

 Mulliken charges and spin densities:
               1          2
     1  C   -0.368607   0.002574
     2  C    3.505568   0.000874
     3  C   -0.547999  -0.009761
     4  C    0.047645   0.004120
     5  C    0.187183   0.000706
     6  C   -0.142223   0.001303
     7  C   -2.952941   0.006473
     8  C    0.523614   0.007017
     9  C    0.607539   0.001858
    10  C    0.660290   0.001617
    11  C    1.141734   0.014042
    12  C   -0.735964  -0.007520
    13  C    0.209365  -0.003528
    14  O   -0.367551   0.253461
    15  Fe   0.678983   4.044752
    16  Cl  -0.551277   0.220074
    17  C    0.428885   0.002014
    18  Cl  -0.487842   0.235133
    19  Cl  -0.529284   0.223336
    20  H   -0.282668   0.000307
    21  H   -0.168368  -0.000040
    22  H   -0.162482   0.000016
    23  H   -0.160093   0.000111
    24  H   -0.205959   0.000012
    25  H   -0.199517   0.000046
    26  C    0.888347   0.002654
    27  H   -0.148376   0.000647
    28  H   -0.063200   0.000042
    29  H   -0.090140   0.000013
    30  H   -0.099547   0.000269
    31  H   -0.181756   0.000266
    32  H    0.077785  -0.001071
    33  H    0.121549  -0.000133
    34  H    0.026548  -0.000354
    35  H    0.080682   0.000593
    36  H    0.122291  -0.001014
    37  H    0.073648   0.000023
    38  O   -0.722882  -0.001244
    39  O   -0.655123   0.001105
    40  C    0.426192  -0.001019
    41  C    0.055429   0.000638
    42  H   -0.037435   0.000007
    43  H   -0.049403   0.000009
    44  H   -0.004999   0.000039
    45  H    0.021120  -0.000016
    46  H    0.031240  -0.000451
 Sum of Mulliken charges =  -0.00000   5.00000

 Dipole moment (field-independent basis, Debye):
    X=              4.2351    Y=            -12.7035    Z=             -5.8463  Tot=             14.6115
 Quadrupole moment (field-independent basis, Debye-Ang):
   XX=           -204.9260   YY=           -143.6121   ZZ=           -168.5379
   XY=             21.0420   XZ=             11.4241   YZ=              8.5458

 Normal termination of Gaussian 16 at Sun Jun 20 07:42:17 2021.
