 Gaussian 16, Revision A.03,

 -----------------------------------------------------------
 #p opt=modredundant freq=noraman ub3lyp jul-cc-pvdz pop=cm5
 -----------------------------------------------------------

 -----
 title
 -----
 Symbolic Z-matrix:
 Charge =  0 Multiplicity = 6

 SCF Done:  E(UB3LYP) =  -3531.42374686     A.U. after   26 cycles
 SCF Done:  E(UB3LYP) =  -3531.42359654     A.U. after   17 cycles
 SCF Done:  E(UB3LYP) =  -3531.42031304     A.U. after   20 cycles
 SCF Done:  E(UB3LYP) =  -3531.41928146     A.U. after   18 cycles
 SCF Done:  E(UB3LYP) =  -3531.42394972     A.U. after   13 cycles
 SCF Done:  E(UB3LYP) =  -3531.42366277     A.U. after   17 cycles
 SCF Done:  E(UB3LYP) =  -3531.42427689     A.U. after   17 cycles
 SCF Done:  E(UB3LYP) =  -3531.42434071     A.U. after   15 cycles
 SCF Done:  E(UB3LYP) =  -3531.42436225     A.U. after   13 cycles
 SCF Done:  E(UB3LYP) =  -3531.42437986     A.U. after   13 cycles
 SCF Done:  E(UB3LYP) =  -3531.42439946     A.U. after   11 cycles
 SCF Done:  E(UB3LYP) =  -3531.42439986     A.U. after   12 cycles
 SCF Done:  E(UB3LYP) =  -3531.42440025     A.U. after   12 cycles
 SCF Done:  E(UB3LYP) =  -3531.42440051     A.U. after   12 cycles
 SCF Done:  E(UB3LYP) =  -3531.42440051     A.U. after   11 cycles
 SCF Done:  E(UB3LYP) =  -3531.42440052     A.U. after   11 cycles
 SCF Done:  E(UB3LYP) =  -3531.42440050     A.U. after    8 cycles
 Optimization completed.
    -- Stationary point found.
 Normal termination of Gaussian 16 at Sun Jun 20 04:23:09 2021.

 ----------------------------------------------------------------------
 #P Geom=AllCheck Guess=TCheck SCRF=Check GenChk UB3LYP/Jul-CC-pVDZ Fre
 q
 ----------------------------------------------------------------------

 Structure from the checkpoint file:  "checkpoint.chk"
 -----
 title
 -----
 Charge =  0 Multiplicity = 6

 SCF Done:  E(UB3LYP) =  -3531.42440050     A.U. after    3 cycles

  Exact polarizability: 317.958 -14.162 306.286  11.094  -7.013 291.535
 Approx polarizability: 489.264 -30.137 465.627   0.279 -13.229 487.442

 ******    1 imaginary frequencies (negative Signs) ******

                      1                      2                      3
                      A                      A                      A
 Frequencies --   -176.5246                 4.1720                19.1157
 Red. masses --      7.1269                12.5871                 3.7136
 Frc consts  --      0.1308                 0.0001                 0.0008
 IR Inten    --    302.5049                 0.3176                 1.7470

                      4                      5                      6
                      A                      A                      A
 Frequencies --     29.5663                35.7743                45.5842
 Red. masses --      4.3907                 6.8830                 5.1900
 Frc consts  --      0.0023                 0.0052                 0.0064
 IR Inten    --      2.7905                 0.2870                 1.6818

                      7                      8                      9
                      A                      A                      A
 Frequencies --     58.2631                69.5731                72.2370
 Red. masses --      3.7849                 3.5712                 5.3000
 Frc consts  --      0.0076                 0.0102                 0.0163
 IR Inten    --      1.5652                 1.9288                 0.5775

                     10                     11                     12
                      A                      A                      A
 Frequencies --     83.1098                91.2529                95.5256
 Red. masses --      8.2796                 8.5548                 5.8271
 Frc consts  --      0.0337                 0.0420                 0.0313
 IR Inten    --      0.2799                 0.1951                 2.0866

                     13                     14                     15
                      A                      A                      A
 Frequencies --    101.9753               106.9524               116.6286
 Red. masses --      3.3920                 5.1129                14.0563
 Frc consts  --      0.0208                 0.0345                 0.1127
 IR Inten    --      4.6679                13.7532                 2.0711

                     16                     17                     18
                      A                      A                      A
 Frequencies --    124.4803               125.8754               140.6312
 Red. masses --      3.0283                 2.9516                 2.2939
 Frc consts  --      0.0276                 0.0276                 0.0267
 IR Inten    --      2.2042                 4.0124                 1.3215

                     19                     20                     21
                      A                      A                      A
 Frequencies --    149.3673               155.8594               180.5090
 Red. masses --      3.9424                 1.6577                 1.9742
 Frc consts  --      0.0518                 0.0237                 0.0379
 IR Inten    --      3.4437                 3.0141                 9.8761

                     22                     23                     24
                      A                      A                      A
 Frequencies --    194.4567               207.1274               219.6977
 Red. masses --      2.1305                 3.9053                 3.1119
 Frc consts  --      0.0475                 0.0987                 0.0885
 IR Inten    --      4.4486                 5.9339                10.0023

                     25                     26                     27
                      A                      A                      A
 Frequencies --    246.0845               256.6512               281.0516
 Red. masses --      3.3659                 1.7453                 2.8891
 Frc consts  --      0.1201                 0.0677                 0.1345
 IR Inten    --      3.3120                 3.1595                 1.7945

                     28                     29                     30
                      A                      A                      A
 Frequencies --    300.0445               314.8405               343.6160
 Red. masses --      3.4172                 5.6686                22.9563
 Frc consts  --      0.1813                 0.3311                 1.5970
 IR Inten    --      6.9117                 4.6301                53.3021

                     31                     32                     33
                      A                      A                      A
 Frequencies --    355.1416               371.6665               388.3659
 Red. masses --      4.1274                 5.7719                31.7967
 Frc consts  --      0.3067                 0.4698                 2.8256
 IR Inten    --      5.6695                14.5019                85.0203

                     34                     35                     36
                      A                      A                      A
 Frequencies --    394.9909               400.1464               416.0537
 Red. masses --     23.5101                 3.0427                 2.9625
 Frc consts  --      2.1611                 0.2870                 0.3021
 IR Inten    --     77.5724                 2.7375                 0.4458

                     37                     38                     39
                      A                      A                      A
 Frequencies --    435.4949               451.4377               483.9964
 Red. masses --      3.8236                 4.7238                 2.1821
 Frc consts  --      0.4273                 0.5672                 0.3012
 IR Inten    --     28.3105                10.2467                 1.9801

                     40                     41                     42
                      A                      A                      A
 Frequencies --    506.4418               531.1295               538.1234
 Red. masses --      2.7558                 3.7580                 3.2195
 Frc consts  --      0.4164                 0.6246                 0.5493
 IR Inten    --      4.2501                28.0917                 1.8701

                     43                     44                     45
                      A                      A                      A
 Frequencies --    602.2877               626.2111               647.4405
 Red. masses --      5.3267                 6.3458                 4.0236
 Frc consts  --      1.1385                 1.4662                 0.9937
 IR Inten    --     34.7238                 2.6436               130.6886

                     46                     47                     48
                      A                      A                      A
 Frequencies --    697.1460               705.2217               759.6415
 Red. masses --      5.9630                 1.6474                 3.8612
 Frc consts  --      1.7075                 0.4827                 1.3128
 IR Inten    --     15.4505                74.0578                10.5608

                     49                     50                     51
                      A                      A                      A
 Frequencies --    769.8979               801.9914               812.1419
 Red. masses --      2.3270                 1.4377                 2.5353
 Frc consts  --      0.8127                 0.5448                 0.9852
 IR Inten    --      5.5502                11.7352                25.1170

                     52                     53                     54
                      A                      A                      A
 Frequencies --    830.6033               850.7664               864.7738
 Red. masses --      2.4897                 1.2541                 1.7254
 Frc consts  --      1.0120                 0.5348                 0.7602
 IR Inten    --      4.0273                 2.4983                10.4073

                     55                     56                     57
                      A                      A                      A
 Frequencies --    871.8731               904.3928               924.2400
 Red. masses --      2.0337                 1.6781                 2.3825
 Frc consts  --      0.9109                 0.8087                 1.1991
 IR Inten    --      9.5516                 2.8527                14.6301

                     58                     59                     60
                      A                      A                      A
 Frequencies --    939.1725               963.6061               982.5690
 Red. masses --      1.4352                 2.7308                 1.3810
 Frc consts  --      0.7459                 1.4940                 0.7855
 IR Inten    --      3.2208                11.9847                 1.9217

                     61                     62                     63
                      A                      A                      A
 Frequencies --    987.5433               991.8304              1001.4544
 Red. masses --      1.3771                 2.3114                 1.6222
 Frc consts  --      0.7913                 1.3397                 0.9585
 IR Inten    --     16.3538                69.5407                 0.2710

                     64                     65                     66
                      A                      A                      A
 Frequencies --   1005.0377              1007.9486              1008.8086
 Red. masses --      1.5901                 2.1660                 2.5478
 Frc consts  --      0.9463                 1.2965                 1.5277
 IR Inten    --     16.3890                 6.5033                23.1878

                     67                     68                     69
                      A                      A                      A
 Frequencies --   1040.5307              1047.7930              1064.2955
 Red. masses --      2.9457                 2.2572                 2.1202
 Frc consts  --      1.8791                 1.4601                 1.4150
 IR Inten    --     39.3505                 6.0651                 2.4874

                     70                     71                     72
                      A                      A                      A
 Frequencies --   1077.1766              1100.2706              1108.0590
 Red. masses --      1.8626                 1.6855                 1.5834
 Frc consts  --      1.2733                 1.2022                 1.1454
 IR Inten    --      3.4892                 8.5186                11.9264

                     73                     74                     75
                      A                      A                      A
 Frequencies --   1132.5393              1135.4747              1163.6808
 Red. masses --      2.2854                 2.4183                 1.7083
 Frc consts  --      1.7271                 1.8370                 1.3629
 IR Inten    --      7.3355                11.2222                17.8560

                     76                     77                     78
                      A                      A                      A
 Frequencies --   1168.1295              1174.6831              1199.1714
 Red. masses --      1.5659                 1.0873                 1.3393
 Frc consts  --      1.2589                 0.8840                 1.1348
 IR Inten    --      0.9459                 0.2720                38.7124

                     79                     80                     81
                      A                      A                      A
 Frequencies --   1204.1313              1212.6989              1229.6681
 Red. masses --      1.5028                 2.7242                 2.1429
 Frc consts  --      1.2838                 2.3604                 1.9091
 IR Inten    --     52.5473                20.1803               211.6913

                     82                     83                     84
                      A                      A                      A
 Frequencies --   1263.0813              1282.3493              1296.6865
 Red. masses --      1.8242                 1.1097                 1.9091
 Frc consts  --      1.7147                 1.0752                 1.8912
 IR Inten    --     22.6459                 7.9763               276.3210

                     85                     86                     87
                      A                      A                      A
 Frequencies --   1319.7688              1328.7045              1332.6394
 Red. masses --      1.4846                 1.4710                 1.7471
 Frc consts  --      1.5236                 1.5301                 1.8280
 IR Inten    --     39.6961                35.3602                16.4411

                     88                     89                     90
                      A                      A                      A
 Frequencies --   1350.9159              1358.6850              1366.5904
 Red. masses --      1.2670                 3.0796                 1.4036
 Frc consts  --      1.3623                 3.3495                 1.5444
 IR Inten    --     99.3176                 0.4106                20.6823

                     91                     92                     93
                      A                      A                      A
 Frequencies --   1377.3206              1383.8843              1387.0615
 Red. masses --      1.4363                 1.5541                 1.5907
 Frc consts  --      1.6054                 1.7536                 1.8031
 IR Inten    --     56.6758               113.4432                51.9269

                     94                     95                     96
                      A                      A                      A
 Frequencies --   1406.0986              1417.3887              1432.1118
 Red. masses --      1.8346                 1.4408                 1.0604
 Frc consts  --      2.1371                 1.7054                 1.2814
 IR Inten    --    179.3238                 2.7045                 2.9794

                     97                     98                     99
                      A                      A                      A
 Frequencies --   1460.7939              1464.7474              1473.1090
 Red. masses --      1.0715                 1.1950                 2.0010
 Frc consts  --      1.3472                 1.5106                 2.5584
 IR Inten    --     12.8344                17.4459                45.5990

                    100                    101                    102
                      A                      A                      A
 Frequencies --   1473.8837              1479.1517              1483.8268
 Red. masses --      1.0390                 1.0898                 1.0526
 Frc consts  --      1.3298                 1.4049                 1.3655
 IR Inten    --      6.6211                 6.4448                 6.7854

                    103                    104                    105
                      A                      A                      A
 Frequencies --   1495.6721              1502.0441              1505.5978
 Red. masses --      1.1354                 1.1456                 1.0875
 Frc consts  --      1.4964                 1.5229                 1.4525
 IR Inten    --     11.4926                 3.7003                 8.9551

                    106                    107                    108
                      A                      A                      A
 Frequencies --   1515.8030              1596.4623              1621.6478
 Red. masses --      2.1024                 4.4181                 5.7052
 Frc consts  --      2.8461                 6.6345                 8.8396
 IR Inten    --      3.0905               136.9049                 1.9840

                    109                    110                    111
                      A                      A                      A
 Frequencies --   1639.6513              1764.5630              2955.8877
 Red. masses --      5.6482                11.8182                 1.0576
 Frc consts  --      8.9466                21.6808                 5.4444
 IR Inten    --      5.2206               229.3124                68.0037

                    112                    113                    114
                      A                      A                      A
 Frequencies --   3015.9294              3042.4081              3043.0046
 Red. masses --      1.0403                 1.0360                 1.0628
 Frc consts  --      5.5753                 5.6499                 5.7985
 IR Inten    --      1.2935                15.2368                17.4156

                    115                    116                    117
                      A                      A                      A
 Frequencies --   3057.7071              3059.4959              3068.7965
 Red. masses --      1.0583                 1.0641                 1.0961
 Frc consts  --      5.8300                 5.8686                 6.0818
 IR Inten    --     15.8458                19.4640                 1.1971

                    118                    119                    120
                      A                      A                      A
 Frequencies --   3076.4587              3090.6453              3098.5404
 Red. masses --      1.0829                 1.0761                 1.0963
 Frc consts  --      6.0389                 6.0561                 6.2016
 IR Inten    --     13.3479                 8.6663                15.9804

                    121                    122                    123
                      A                      A                      A
 Frequencies --   3104.0235              3114.4367              3118.8795
 Red. masses --      1.1077                 1.1036                 1.1008
 Frc consts  --      6.2881                 6.3071                 6.3087
 IR Inten    --      6.3233                11.1623                23.0430

                    124                    125                    126
                      A                      A                      A
 Frequencies --   3135.5493              3148.0468              3149.3576
 Red. masses --      1.1049                 1.1009                 1.1024
 Frc consts  --      6.4003                 6.4279                 6.4424
 IR Inten    --     21.2978                 4.5502                 3.5455

                    127                    128                    129
                      A                      A                      A
 Frequencies --   3155.0546              3171.4788              3182.2654
 Red. masses --      1.0872                 1.0855                 1.0899
 Frc consts  --      6.3763                 6.4329                 6.5029
 IR Inten    --     12.0001                 0.1102                 6.7934

                    130                    131                    132
                      A                      A                      A
 Frequencies --   3192.6430              3201.3442              3219.5465
 Red. masses --      1.0945                 1.0959                 1.0928
 Frc consts  --      6.5729                 6.6175                 6.6736
 IR Inten    --     13.0557                 4.0591                 2.4866

 - Thermochemistry -
 -------------------
 Temperature   298.150 Kelvin.  Pressure   1.00000 Atm.
 Atom     1 has atomic number  6 and mass  12.00000

 Molecular mass:   434.99839 amu.
 Principal axes and moments of inertia in atomic units:
                           1         2         3
     Eigenvalues --  9131.37084********************
           X            0.99817  -0.05663   0.02101
           Y            0.05693   0.99828  -0.01389
           Z           -0.02018   0.01506   0.99968
 This molecule is an asymmetric top.
 Rotational symmetry number  1.
 Warning -- assumption of classical behavior for rotation
           may cause significant error
 Rotational temperatures (Kelvin)      0.00949     0.00771     0.00651
 Rotational constants (GHZ):           0.19764     0.16056     0.13556
    1 imaginary frequencies ignored.
 Zero-point vibrational energy     940502.0 (Joules/Mol)
                                  224.78537 (Kcal/Mol)
 Warning -- explicit consideration of  42 degrees of freedom as
           vibrations may cause significant error
 Vibrational temperatures:      6.00    27.50    42.54    51.47    65.59
          (Kelvin)             83.83   100.10   103.93   119.58   131.29
                              137.44   146.72   153.88   167.80   179.10
                              181.11   202.34   214.91   224.25   259.71
                              279.78   298.01   316.10   354.06   369.26
                              404.37   431.70   452.99   494.39   510.97
                              534.75   558.77   568.30   575.72   598.61
                              626.58   649.52   696.36   728.66   764.18
                              774.24   866.56   900.98   931.52  1003.04
                             1014.66  1092.95  1107.71  1153.89  1168.49
                             1195.05  1224.06  1244.22  1254.43  1301.22
                             1329.78  1351.26  1386.41  1413.70  1420.85
                             1427.02  1440.87  1446.03  1450.21  1451.45
                             1497.09  1507.54  1531.28  1549.82  1583.04
                             1594.25  1629.47  1633.69  1674.28  1680.68
                             1690.11  1725.34  1732.48  1744.80  1769.22
                             1817.29  1845.01  1865.64  1898.85  1911.71
                             1917.37  1943.67  1954.84  1966.22  1981.66
                             1991.10  1995.67  2023.06  2039.31  2060.49
                             2101.76  2107.44  2119.48  2120.59  2128.17
                             2134.90  2151.94  2161.11  2166.22  2180.90
                             2296.95  2333.19  2359.09  2538.81  4252.86
                             4339.25  4377.35  4378.20  4399.36  4401.93
                             4415.31  4426.34  4446.75  4458.11  4466.00
                             4480.98  4487.37  4511.36  4529.34  4531.22
                             4539.42  4563.05  4578.57  4593.50  4606.02
                             4632.21

 Zero-point correction=                           0.358218 (Hartree/Particle)
 Thermal correction to Energy=                    0.386014
 Thermal correction to Enthalpy=                  0.386958
 Thermal correction to Gibbs Free Energy=         0.293205
 Sum of electronic and zero-point Energies=          -3531.066182
 Sum of electronic and thermal Energies=             -3531.038386
 Sum of electronic and thermal Enthalpies=           -3531.037442
 Sum of electronic and thermal Free Energies=        -3531.131195

                     E (Thermal)             CV                S
                      KCal/Mol        Cal/Mol-Kelvin    Cal/Mol-Kelvin
 Total                  242.227             97.828            197.320
 Electronic               0.000              0.000              3.561
 Translational            0.889              2.981             44.100
 Rotational               0.889              2.981             35.567
 Vibrational            240.450             91.866            114.091
 Vibration     1          0.593              1.987              9.748
 Vibration     2          0.593              1.986              6.724
 Vibration     3          0.593              1.984              5.858
 Vibration     4          0.594              1.982              5.480
 Vibration     5          0.595              1.979              5.000
 Vibration     6          0.596              1.974              4.515
 Vibration     7          0.598              1.969              4.165
 Vibration     8          0.598              1.967              4.091
 Vibration     9          0.600              1.961              3.816
 Vibration    10          0.602              1.955              3.633
 Vibration    11          0.603              1.952              3.544
 Vibration    12          0.604              1.948              3.416
 Vibration    13          0.606              1.944              3.323
 Vibration    14          0.608              1.936              3.155
 Vibration    15          0.610              1.929              3.030
 Vibration    16          0.611              1.927              3.008
 Vibration    17          0.615              1.913              2.795
 Vibration    18          0.618              1.903              2.680
 Vibration    19          0.620              1.896              2.599
 Vibration    20          0.629              1.866              2.323
 Vibration    21          0.635              1.848              2.185
 Vibration    22          0.641              1.830              2.069
 Vibration    23          0.647              1.811              1.962
 Vibration    24          0.661              1.769              1.758
 Vibration    25          0.666              1.752              1.684
 Vibration    26          0.681              1.709              1.527
 Vibration    27          0.693              1.674              1.417
 Vibration    28          0.702              1.645              1.337
 Vibration    29          0.722              1.588              1.195
 Vibration    30          0.731              1.565              1.143
 Vibration    31          0.743              1.530              1.073
 Vibration    32          0.757              1.495              1.006
 Vibration    33          0.762              1.481              0.981
 Vibration    34          0.766              1.470              0.962
 Vibration    35          0.779              1.435              0.905
 Vibration    36          0.796              1.393              0.841
 Vibration    37          0.810              1.358              0.791
 Vibration    38          0.840              1.286              0.699
 Vibration    39          0.862              1.236              0.642
 Vibration    40          0.886              1.181              0.585
 Vibration    41          0.893              1.166              0.569
 Vibration    42          0.961              1.027              0.446

                           ! Non-Optimized Parameters !
 Normal termination of Gaussian 16 at Sun Jun 20 07:40:02 2021.

 ----------------------------------------------------------------------
 #p ub3lyp jul-cc-pvdz pop=cm5 scrf=(pcm,solvent=dichloroethane) guess=
 read geom=allcheck
 ----------------------------------------------------------------------

 Structure from the checkpoint file:  "checkpoint.chk"
 -----
 title
 -----
 Charge =  0 Multiplicity = 6

 SCF Done:  E(UB3LYP) =  -3531.44621576     A.U. after   18 cycles
 Normal termination of Gaussian 16 at Sun Jun 20 08:00:27 2021.
 Gaussian 16:  ES64L-G16RevA.03 25-Dec-2016

 ----------------------------------------------------------------------
 #p ub3lyp jul-cc-pvdz pop=cm5 scrf=(pcm,solvent=water) guess=read geom
 =allcheck
 ----------------------------------------------------------------------

 Structure from the checkpoint file:  "checkpoint.chk"
 -----
 title
 -----
 Charge =  0 Multiplicity = 6

                         Standard orientation:
 ---------------------------------------------------------------------
 Center     Atomic      Atomic             Coordinates (Angstroms)
 Number     Number       Type             X           Y           Z
 ---------------------------------------------------------------------
      1          6           0       -3.021253   -0.811999   -0.274675
      2          6           0       -1.667104   -0.703640   -0.642130
      3          6           0       -1.342669   -0.577220   -2.002578
      4          6           0       -2.347215   -0.569192   -2.973685
      5          6           0       -3.688606   -0.686493   -2.600563
      6          6           0       -4.022267   -0.803006   -1.245581
      7          6           0       -0.554761   -0.676810    0.381518
      8          6           0       -0.769198    0.125289    1.724766
      9          6           0       -1.072746   -0.782926    2.918467
     10          6           0       -0.307443   -2.075761    2.643175
     11          6           0       -0.717675   -2.474686    1.242392
     12          6           0        0.020252   -3.261440    0.372111
     13          6           0        1.485933   -3.424128    0.497906
     14          8           0        0.643762   -0.574981   -0.111800
     15         26           0        2.203625    0.547899   -0.351840
     16         17           0        2.731662    1.423890    1.615459
     17          6           0       -0.616663   -3.847065   -0.842845
     18         17           0        1.687434    2.055569   -1.877121
     19         17           0        3.764613   -0.852514   -1.075320
     20          1           0       -0.301401   -0.455259   -2.293286
     21          1           0       -2.077171   -0.460216   -4.024863
     22          1           0       -4.473086   -0.678289   -3.358829
     23          1           0       -5.067165   -0.881296   -0.942687
     24          1           0       -3.307939   -0.887839    0.773317
     25          1           0        0.210815    0.592140    1.883587
     26          6           0       -1.768382    1.271796    1.578624
     27          1           0       -0.770666   -0.301837    3.857190
     28          1           0       -2.152389   -0.974687    2.987866
     29          1           0        0.774554   -1.904956    2.713391
     30          1           0       -0.569165   -2.867857    3.360525
     31          1           0       -1.798631   -2.568890    1.127371
     32          1           0       -1.681952   -3.610115   -0.926241
     33          1           0       -0.091118   -3.492775   -1.745463
     34          1           0       -0.491501   -4.941878   -0.827370
     35          1           0        1.851043   -4.301739   -0.049551
     36          1           0        1.952224   -2.533681    0.027669
     37          1           0        1.835203   -3.455816    1.535594
     38          8           0       -1.292774    2.210835    0.751687
     39          8           0       -2.833244    1.338190    2.157933
     40          6           0       -2.137038    3.376250    0.526014
     41          6           0       -1.372592    4.329643   -0.368632
     42          1           0       -3.074936    3.031773    0.068917
     43          1           0       -2.376507    3.817448    1.502629
     44          1           0       -1.992463    5.216859   -0.563391
     45          1           0       -0.438657    4.653928    0.109281
     46          1           0       -1.121782    3.857551   -1.327380
 ---------------------------------------------------------------------

 SCF Done:  E(UB3LYP) =  -3531.45018599     A.U. after   17 cycles

 The electronic state is 6-A.
 Alpha  occ. eigenvalues -- -256.20830-101.52428-101.52285-101.52273 -30.20243
 Alpha  occ. eigenvalues --  -26.05594 -26.05458 -26.05364 -19.20543 -19.17456
 Alpha  occ. eigenvalues --  -19.15558 -10.33268 -10.32194 -10.26513 -10.24940
 Alpha  occ. eigenvalues --  -10.22339 -10.21864 -10.21831 -10.20871 -10.20710
 Alpha  occ. eigenvalues --  -10.20608 -10.20580 -10.20467 -10.20452 -10.20282
 Alpha  occ. eigenvalues --  -10.20044 -10.19989 -10.18651  -9.44150  -9.44019
 Alpha  occ. eigenvalues --   -9.44003  -7.20015  -7.19886  -7.19871  -7.19703
 Alpha  occ. eigenvalues --   -7.19689  -7.19566  -7.19559  -7.19547  -7.19541
 Alpha  occ. eigenvalues --   -3.67916  -2.45491  -2.45230  -2.45048  -1.12436
 Alpha  occ. eigenvalues --   -1.06895  -1.03915  -0.87968  -0.86818  -0.83601
 Alpha  occ. eigenvalues --   -0.80381  -0.79655  -0.79569  -0.78960  -0.78050
 Alpha  occ. eigenvalues --   -0.76360  -0.75047  -0.72335  -0.70748  -0.66554
 Alpha  occ. eigenvalues --   -0.64458  -0.62350  -0.61544  -0.59534  -0.57375
 Alpha  occ. eigenvalues --   -0.56155  -0.54585  -0.52981  -0.51395  -0.50499
 Alpha  occ. eigenvalues --   -0.49845  -0.49309  -0.48774  -0.48267  -0.48056
 Alpha  occ. eigenvalues --   -0.47803  -0.47632  -0.47030  -0.46816  -0.45942
 Alpha  occ. eigenvalues --   -0.45200  -0.44720  -0.44142  -0.43411  -0.42556
 Alpha  occ. eigenvalues --   -0.42422  -0.41344  -0.40827  -0.40269  -0.40059
 Alpha  occ. eigenvalues --   -0.39290  -0.38586  -0.37755  -0.37570  -0.37380
 Alpha  occ. eigenvalues --   -0.37137  -0.36944  -0.36247  -0.35956  -0.35759
 Alpha  occ. eigenvalues --   -0.35022  -0.34577  -0.34142  -0.32176  -0.32007
 Alpha  occ. eigenvalues --   -0.31199  -0.31169  -0.30931  -0.30412  -0.30040
 Alpha  occ. eigenvalues --   -0.29865  -0.29118  -0.28518  -0.27136  -0.26167
 Alpha virt. eigenvalues --   -0.11449  -0.03628  -0.02904  -0.01556  -0.01207
 Alpha virt. eigenvalues --   -0.00190  -0.00057   0.00040   0.01444   0.01642
 Alpha virt. eigenvalues --    0.01812   0.01977   0.02338   0.03561   0.03765

  Beta  occ. eigenvalues -- -256.20645-101.52246-101.52101-101.52097 -30.11291
  Beta  occ. eigenvalues --  -25.98036 -25.98026 -25.97972 -19.20543 -19.16935
  Beta  occ. eigenvalues --  -19.15555 -10.33269 -10.32190 -10.26470 -10.24940
  Beta  occ. eigenvalues --  -10.22326 -10.21842 -10.21808 -10.20872 -10.20713
  Beta  occ. eigenvalues --  -10.20611 -10.20577 -10.20469 -10.20451 -10.20283
  Beta  occ. eigenvalues --  -10.20046 -10.19988 -10.18651  -9.43972  -9.43838
  Beta  occ. eigenvalues --   -9.43830  -7.19714  -7.19584  -7.19573  -7.19460
  Beta  occ. eigenvalues --   -7.19447  -7.19317  -7.19316  -7.19311  -7.19307
  Beta  occ. eigenvalues --   -3.47045  -2.23314  -2.23261  -2.23211  -1.12434
  Beta  occ. eigenvalues --   -1.05884  -1.03912  -0.87891  -0.86761  -0.83543
  Beta  occ. eigenvalues --   -0.79215  -0.78954  -0.78397  -0.78315  -0.77973
  Beta  occ. eigenvalues --   -0.76355  -0.75022  -0.72323  -0.70654  -0.66394
  Beta  occ. eigenvalues --   -0.64376  -0.62313  -0.61474  -0.59200  -0.57131
  Beta  occ. eigenvalues --   -0.55739  -0.54455  -0.52064  -0.51372  -0.50206
  Beta  occ. eigenvalues --   -0.49718  -0.48841  -0.48191  -0.47328  -0.46905
  Beta  occ. eigenvalues --   -0.45751  -0.44771  -0.44130  -0.43428  -0.42545
  Beta  occ. eigenvalues --   -0.42398  -0.41418  -0.40792  -0.40233  -0.40065
  Beta  occ. eigenvalues --   -0.39271  -0.38469  -0.38184  -0.37593  -0.37381
  Beta  occ. eigenvalues --   -0.37107  -0.36992  -0.36269  -0.36012  -0.35974
  Beta  occ. eigenvalues --   -0.35903  -0.35828  -0.34941  -0.33286  -0.33257
  Beta  occ. eigenvalues --   -0.32594  -0.32355  -0.31978  -0.31588  -0.30276
  Beta  occ. eigenvalues --   -0.29747  -0.29095  -0.28584  -0.27144  -0.26096
  Beta virt. eigenvalues --   -0.14785  -0.14386  -0.13452  -0.13276  -0.12884
  Beta virt. eigenvalues --   -0.10489  -0.03587  -0.02881  -0.01452  -0.01168
  Beta virt. eigenvalues --   -0.00147  -0.00032   0.00070   0.01459   0.01666

 Mulliken charges and spin densities:
               1          2
     1  C   -0.287516  -0.002533
     2  C    3.127260   0.009128
     3  C   -0.782798  -0.007316
     4  C    0.032263   0.004805
     5  C    0.238047  -0.002514
     6  C    0.017484   0.003086
     7  C   -2.571088   0.000786
     8  C    1.019220  -0.000133
     9  C    0.618175   0.001188
    10  C    0.745869   0.001936
    11  C    0.711198   0.007471
    12  C   -0.336492   0.033365
    13  C    0.041638  -0.006219
    14  O   -0.499910   0.152532
    15  Fe   0.603337   4.066572
    16  Cl  -0.514756   0.239540
    17  C    0.328923  -0.001394
    18  Cl  -0.475407   0.249383
    19  Cl  -0.494695   0.240791
    20  H   -0.204215   0.001833
    21  H   -0.155248   0.000000
    22  H   -0.158329   0.000040
    23  H   -0.158018   0.000147
    24  H   -0.182305  -0.000065
    25  H   -0.224976   0.000430
    26  C    0.811044  -0.004320
    27  H   -0.172222   0.000325
    28  H   -0.056435  -0.000138
    29  H   -0.072151  -0.000118
    30  H   -0.142692   0.000509
    31  H   -0.219052  -0.000838
    32  H    0.018384   0.000036
    33  H    0.088010   0.001882
    34  H    0.008234   0.001711
    35  H    0.005740   0.000213
    36  H    0.135426   0.005061
    37  H    0.037611   0.000480
    38  O   -0.698023   0.001130
    39  O   -0.636455   0.000936
    40  C    0.447455   0.001069
    41  C    0.039942  -0.000731
    42  H   -0.030948   0.000006
    43  H   -0.036979   0.000018
    44  H   -0.008192   0.000007
    45  H    0.022387   0.000042
    46  H    0.021255  -0.000136
 Sum of Mulliken charges =  -0.00000   5.00000

 Dipole moment (field-independent basis, Debye):
    X=             -9.4222    Y=             -9.2566    Z=              1.1168  Tot=             13.2556
 Quadrupole moment (field-independent basis, Debye-Ang):
   XX=           -198.2601   YY=           -149.9271   ZZ=           -175.2697
   XY=             -4.9737   XZ=             14.0978   YZ=             -3.8510

 Normal termination of Gaussian 16 at Sun Jun 20 08:19:27 2021.
