 Gaussian 16, Revision A.03,

 -----------------------------------------------------------
 #p opt=modredundant freq=noraman ub3lyp jul-cc-pvdz pop=cm5
 -----------------------------------------------------------

 -----
 title
 -----
 Symbolic Z-matrix:
 Charge =  0 Multiplicity = 6

 SCF Done:  E(UB3LYP) =  -3531.41647363     A.U. after   23 cycles
 SCF Done:  E(UB3LYP) =  -3531.41643074     A.U. after   16 cycles
 SCF Done:  E(UB3LYP) =  -3531.41438903     A.U. after   18 cycles
 SCF Done:  E(UB3LYP) =  -3531.41398722     A.U. after   15 cycles
 SCF Done:  E(UB3LYP) =  -3531.41662949     A.U. after   11 cycles
 SCF Done:  E(UB3LYP) =  -3531.41627926     A.U. after   15 cycles
 SCF Done:  E(UB3LYP) =  -3531.41687412     A.U. after   15 cycles
 SCF Done:  E(UB3LYP) =  -3531.41702721     A.U. after   15 cycles
 SCF Done:  E(UB3LYP) =  -3531.41704405     A.U. after   14 cycles
 SCF Done:  E(UB3LYP) =  -3531.41704635     A.U. after   14 cycles
 SCF Done:  E(UB3LYP) =  -3531.41705534     A.U. after   13 cycles
 SCF Done:  E(UB3LYP) =  -3531.41705503     A.U. after   13 cycles
 SCF Done:  E(UB3LYP) =  -3531.41705668     A.U. after   13 cycles
 SCF Done:  E(UB3LYP) =  -3531.41705779     A.U. after   11 cycles
 SCF Done:  E(UB3LYP) =  -3531.41705784     A.U. after   10 cycles
 Optimization completed.
    -- Stationary point found.
 Normal termination of Gaussian 16 at Sun Jun 20 03:32:20 2021.

 ----------------------------------------------------------------------
 #P Geom=AllCheck Guess=TCheck SCRF=Check GenChk UB3LYP/Jul-CC-pVDZ Fre
 q
 ----------------------------------------------------------------------

 Structure from the checkpoint file:  "checkpoint.chk"
 -----
 title
 -----
 Charge =  0 Multiplicity = 6

 SCF Done:  E(UB3LYP) =  -3531.41705783     A.U. after    1 cycles

  Exact polarizability: 284.827   1.278 304.616  23.449   8.021 283.466
 Approx polarizability: 417.300   0.682 482.376  43.728  10.416 447.831

 ******    1 imaginary frequencies (negative Signs) ******

                      1                      2                      3
                      A                      A                      A
 Frequencies --   -238.1201                25.1869                28.4866
 Red. masses --      9.8147                 7.7516                 5.3301
 Frc consts  --      0.3279                 0.0029                 0.0025
 IR Inten    --    223.6879                 0.0480                 0.9986

                      4                      5                      6
                      A                      A                      A
 Frequencies --     32.1377                49.2546                52.7007
 Red. masses --      5.6597                 5.6637                 4.0452
 Frc consts  --      0.0034                 0.0081                 0.0066
 IR Inten    --      0.9181                 1.6440                 1.3591

                      7                      8                      9
                      A                      A                      A
 Frequencies --     65.7424                69.9486                78.0598
 Red. masses --      2.5879                 4.9179                 8.0838
 Frc consts  --      0.0066                 0.0142                 0.0290
 IR Inten    --      0.0288                 1.0261                 0.6803

                     10                     11                     12
                      A                      A                      A
 Frequencies --     84.5715                91.3328               103.6061
 Red. masses --      8.1727                12.6810                 6.6298
 Frc consts  --      0.0344                 0.0623                 0.0419
 IR Inten    --      1.8151                 0.4578                 0.8860

                     13                     14                     15
                      A                      A                      A
 Frequencies --    113.9877               119.5712               122.5562
 Red. masses --     12.7892                 5.1928                 5.7110
 Frc consts  --      0.0979                 0.0437                 0.0505
 IR Inten    --      1.3489                 4.5882                 6.6011

                     16                     17                     18
                      A                      A                      A
 Frequencies --    130.4179               147.4230               165.2344
 Red. masses --      5.7189                 3.6894                 2.5385
 Frc consts  --      0.0573                 0.0472                 0.0408
 IR Inten    --      2.7095                 2.9668                 1.7876

                     19                     20                     21
                      A                      A                      A
 Frequencies --    181.3725               185.9539               200.5473
 Red. masses --      2.7612                 1.4267                 2.5732
 Frc consts  --      0.0535                 0.0291                 0.0610
 IR Inten    --      3.9042                 8.2083                 0.5003

                     22                     23                     24
                      A                      A                      A
 Frequencies --    222.2175               226.4145               243.8000
 Red. masses --      2.6644                 1.5953                 3.0797
 Frc consts  --      0.0775                 0.0482                 0.1079
 IR Inten    --     12.1821                 0.0877                 2.8104

                     25                     26                     27
                      A                      A                      A
 Frequencies --    249.7808               260.9266               290.0007
 Red. masses --      2.0953                 2.0126                 3.5851
 Frc consts  --      0.0770                 0.0807                 0.1776
 IR Inten    --      1.3821                 0.8251                 3.1981

                     28                     29                     30
                      A                      A                      A
 Frequencies --    308.8391               340.8407               343.1139
 Red. masses --      2.7586                15.8388                 4.5014
 Frc consts  --      0.1550                 1.0841                 0.3122
 IR Inten    --      1.1220                27.3282                11.4188

                     31                     32                     33
                      A                      A                      A
 Frequencies --    369.2423               381.4604               382.3650
 Red. masses --      3.5793                 3.6887                13.2528
 Frc consts  --      0.2875                 0.3162                 1.1416
 IR Inten    --      8.9036                11.4571                66.1136

                     34                     35                     36
                      A                      A                      A
 Frequencies --    392.9150               396.5569               405.2387
 Red. masses --      7.4182                11.4461                 3.7901
 Frc consts  --      0.6748                 1.0605                 0.3667
 IR Inten    --     56.2243                57.5617                10.9979

                     37                     38                     39
                      A                      A                      A
 Frequencies --    411.8558               465.6020               513.2462
 Red. masses --      2.9485                 3.6631                 2.9405
 Frc consts  --      0.2947                 0.4679                 0.4564
 IR Inten    --      0.8368                 2.1461                 3.3486

                     40                     41                     42
                      A                      A                      A
 Frequencies --    541.1499               556.8279               624.3711
 Red. masses --      3.6638                 2.4771                 4.9871
 Frc consts  --      0.6321                 0.4525                 1.1455
 IR Inten    --     23.0438                 2.1049                10.0290

                     43                     44                     45
                      A                      A                      A
 Frequencies --    631.8258               668.5186               696.2396
 Red. masses --      5.2123                 4.1685                 4.1117
 Frc consts  --      1.2259                 1.0976                 1.1743
 IR Inten    --     13.2407                11.3058                13.1615

                     46                     47                     48
                      A                      A                      A
 Frequencies --    707.9510               755.7559               780.2747
 Red. masses --      1.6181                 2.6635                 4.7136
 Frc consts  --      0.4778                 0.8963                 1.6908
 IR Inten    --     40.6870                20.0600                 4.1953

                     49                     50                     51
                      A                      A                      A
 Frequencies --    784.4471               795.3275               808.6373
 Red. masses --      2.9485                 3.1060                 1.2453
 Frc consts  --      1.0690                 1.1576                 0.4798
 IR Inten    --     17.8417                18.3378                 0.9331

                     52                     53                     54
                      A                      A                      A
 Frequencies --    844.2350               847.2430               871.9158
 Red. masses --      1.5562                 1.4999                 2.2384
 Frc consts  --      0.6535                 0.6343                 1.0026
 IR Inten    --     10.9317                 5.5015                10.9213

                     55                     56                     57
                      A                      A                      A
 Frequencies --    874.4732               918.1106               931.1814
 Red. masses --      1.4619                 1.8254                 1.8258
 Frc consts  --      0.6586                 0.9065                 0.9328
 IR Inten    --      4.2740                 8.7021                 7.4281

                     58                     59                     60
                      A                      A                      A
 Frequencies --    944.0275               963.6887               967.2036
 Red. masses --      2.2067                 4.5059                 2.6803
 Frc consts  --      1.1587                 2.4655                 1.4773
 IR Inten    --     41.2898                22.9047                63.0586

                     61                     62                     63
                      A                      A                      A
 Frequencies --    981.3759               995.6632              1002.3908
 Red. masses --      1.3549                 3.1240                 1.3508
 Frc consts  --      0.7689                 1.8247                 0.7997
 IR Inten    --      0.1028                84.5592                 0.3932

                     64                     65                     66
                      A                      A                      A
 Frequencies --   1003.2195              1005.1128              1020.9820
 Red. masses --      1.4599                 4.5882                 2.6887
 Frc consts  --      0.8657                 2.7310                 1.6513
 IR Inten    --      0.8065                 1.2381                22.9378

                     67                     68                     69
                      A                      A                      A
 Frequencies --   1039.5112              1045.4919              1052.5250
 Red. masses --      2.5478                 2.2412                 2.6020
 Frc consts  --      1.6221                 1.4434                 1.6984
 IR Inten    --     24.2890                49.3590                 0.8517

                     70                     71                     72
                      A                      A                      A
 Frequencies --   1063.0982              1087.8405              1103.1880
 Red. masses --      2.4663                 2.0193                 2.1609
 Frc consts  --      1.6423                 1.4079                 1.5495
 IR Inten    --      1.5626                43.4913                 2.3065

                     73                     74                     75
                      A                      A                      A
 Frequencies --   1118.6430              1133.0907              1158.6906
 Red. masses --      1.7439                 2.1743                 1.6796
 Frc consts  --      1.2857                 1.6447                 1.3286
 IR Inten    --      4.1808                 7.1094                32.8699

                     76                     77                     78
                      A                      A                      A
 Frequencies --   1169.7070              1174.7567              1183.5064
 Red. masses --      1.5579                 1.1043                 1.4977
 Frc consts  --      1.2559                 0.8979                 1.2360
 IR Inten    --      2.7758                 0.9737                 5.4544

                     79                     80                     81
                      A                      A                      A
 Frequencies --   1198.6014              1210.1612              1226.4696
 Red. masses --      1.8967                 1.1800                 1.9722
 Frc consts  --      1.6054                 1.0182                 1.7479
 IR Inten    --    120.9011                 7.8321               122.1001

                     82                     83                     84
                      A                      A                      A
 Frequencies --   1257.2230              1258.5728              1283.2956
 Red. masses --      1.8644                 1.7483                 1.1064
 Frc consts  --      1.7363                 1.6316                 1.0735
 IR Inten    --     41.2788                28.4901                 1.4722

                     85                     86                     87
                      A                      A                      A
 Frequencies --   1294.3903              1309.0702              1316.9010
 Red. masses --      1.6483                 2.0930                 1.3975
 Frc consts  --      1.6271                 2.1132                 1.4279
 IR Inten    --     66.4672                 7.3980                 1.6794

                     88                     89                     90
                      A                      A                      A
 Frequencies --   1324.5099              1335.5181              1359.9976
 Red. masses --      1.6130                 2.1725                 2.2066
 Frc consts  --      1.6672                 2.2830                 2.4047
 IR Inten    --     44.6021                11.7704                 0.1040

                     91                     92                     93
                      A                      A                      A
 Frequencies --   1367.4326              1370.7403              1389.2951
 Red. masses --      1.3479                 1.2655                 1.2255
 Frc consts  --      1.4849                 1.4009                 1.3937
 IR Inten    --     15.9207                24.6481                52.8761

                     94                     95                     96
                      A                      A                      A
 Frequencies --   1393.5552              1407.2680              1417.3021
 Red. masses --      1.5701                 1.4434                 1.5261
 Frc consts  --      1.7965                 1.6842                 1.8062
 IR Inten    --     49.8753                25.0920                 6.4418

                     97                     98                     99
                      A                      A                      A
 Frequencies --   1439.1111              1461.4432              1468.9058
 Red. masses --      1.1314                 1.1265                 2.1767
 Frc consts  --      1.3806                 1.4176                 2.7672
 IR Inten    --      1.1303                 1.6996                 7.3851

                    100                    101                    102
                      A                      A                      A
 Frequencies --   1473.9105              1476.8770              1488.3187
 Red. masses --      1.0391                 1.1703                 1.0766
 Frc consts  --      1.3300                 1.5040                 1.4051
 IR Inten    --      3.6787                 2.4236                 5.4796

                    103                    104                    105
                      A                      A                      A
 Frequencies --   1488.5485              1499.3481              1507.5561
 Red. masses --      1.0583                 1.0950                 1.0838
 Frc consts  --      1.3816                 1.4504                 1.4513
 IR Inten    --      0.2032                14.7848                 5.8925

                    106                    107                    108
                      A                      A                      A
 Frequencies --   1510.1869              1524.0374              1625.7071
 Red. masses --      1.0902                 2.2249                 5.6524
 Frc consts  --      1.4650                 3.0448                 8.8017
 IR Inten    --      2.4495                 3.9761                 0.7718

                    109                    110                    111
                      A                      A                      A
 Frequencies --   1647.6503              1772.5052              2995.4455
 Red. masses --      5.7603                11.6457                 1.0521
 Frc consts  --      9.2135                21.5572                 5.5622
 IR Inten    --      0.1515               210.5770                 3.0722

                    112                    113                    114
                      A                      A                      A
 Frequencies --   3011.4115              3039.4237              3058.6097
 Red. masses --      1.0505                 1.0356                 1.0584
 Frc consts  --      5.6128                 5.6364                 5.8339
 IR Inten    --      7.1444                21.3223                13.7883

                    115                    116                    117
                      A                      A                      A
 Frequencies --   3061.8662              3068.4465              3077.9748
 Red. masses --      1.0602                 1.0623                 1.0846
 Frc consts  --      5.8561                 5.8928                 6.0539
 IR Inten    --     19.5785                26.5445                 9.2975

                    118                    119                    120
                      A                      A                      A
 Frequencies --   3095.8806              3102.6934              3103.6684
 Red. masses --      1.1014                 1.1064                 1.0820
 Frc consts  --      6.2198                 6.2753                 6.1409
 IR Inten    --      7.9634                 8.0450                 4.9534

                    121                    122                    123
                      A                      A                      A
 Frequencies --   3108.4559              3112.2409              3115.1941
 Red. masses --      1.0794                 1.0915                 1.1025
 Frc consts  --      6.1448                 6.2293                 6.3037
 IR Inten    --      0.9055                 3.7134                20.0538

                    124                    125                    126
                      A                      A                      A
 Frequencies --   3120.1793              3133.8908              3164.6980
 Red. masses --      1.1025                 1.1044                 1.1056
 Frc consts  --      6.3237                 6.3906                 6.5239
 IR Inten    --     27.2613                19.6861                 1.1079

                    127                    128                    129
                      A                      A                      A
 Frequencies --   3166.8021              3167.7971              3177.5029
 Red. masses --      1.1045                 1.0846                 1.0879
 Frc consts  --      6.5259                 6.4128                 6.4713
 IR Inten    --      3.9113                 1.4061                 5.6451

                    130                    131                    132
                      A                      A                      A
 Frequencies --   3185.9188              3194.4000              3200.7736
 Red. masses --      1.0923                 1.0951                 1.0972
 Frc consts  --      6.5321                 6.5837                 6.6229
 IR Inten    --     19.5325                 6.2606                 8.8143

 - Thermochemistry -
 -------------------
 Temperature   298.150 Kelvin.  Pressure   1.00000 Atm.
 Atom     1 has atomic number  6 and mass  12.00000

 Molecular mass:   434.99839 amu.
 Principal axes and moments of inertia in atomic units:
                           1         2         3
     Eigenvalues --  9030.59109********************
           X            0.99683   0.07787   0.01622
           Y           -0.07808   0.99687   0.01229
           Z           -0.01521  -0.01351   0.99979
 This molecule is an asymmetric top.
 Rotational symmetry number  1.
 Warning -- assumption of classical behavior for rotation
           may cause significant error
 Rotational temperatures (Kelvin)      0.00959     0.00754     0.00688
 Rotational constants (GHZ):           0.19985     0.15705     0.14332
    1 imaginary frequencies ignored.
 Zero-point vibrational energy     943090.3 (Joules/Mol)
                                  225.40400 (Kcal/Mol)
 Warning -- explicit consideration of  40 degrees of freedom as
           vibrations may cause significant error
 Vibrational temperatures:     36.24    40.99    46.24    70.87    75.82
          (Kelvin)             94.59   100.64   112.31   121.68   131.41
                              149.07   164.00   172.04   176.33   187.64
                              212.11   237.74   260.95   267.55   288.54
                              319.72   325.76   350.77   359.38   375.42
                              417.25   444.35   490.39   493.66   531.26
                              548.84   550.14   565.32   570.56   583.05
                              592.57   669.90   738.45   778.59   801.15
                              898.33   909.06   961.85  1001.73  1018.58
                             1087.36  1122.64  1128.64  1144.30  1163.45
                             1214.67  1218.99  1254.49  1258.17  1320.96
                             1339.76  1358.25  1386.53  1391.59  1411.98
                             1432.54  1442.22  1443.41  1446.13  1468.97
                             1495.62  1504.23  1514.35  1529.56  1565.16
                             1587.24  1609.48  1630.26  1667.10  1682.95
                             1690.21  1702.80  1724.52  1741.15  1764.62
                             1808.86  1810.81  1846.38  1862.34  1883.46
                             1894.73  1905.67  1921.51  1956.73  1967.43
                             1972.19  1998.89  2005.02  2024.74  2039.18
                             2070.56  2102.69  2113.43  2120.63  2124.90
                             2141.36  2141.69  2157.23  2169.04  2172.82
                             2192.75  2339.03  2370.60  2550.24  4309.78
                             4332.75  4373.05  4400.66  4405.34  4414.81
                             4428.52  4454.28  4464.08  4465.49  4472.37
                             4477.82  4482.07  4489.24  4508.97  4553.29
                             4556.32  4557.75  4571.72  4583.83  4596.03
                             4605.20

 Zero-point correction=                           0.359204 (Hartree/Particle)
 Thermal correction to Energy=                    0.386198
 Thermal correction to Enthalpy=                  0.387143
 Thermal correction to Gibbs Free Energy=         0.297983
 Sum of electronic and zero-point Energies=          -3531.057854
 Sum of electronic and thermal Energies=             -3531.030859
 Sum of electronic and thermal Enthalpies=           -3531.029915
 Sum of electronic and thermal Free Energies=        -3531.119075

                     E (Thermal)             CV                S
                      KCal/Mol        Cal/Mol-Kelvin    Cal/Mol-Kelvin
 Total                  242.343             96.793            187.653
 Electronic               0.000              0.000              3.561
 Translational            0.889              2.981             44.100
 Rotational               0.889              2.981             35.523
 Vibrational            240.566             90.831            104.469
 Vibration     1          0.593              1.985              6.176
 Vibration     2          0.593              1.984              5.932
 Vibration     3          0.594              1.983              5.693
 Vibration     4          0.595              1.978              4.847
 Vibration     5          0.596              1.977              4.713
 Vibration     6          0.597              1.971              4.277
 Vibration     7          0.598              1.968              4.155
 Vibration     8          0.599              1.964              3.939
 Vibration     9          0.601              1.960              3.782
 Vibration    10          0.602              1.955              3.631
 Vibration    11          0.605              1.946              3.385
 Vibration    12          0.607              1.938              3.200
 Vibration    13          0.609              1.933              3.107
 Vibration    14          0.610              1.930              3.060
 Vibration    15          0.612              1.923              2.940
 Vibration    16          0.617              1.905              2.705
 Vibration    17          0.624              1.885              2.489
 Vibration    18          0.630              1.865              2.314
 Vibration    19          0.632              1.859              2.268
 Vibration    20          0.638              1.839              2.128
 Vibration    21          0.648              1.807              1.941
 Vibration    22          0.650              1.801              1.907
 Vibration    23          0.659              1.773              1.775
 Vibration    24          0.663              1.763              1.732
 Vibration    25          0.669              1.744              1.656
 Vibration    26          0.686              1.692              1.474
 Vibration    27          0.698              1.657              1.369
 Vibration    28          0.720              1.594              1.208
 Vibration    29          0.722              1.589              1.198
 Vibration    30          0.742              1.535              1.083
 Vibration    31          0.751              1.510              1.033
 Vibration    32          0.752              1.508              1.030
 Vibration    33          0.760              1.485              0.989
 Vibration    34          0.763              1.478              0.975
 Vibration    35          0.770              1.459              0.944
 Vibration    36          0.776              1.444              0.920
 Vibration    37          0.823              1.326              0.750
 Vibration    38          0.868              1.221              0.626
 Vibration    39          0.896              1.159              0.563
 Vibration    40          0.912              1.125              0.530

                           ! Non-Optimized Parameters !
 Normal termination of Gaussian 16 at Sun Jun 20 07:42:02 2021.

 ----------------------------------------------------------------------
 #p ub3lyp jul-cc-pvdz pop=cm5 scrf=(pcm,solvent=dichloroethane) guess=
 read geom=allcheck
 ----------------------------------------------------------------------

 Structure from the checkpoint file:  "checkpoint.chk"
 -----
 title
 -----
 Charge =  0 Multiplicity = 6

 SCF Done:  E(UB3LYP) =  -3531.44017768     A.U. after   17 cycles
 Normal termination of Gaussian 16 at Sun Jun 20 08:06:03 2021.
 Gaussian 16:  ES64L-G16RevA.03 25-Dec-2016

 ----------------------------------------------------------------------
 #p ub3lyp jul-cc-pvdz pop=cm5 scrf=(pcm,solvent=water) guess=read geom
 =allcheck
 ----------------------------------------------------------------------

 Structure from the checkpoint file:  "checkpoint.chk"
 -----
 title
 -----
 Charge =  0 Multiplicity = 6

                         Standard orientation:
 ---------------------------------------------------------------------
 Center     Atomic      Atomic             Coordinates (Angstroms)
 Number     Number       Type             X           Y           Z
 ---------------------------------------------------------------------
      1          6           0        1.968225   -1.955064    1.667694
      2          6           0        1.269581   -0.907831    1.049390
      3          6           0        1.226378    0.337892    1.693341
      4          6           0        1.840759    0.521822    2.932892
      5          6           0        2.525930   -0.531125    3.545559
      6          6           0        2.593178   -1.769467    2.904551
      7          6           0        0.634364   -1.081510   -0.318754
      8          6           0        1.569317   -0.658865   -1.512123
      9          6           0        2.272677   -1.962001   -1.917736
     10          6           0        1.180304   -3.049679   -1.832073
     11          6           0        0.227324   -2.577611   -0.713726
     12          6           0       -1.232300   -2.278653   -1.052888
     13          6           0       -1.687074   -2.048349   -2.448144
     14          8           0       -0.682518   -0.456957   -0.437122
     15         26           0       -1.963083    0.809008    0.313781
     16         17           0       -3.702277    0.617148   -1.066175
     17          6           0       -2.255781   -2.729380   -0.074763
     18         17           0       -1.193940    2.877125    0.331863
     19         17           0       -2.517589    0.095625    2.333067
     20          1           0        0.712219    1.179983    1.232811
     21          1           0        1.778478    1.495042    3.421338
     22          1           0        3.004837   -0.386576    4.514976
     23          1           0        3.130521   -2.599060    3.366207
     24          1           0        2.045778   -2.931809    1.190015
     25          1           0        0.899590   -0.312893   -2.309823
     26          6           0        2.550322    0.465992   -1.217588
     27          1           0        2.723799   -1.889914   -2.915728
     28          1           0        3.087877   -2.162592   -1.210486
     29          1           0        0.657763   -3.147458   -2.792437
     30          1           0        1.601826   -4.037115   -1.604646
     31          1           0        0.251334   -3.238321    0.157880
     32          1           0       -2.375739   -3.815154   -0.253344
     33          1           0       -1.925839   -2.597557    0.960981
     34          1           0       -3.226128   -2.245719   -0.230392
     35          1           0       -1.969527   -3.033979   -2.860851
     36          1           0       -2.582654   -1.415721   -2.454714
     37          1           0       -0.916343   -1.616193   -3.091913
     38          8           0        1.998332    1.665886   -1.466924
     39          8           0        3.688236    0.302740   -0.830656
     40          6           0        2.832119    2.830758   -1.206381
     41          6           0        2.086403    4.050923   -1.706478
     42          1           0        3.024195    2.874169   -0.125545
     43          1           0        3.793859    2.686000   -1.716066
     44          1           0        2.685581    4.950199   -1.502668
     45          1           0        1.913668    3.989338   -2.790109
     46          1           0        1.117030    4.152390   -1.201649
 ---------------------------------------------------------------------

 SCF Done:  E(UB3LYP) =  -3531.44459634     A.U. after   14 cycles

 The electronic state is 6-A.
 Alpha  occ. eigenvalues -- -256.20965-101.52607-101.52434-101.52366 -30.20356
 Alpha  occ. eigenvalues --  -26.05678 -26.05607 -26.05482 -19.20274 -19.18615
 Alpha  occ. eigenvalues --  -19.15165 -10.32775 -10.31916 -10.28873 -10.24722
 Alpha  occ. eigenvalues --  -10.22529 -10.21763 -10.21442 -10.21194 -10.21177
 Alpha  occ. eigenvalues --  -10.20466 -10.20236 -10.20203 -10.20158 -10.20145
 Alpha  occ. eigenvalues --  -10.20121 -10.19804 -10.18542  -9.44331  -9.44155
 Alpha  occ. eigenvalues --   -9.44092  -7.20195  -7.20027  -7.19965  -7.19883
 Alpha  occ. eigenvalues --   -7.19870  -7.19705  -7.19689  -7.19639  -7.19631
 Alpha  occ. eigenvalues --   -3.68013  -2.45506  -2.45417  -2.45143  -1.11989
 Alpha  occ. eigenvalues --   -1.03552  -1.03244  -0.87759  -0.86786  -0.84160
 Alpha  occ. eigenvalues --   -0.80550  -0.79826  -0.79675  -0.78725  -0.77630
 Alpha  occ. eigenvalues --   -0.76090  -0.74984  -0.73570  -0.71695  -0.66396
 Alpha  occ. eigenvalues --   -0.63932  -0.62096  -0.60933  -0.59505  -0.56947
 Alpha  occ. eigenvalues --   -0.56158  -0.54465  -0.52820  -0.51291  -0.50240
 Alpha  occ. eigenvalues --   -0.49957  -0.49472  -0.48902  -0.48303  -0.48122
 Alpha  occ. eigenvalues --   -0.47820  -0.47455  -0.47230  -0.46439  -0.45979
 Alpha  occ. eigenvalues --   -0.45612  -0.44587  -0.44106  -0.43193  -0.42951
 Alpha  occ. eigenvalues --   -0.42304  -0.41561  -0.40574  -0.40416  -0.39997
 Alpha  occ. eigenvalues --   -0.39727  -0.38784  -0.38092  -0.37598  -0.37274
 Alpha  occ. eigenvalues --   -0.36859  -0.36309  -0.36021  -0.35742  -0.35536
 Alpha  occ. eigenvalues --   -0.34632  -0.34385  -0.34081  -0.32833  -0.31837
 Alpha  occ. eigenvalues --   -0.31287  -0.31231  -0.31030  -0.30829  -0.30340
 Alpha  occ. eigenvalues --   -0.29888  -0.29774  -0.28964  -0.26800  -0.26367
 Alpha virt. eigenvalues --   -0.09701  -0.03428  -0.02889  -0.01484  -0.01301
 Alpha virt. eigenvalues --   -0.00189  -0.00059   0.00106   0.01460   0.01667
 Alpha virt. eigenvalues --    0.01743   0.01832   0.02415   0.03251   0.03809

  Beta  occ. eigenvalues -- -256.20780-101.52423-101.52251-101.52178 -30.11428
  Beta  occ. eigenvalues --  -25.98186 -25.98152 -25.98102 -19.20274 -19.18092
  Beta  occ. eigenvalues --  -19.15162 -10.32775 -10.31912 -10.28842 -10.24722
  Beta  occ. eigenvalues --  -10.22514 -10.21750 -10.21435 -10.21194 -10.21173
  Beta  occ. eigenvalues --  -10.20464 -10.20235 -10.20202 -10.20155 -10.20145
  Beta  occ. eigenvalues --  -10.20120 -10.19802 -10.18541  -9.44149  -9.43976
  Beta  occ. eigenvalues --   -9.43908  -7.19897  -7.19718  -7.19654  -7.19630
  Beta  occ. eigenvalues --   -7.19619  -7.19461  -7.19450  -7.19386  -7.19384
  Beta  occ. eigenvalues --   -3.47191  -2.23512  -2.23373  -2.23351  -1.11987
  Beta  occ. eigenvalues --   -1.03547  -1.02256  -0.87618  -0.86696  -0.84127
  Beta  occ. eigenvalues --   -0.79359  -0.78758  -0.78510  -0.78388  -0.77569
  Beta  occ. eigenvalues --   -0.76081  -0.74957  -0.73558  -0.71530  -0.66338
  Beta  occ. eigenvalues --   -0.63895  -0.62072  -0.60900  -0.59340  -0.56906
  Beta  occ. eigenvalues --   -0.55620  -0.54430  -0.51953  -0.51216  -0.50074
  Beta  occ. eigenvalues --   -0.49666  -0.48939  -0.47762  -0.47356  -0.46456
  Beta  occ. eigenvalues --   -0.45972  -0.44650  -0.44100  -0.43242  -0.42975
  Beta  occ. eigenvalues --   -0.42353  -0.41524  -0.40563  -0.40322  -0.39992
  Beta  occ. eigenvalues --   -0.39717  -0.38410  -0.38066  -0.37748  -0.37247
  Beta  occ. eigenvalues --   -0.36858  -0.36673  -0.36158  -0.36038  -0.35909
  Beta  occ. eigenvalues --   -0.35753  -0.35424  -0.34377  -0.33434  -0.33375
  Beta  occ. eigenvalues --   -0.32872  -0.32551  -0.32128  -0.31674  -0.30751
  Beta  occ. eigenvalues --   -0.29917  -0.29837  -0.28906  -0.26791  -0.26332
  Beta virt. eigenvalues --   -0.14966  -0.14513  -0.13690  -0.13402  -0.12864
  Beta virt. eigenvalues --   -0.09074  -0.03347  -0.02862  -0.01381  -0.01261
  Beta virt. eigenvalues --   -0.00126  -0.00035   0.00131   0.01488   0.01689

 Mulliken charges and spin densities:
               1          2
     1  C   -0.324759   0.004213
     2  C    3.545061  -0.004576
     3  C   -0.425157  -0.012043
     4  C    0.019200   0.000459
     5  C    0.226516  -0.000495
     6  C   -0.154238   0.001270
     7  C   -2.836061   0.025606
     8  C    0.323669   0.001920
     9  C    0.543105   0.001426
    10  C    0.603078   0.001680
    11  C    1.034505   0.005000
    12  C   -0.860360   0.007887
    13  C    0.388052  -0.004901
    14  O   -0.275866   0.156337
    15  Fe   0.614208   4.055661
    16  Cl  -0.507330   0.248937
    17  C    0.460333   0.001859
    18  Cl  -0.464601   0.255484
    19  Cl  -0.474294   0.248678
    20  H   -0.312272   0.000832
    21  H   -0.164999  -0.000012
    22  H   -0.162393   0.000030
    23  H   -0.157771   0.000059
    24  H   -0.201263   0.000016
    25  H   -0.207339   0.000127
    26  C    0.979656   0.003192
    27  H   -0.143748   0.000471
    28  H   -0.055550   0.000021
    29  H   -0.086529  -0.000039
    30  H   -0.111857   0.000399
    31  H   -0.212359   0.000922
    32  H    0.046136  -0.000119
    33  H    0.064327  -0.000613
    34  H    0.036281  -0.000323
    35  H    0.070809   0.002163
    36  H    0.051250  -0.000563
    37  H    0.052798  -0.000177
    38  O   -0.699755  -0.000751
    39  O   -0.656860   0.000773
    40  C    0.420882  -0.001183
    41  C    0.058787   0.000922
    42  H   -0.040994   0.000008
    43  H   -0.048693  -0.000001
    44  H   -0.004729   0.000062
    45  H    0.022033  -0.000013
    46  H    0.029090  -0.000605
 Sum of Mulliken charges =  -0.00000   5.00000

 Dipole moment (field-independent basis, Debye):
    X=              4.1200    Y=            -10.5330    Z=             -5.4126  Tot=             12.5385
 Quadrupole moment (field-independent basis, Debye-Ang):
   XX=           -202.5163   YY=           -148.3683   ZZ=           -167.4186
   XY=             18.7671   XZ=              9.4251   YZ=              7.9198

 Normal termination of Gaussian 16 at Sun Jun 20 08:25:46 2021.
