 Gaussian 16, Revision A.03,

 -----------------------------------------------------------
 #p opt=modredundant freq=noraman ub3lyp jul-cc-pvdz pop=cm5
 -----------------------------------------------------------

 -----
 title
 -----
 Symbolic Z-matrix:
 Charge =  0 Multiplicity = 6

 SCF Done:  E(UB3LYP) =  -3531.40214142     A.U. after   25 cycles
 SCF Done:  E(UB3LYP) =  -3531.40214197     A.U. after   17 cycles
 SCF Done:  E(UB3LYP) =  -3531.40126980     A.U. after   16 cycles
 SCF Done:  E(UB3LYP) =  -3531.40094120     A.U. after   15 cycles
 SCF Done:  E(UB3LYP) =  -3531.39998228     A.U. after   15 cycles
 SCF Done:  E(UB3LYP) =  -3531.40216189     A.U. after   10 cycles
 SCF Done:  E(UB3LYP) =  -3531.40268005     A.U. after   15 cycles
 SCF Done:  E(UB3LYP) =  -3531.40266858     A.U. after   15 cycles
 SCF Done:  E(UB3LYP) =  -3531.40273351     A.U. after   14 cycles
 SCF Done:  E(UB3LYP) =  -3531.40275055     A.U. after   13 cycles
 SCF Done:  E(UB3LYP) =  -3531.40275832     A.U. after   12 cycles
 SCF Done:  E(UB3LYP) =  -3531.40275840     A.U. after   11 cycles
 SCF Done:  E(UB3LYP) =  -3531.40275826     A.U. after   11 cycles
 SCF Done:  E(UB3LYP) =  -3531.40275818     A.U. after   11 cycles
 SCF Done:  E(UB3LYP) =  -3531.40275818     A.U. after   11 cycles
 SCF Done:  E(UB3LYP) =  -3531.40275837     A.U. after   11 cycles
 SCF Done:  E(UB3LYP) =  -3531.40275820     A.U. after   12 cycles
 Optimization completed.
    -- Stationary point found.
 Normal termination of Gaussian 16 at Sun Jun 20 05:47:25 2021.

 ----------------------------------------------------------------------
 #P Geom=AllCheck Guess=TCheck SCRF=Check GenChk UB3LYP/Jul-CC-pVDZ Fre
 q
 ----------------------------------------------------------------------

 Structure from the checkpoint file:  "checkpoint.chk"
 -----
 title
 -----
 Charge =  0 Multiplicity = 6

 SCF Done:  E(UB3LYP) =  -3531.40275820     A.U. after    1 cycles

  Exact polarizability: 292.584  -0.501 305.131  23.467  10.267 286.784
 Approx polarizability: 430.606  -3.701 483.002  43.079  17.381 453.712

 ******    1 imaginary frequencies (negative Signs) ******

                      1                      2                      3
                      A                      A                      A
 Frequencies --   -405.0670                16.5344                23.4056
 Red. masses --     10.5662                 7.1462                 4.4550
 Frc consts  --      1.0215                 0.0012                 0.0014
 IR Inten    --    173.5348                 0.2298                 1.2168

                      4                      5                      6
                      A                      A                      A
 Frequencies --     33.2298                46.7820                50.0576
 Red. masses --      6.7709                 5.3221                 4.5517
 Frc consts  --      0.0044                 0.0069                 0.0067
 IR Inten    --      0.3991                 0.5968                 1.9697

                      7                      8                      9
                      A                      A                      A
 Frequencies --     62.4858                68.4292                79.4698
 Red. masses --      2.7068                 4.2496                 8.3426
 Frc consts  --      0.0062                 0.0117                 0.0310
 IR Inten    --      0.1398                 1.0420                 0.8352

                     10                     11                     12
                      A                      A                      A
 Frequencies --     82.5221                92.0996               104.5180
 Red. masses --     11.6955                10.7506                 7.9044
 Frc consts  --      0.0469                 0.0537                 0.0509
 IR Inten    --      0.0945                 0.6212                 0.6383

                     13                     14                     15
                      A                      A                      A
 Frequencies --    114.2319               118.2562               124.2265
 Red. masses --     13.9218                 6.7023                 4.0319
 Frc consts  --      0.1070                 0.0552                 0.0367
 IR Inten    --      2.4739                 3.3813                 2.2189

                     16                     17                     18
                      A                      A                      A
 Frequencies --    129.4252               149.6877               170.9733
 Red. masses --      6.0061                 3.8563                 2.3796
 Frc consts  --      0.0593                 0.0509                 0.0410
 IR Inten    --      2.8553                 1.6374                 1.8126

                     19                     20                     21
                      A                      A                      A
 Frequencies --    181.7357               186.8938               199.1626
 Red. masses --      2.6468                 1.4385                 2.7904
 Frc consts  --      0.0515                 0.0296                 0.0652
 IR Inten    --      2.4629                 4.1438                 0.5152

                     22                     23                     24
                      A                      A                      A
 Frequencies --    220.6004               232.6002               236.2408
 Red. masses --      4.9239                 2.1869                 2.0848
 Frc consts  --      0.1412                 0.0697                 0.0686
 IR Inten    --     11.6518                 2.6403                 5.4363

                     25                     26                     27
                      A                      A                      A
 Frequencies --    242.7408               255.6241               286.9423
 Red. masses --      2.1045                 1.5378                 3.2881
 Frc consts  --      0.0731                 0.0592                 0.1595
 IR Inten    --     10.1219                 1.6529                11.2096

                     28                     29                     30
                      A                      A                      A
 Frequencies --    307.9123               325.1068               341.8539
 Red. masses --      3.8719                 2.9820                11.8161
 Frc consts  --      0.2163                 0.1857                 0.8136
 IR Inten    --      3.4952                 7.4943                24.1793

                     31                     32                     33
                      A                      A                      A
 Frequencies --    343.9694               381.9440               385.3190
 Red. masses --      5.5425                22.8550                 3.3911
 Frc consts  --      0.3864                 1.9644                 0.2966
 IR Inten    --     19.0446                57.2293                14.4002

                     34                     35                     36
                      A                      A                      A
 Frequencies --    388.7420               395.4087               400.8774
 Red. masses --      5.3987                15.9784                 3.6707
 Frc consts  --      0.4807                 1.4719                 0.3476
 IR Inten    --     39.4119                69.3013                15.6920

                     37                     38                     39
                      A                      A                      A
 Frequencies --    410.0325               462.4180               492.3279
 Red. masses --      2.9615                 3.3297                 3.2140
 Frc consts  --      0.2934                 0.4195                 0.4590
 IR Inten    --      1.5460                11.1672                13.3003

                     40                     41                     42
                      A                      A                      A
 Frequencies --    510.5448               537.9021               614.0026
 Red. masses --      2.7857                 3.3649                 4.3213
 Frc consts  --      0.4278                 0.5736                 0.9599
 IR Inten    --      1.3978                23.9293                19.7507

                     43                     44                     45
                      A                      A                      A
 Frequencies --    619.8345               632.7977               661.5377
 Red. masses --      3.5065                 4.0056                 6.2151
 Frc consts  --      0.7937                 0.9450                 1.6025
 IR Inten    --     15.2866                10.0247                25.3398

                     46                     47                     48
                      A                      A                      A
 Frequencies --    706.1653               718.3436               755.9357
 Red. masses --      1.5765                 5.2117                 2.8347
 Frc consts  --      0.4632                 1.5845                 0.9544
 IR Inten    --     41.2983                20.6521                 9.0493

                     49                     50                     51
                      A                      A                      A
 Frequencies --    779.0421               786.7400               806.0283
 Red. masses --      3.7663                 2.9686                 1.1462
 Frc consts  --      1.3468                 1.0826                 0.4388
 IR Inten    --     11.2715                 2.9372                 2.1715

                     52                     53                     54
                      A                      A                      A
 Frequencies --    839.6599               843.6298               859.1565
 Red. masses --      4.6534                 1.2795                 1.9002
 Frc consts  --      1.9330                 0.5365                 0.8264
 IR Inten    --     22.4030                 1.6247                 8.9183

                     55                     56                     57
                      A                      A                      A
 Frequencies --    869.6568               873.5591               924.5732
 Red. masses --      1.5572                 2.0488                 2.0505
 Frc consts  --      0.6939                 0.9212                 1.0327
 IR Inten    --      8.4762                 6.9219                 8.2479

                     58                     59                     60
                      A                      A                      A
 Frequencies --    928.6447               941.3778               970.8631
 Red. masses --      1.6495                 1.9773                 2.4512
 Frc consts  --      0.8381                 1.0324                 1.3613
 IR Inten    --      2.3018                28.7407                58.5784

                     61                     62                     63
                      A                      A                      A
 Frequencies --    980.3323               991.2158              1000.4280
 Red. masses --      1.3604                 3.7753                 1.3777
 Frc consts  --      0.7703                 2.1855                 0.8124
 IR Inten    --      0.1487                55.6805                 1.2426

                     64                     65                     66
                      A                      A                      A
 Frequencies --   1004.5575              1007.3058              1015.1524
 Red. masses --      4.3311                 1.5145                 2.2774
 Frc consts  --      2.5751                 0.9054                 1.3828
 IR Inten    --      2.3580                 8.5717                67.9899

                     67                     68                     69
                      A                      A                      A
 Frequencies --   1022.4485              1044.4284              1046.5367
 Red. masses --      1.6303                 2.3829                 2.9016
 Frc consts  --      1.0041                 1.5315                 1.8724
 IR Inten    --     28.9772                38.7932                 3.9541

                     70                     71                     72
                      A                      A                      A
 Frequencies --   1060.0809              1076.3617              1098.5735
 Red. masses --      2.0224                 2.0956                 1.9196
 Frc consts  --      1.3391                 1.4305                 1.3650
 IR Inten    --     39.0264                11.7820                29.3375

                     73                     74                     75
                      A                      A                      A
 Frequencies --   1114.4663              1118.0328              1132.9370
 Red. masses --      1.5901                 2.5333                 2.1714
 Frc consts  --      1.1636                 1.8657                 1.6421
 IR Inten    --      4.5032                13.0344                 8.7267

                     76                     77                     78
                      A                      A                      A
 Frequencies --   1161.1628              1169.8316              1174.9031
 Red. masses --      1.6335                 1.5603                 1.0845
 Frc consts  --      1.2976                 1.2580                 0.8820
 IR Inten    --     39.6234                 1.3804                 0.1922

                     79                     80                     81
                      A                      A                      A
 Frequencies --   1198.4064              1208.2469              1225.5027
 Red. masses --      1.9371                 1.1458                 1.8553
 Frc consts  --      1.6391                 0.9855                 1.6417
 IR Inten    --    130.9093                 4.5285               117.7333

                     82                     83                     84
                      A                      A                      A
 Frequencies --   1248.0894              1258.4215              1283.3186
 Red. masses --      1.9325                 2.2831                 1.1077
 Frc consts  --      1.7736                 2.1302                 1.0749
 IR Inten    --     30.2181                62.6819                 1.6026

                     85                     86                     87
                      A                      A                      A
 Frequencies --   1302.8589              1311.4127              1317.1345
 Red. masses --      1.5011                 2.1594                 1.3513
 Frc consts  --      1.5013                 2.1881                 1.3812
 IR Inten    --     55.7347                18.1642                 4.3760

                     88                     89                     90
                      A                      A                      A
 Frequencies --   1325.1770              1334.9284              1358.5312
 Red. masses --      1.8135                 1.9211                 2.1984
 Frc consts  --      1.8763                 2.0171                 2.3905
 IR Inten    --     35.9879                44.3987                 0.1056

                     91                     92                     93
                      A                      A                      A
 Frequencies --   1364.4695              1378.5552              1389.0392
 Red. masses --      1.3845                 1.3308                 1.5208
 Frc consts  --      1.5187                 1.4901                 1.7288
 IR Inten    --     24.2294                38.1651                68.9911

                     94                     95                     96
                      A                      A                      A
 Frequencies --   1393.0040              1406.9116              1416.2094
 Red. masses --      1.2330                 1.4118                 1.4839
 Frc consts  --      1.4096                 1.6465                 1.7535
 IR Inten    --     34.1089                17.9699                 5.6576

                     97                     98                     99
                      A                      A                      A
 Frequencies --   1440.3994              1461.0348              1467.2641
 Red. masses --      1.1481                 1.2129                 1.9902
 Frc consts  --      1.4035                 1.5254                 2.5244
 IR Inten    --      1.5614                 2.0993                 8.0570

                    100                    101                    102
                      A                      A                      A
 Frequencies --   1473.6703              1474.6986              1486.4898
 Red. masses --      1.0392                 1.1673                 1.0850
 Frc consts  --      1.3297                 1.4957                 1.4126
 IR Inten    --      3.8094                 1.4749                 4.2105

                    103                    104                    105
                      A                      A                      A
 Frequencies --   1488.1558              1498.7805              1506.9947
 Red. masses --      1.0532                 1.0970                 1.0835
 Frc consts  --      1.3743                 1.4519                 1.4498
 IR Inten    --      0.8642                12.6517                 6.0160

                    106                    107                    108
                      A                      A                      A
 Frequencies --   1510.1237              1522.1538              1623.1868
 Red. masses --      1.0915                 2.2247                 5.5775
 Frc consts  --      1.4666                 3.0369                 8.6582
 IR Inten    --      3.4367                 3.1093                 0.4382

                    109                    110                    111
                      A                      A                      A
 Frequencies --   1645.5526              1771.7739              2997.4016
 Red. masses --      5.7802                11.5756                 1.0521
 Frc consts  --      9.2218                21.4096                 5.5695
 IR Inten    --      0.0630               214.5190                 2.0246

                    112                    113                    114
                      A                      A                      A
 Frequencies --   3008.6960              3039.6594              3057.7469
 Red. masses --      1.0524                 1.0356                 1.0603
 Frc consts  --      5.6130                 5.6376                 5.8412
 IR Inten    --      8.1415                21.2954                19.2484

                    115                    116                    117
                      A                      A                      A
 Frequencies --   3059.2768              3065.1881              3080.2448
 Red. masses --      1.0584                 1.0615                 1.0858
 Frc consts  --      5.8361                 5.8758                 6.0695
 IR Inten    --     14.5493                30.7154                 7.1189

                    118                    119                    120
                      A                      A                      A
 Frequencies --   3094.6502              3103.3701              3109.2464
 Red. masses --      1.1036                 1.1063                 1.0781
 Frc consts  --      6.2270                 6.2777                 6.1409
 IR Inten    --      8.5405                 7.9761                 1.5211

                    121                    122                    123
                      A                      A                      A
 Frequencies --   3113.6979              3115.4039              3116.3277
 Red. masses --      1.0837                 1.1026                 1.0996
 Frc consts  --      6.1902                 6.3050                 6.2915
 IR Inten    --      4.8463                17.2470                22.3655

                    124                    125                    126
                      A                      A                      A
 Frequencies --   3134.6456              3139.1235              3166.9465
 Red. masses --      1.1043                 1.0882                 1.1063
 Frc consts  --      6.3934                 6.3178                 6.5374
 IR Inten    --     19.8256                 8.7366                 1.0142

                    127                    128                    129
                      A                      A                      A
 Frequencies --   3169.4307              3170.3703              3179.9741
 Red. masses --      1.0848                 1.1050                 1.0885
 Frc consts  --      6.4206                 6.5439                 6.4853
 IR Inten    --      0.2510                 4.4260                 6.7761

                    130                    131                    132
                      A                      A                      A
 Frequencies --   3189.5571              3196.8613              3203.8817
 Red. masses --      1.0923                 1.0960                 1.0954
 Frc consts  --      6.5470                 6.5993                 6.6247
 IR Inten    --     18.4912                 7.3661                 6.3312

 - Thermochemistry -
 -------------------
 Temperature   298.150 Kelvin.  Pressure   1.00000 Atm.
 Atom     1 has atomic number  6 and mass  12.00000

 Molecular mass:   434.99839 amu.
 Principal axes and moments of inertia in atomic units:
                           1         2         3
     Eigenvalues --  9106.65387********************
           X            0.99669   0.07977   0.01569
           Y           -0.08001   0.99668   0.01530
           Z           -0.01441  -0.01650   0.99976
 This molecule is an asymmetric top.
 Rotational symmetry number  1.
 Warning -- assumption of classical behavior for rotation
           may cause significant error
 Rotational temperatures (Kelvin)      0.00951     0.00749     0.00681
 Rotational constants (GHZ):           0.19818     0.15615     0.14191
    1 imaginary frequencies ignored.
 Zero-point vibrational energy     939940.2 (Joules/Mol)
                                  224.65110 (Kcal/Mol)
 Warning -- explicit consideration of  42 degrees of freedom as
           vibrations may cause significant error
 Vibrational temperatures:     23.79    33.68    47.81    67.31    72.02
          (Kelvin)             89.90    98.45   114.34   118.73   132.51
                              150.38   164.35   170.14   178.73   186.21
                              215.37   245.99   261.48   268.90   286.55
                              317.39   334.66   339.90   349.25   367.79
                              412.85   443.02   467.76   491.85   494.90
                              549.53   554.39   559.31   568.90   576.77
                              589.95   665.32   708.35   734.56   773.92
                              883.41   891.80   910.45   951.81  1016.01
                             1033.54  1087.62  1120.87  1131.94  1159.69
                             1208.08  1213.80  1236.13  1251.24  1256.86
                             1330.25  1336.11  1354.43  1396.86  1410.48
                             1426.14  1439.39  1445.33  1449.29  1460.58
                             1471.08  1502.70  1505.73  1525.22  1548.64
                             1580.60  1603.47  1608.60  1630.04  1670.65
                             1683.13  1690.42  1724.24  1738.40  1763.23
                             1795.72  1810.59  1846.41  1874.52  1886.83
                             1895.06  1906.63  1920.66  1954.62  1963.17
                             1983.43  1998.52  2004.22  2024.23  2037.61
                             2072.41  2102.10  2111.07  2120.28  2121.76
                             2138.73  2141.12  2156.41  2168.23  2172.73
                             2190.04  2335.40  2367.58  2549.19  4312.59
                             4328.84  4373.39  4399.42  4401.62  4410.12
                             4431.79  4452.51  4465.06  4473.51  4479.92
                             4482.37  4483.70  4510.06  4516.50  4556.53
                             4560.10  4561.46  4575.27  4589.06  4599.57
                             4609.67

 Zero-point correction=                           0.358004 (Hartree/Particle)
 Thermal correction to Energy=                    0.385269
 Thermal correction to Enthalpy=                  0.386214
 Thermal correction to Gibbs Free Energy=         0.295987
 Sum of electronic and zero-point Energies=          -3531.044754
 Sum of electronic and thermal Energies=             -3531.017489
 Sum of electronic and thermal Enthalpies=           -3531.016545
 Sum of electronic and thermal Free Energies=        -3531.106771

                     E (Thermal)             CV                S
                      KCal/Mol        Cal/Mol-Kelvin    Cal/Mol-Kelvin
 Total                  241.760             97.675            189.897
 Electronic               0.000              0.000              3.561
 Translational            0.889              2.981             44.100
 Rotational               0.889              2.981             35.547
 Vibrational            239.983             91.713            106.689
 Vibration     1          0.593              1.986              7.012
 Vibration     2          0.593              1.985              6.322
 Vibration     3          0.594              1.983              5.627
 Vibration     4          0.595              1.979              4.949
 Vibration     5          0.595              1.978              4.815
 Vibration     6          0.597              1.972              4.377
 Vibration     7          0.598              1.969              4.198
 Vibration     8          0.600              1.963              3.904
 Vibration     9          0.600              1.961              3.830
 Vibration    10          0.602              1.955              3.615
 Vibration    11          0.605              1.946              3.368
 Vibration    12          0.607              1.938              3.196
 Vibration    13          0.608              1.934              3.129
 Vibration    14          0.610              1.929              3.034
 Vibration    15          0.612              1.924              2.955
 Vibration    16          0.618              1.903              2.676
 Vibration    17          0.626              1.878              2.425
 Vibration    18          0.630              1.865              2.311
 Vibration    19          0.632              1.858              2.258
 Vibration    20          0.637              1.841              2.141
 Vibration    21          0.647              1.810              1.954
 Vibration    22          0.653              1.791              1.859
 Vibration    23          0.655              1.785              1.831
 Vibration    24          0.659              1.775              1.783
 Vibration    25          0.666              1.753              1.691
 Vibration    26          0.684              1.698              1.492
 Vibration    27          0.698              1.659              1.374
 Vibration    28          0.709              1.625              1.284
 Vibration    29          0.721              1.592              1.203
 Vibration    30          0.723              1.588              1.194
 Vibration    31          0.751              1.509              1.031
 Vibration    32          0.754              1.502              1.018
 Vibration    33          0.757              1.494              1.005
 Vibration    34          0.762              1.480              0.980
 Vibration    35          0.767              1.468              0.959
 Vibration    36          0.774              1.448              0.926
 Vibration    37          0.820              1.333              0.759
 Vibration    38          0.848              1.267              0.678
 Vibration    39          0.866              1.227              0.632
 Vibration    40          0.893              1.166              0.570
 Vibration    41          0.973              1.002              0.426
 Vibration    42          0.980              0.990              0.417

 Optimization completed.
    -- Stationary point found.
 Normal termination of Gaussian 16 at Sun Jun 20 09:52:49 2021.

 ----------------------------------------------------------------------
 #p ub3lyp jul-cc-pvdz pop=cm5 scrf=(pcm,solvent=dichloroethane) guess=
 read geom=allcheck
 ----------------------------------------------------------------------

 Structure from the checkpoint file:  "checkpoint.chk"
 -----
 title
 -----
 Charge =  0 Multiplicity = 6

 SCF Done:  E(UB3LYP) =  -3531.42555573     A.U. after   18 cycles
 Normal termination of Gaussian 16 at Sun Jun 20 10:17:07 2021.
 Gaussian 16:  ES64L-G16RevA.03 25-Dec-2016

 ----------------------------------------------------------------------
 #p ub3lyp jul-cc-pvdz pop=cm5 scrf=(pcm,solvent=water) guess=read geom
 =allcheck
 ----------------------------------------------------------------------

 Structure from the checkpoint file:  "checkpoint.chk"
 -----
 title
 -----
 Charge =  0 Multiplicity = 6

                         Standard orientation:
 ---------------------------------------------------------------------
 Center     Atomic      Atomic             Coordinates (Angstroms)
 Number     Number       Type             X           Y           Z
 ---------------------------------------------------------------------
      1          6           0        2.070163   -1.993109    1.520283
      2          6           0        1.270999   -0.946102    1.035152
      3          6           0        1.139751    0.211996    1.816896
      4          6           0        1.774119    0.309750    3.057087
      5          6           0        2.558538   -0.742678    3.535565
      6          6           0        2.708485   -1.893916    2.758780
      7          6           0        0.631274   -1.018914   -0.330111
      8          6           0        1.522377   -0.568311   -1.530752
      9          6           0        2.206314   -1.839546   -2.058883
     10          6           0        1.116149   -2.932609   -2.090594
     11          6           0        0.220772   -2.684157   -0.876419
     12          6           0       -1.233870   -2.317518   -1.033675
     13          6           0       -1.831798   -2.052092   -2.367285
     14          8           0       -0.710569   -0.490083   -0.411872
     15         26           0       -1.965883    0.817832    0.310424
     16         17           0       -3.705649    0.687612   -1.072878
     17          6           0       -2.154879   -2.759589    0.046538
     18         17           0       -1.124278    2.857650    0.342844
     19         17           0       -2.567320    0.131093    2.327743
     20          1           0        0.552169    1.057025    1.463150
     21          1           0        1.647595    1.215878    3.650847
     22          1           0        3.049728   -0.666259    4.506634
     23          1           0        3.322125   -2.722070    3.116082
     24          1           0        2.209023   -2.899745    0.932319
     25          1           0        0.832445   -0.161168   -2.280680
     26          6           0        2.535440    0.519778   -1.193408
     27          1           0        2.660651   -1.670865   -3.044390
     28          1           0        3.020005   -2.115393   -1.375398
     29          1           0        0.551423   -2.873303   -3.030054
     30          1           0        1.557947   -3.937344   -2.055210
     31          1           0        0.353278   -3.395857   -0.058262
     32          1           0       -2.358461   -3.827876   -0.158277
     33          1           0       -1.693657   -2.691969    1.037211
     34          1           0       -3.107820   -2.220345    0.032487
     35          1           0       -2.085500   -3.040272   -2.793964
     36          1           0       -2.755735   -1.471255   -2.276374
     37          1           0       -1.143761   -1.555851   -3.057088
     38          8           0        2.020111    1.741132   -1.408644
     39          8           0        3.662765    0.310076   -0.798161
     40          6           0        2.881208    2.873423   -1.096122
     41          6           0        2.177135    4.129771   -1.565764
     42          1           0        3.055962    2.874649   -0.011559
     43          1           0        3.846733    2.719198   -1.595752
     44          1           0        2.797662    5.004590   -1.323002
     45          1           0        2.019492    4.109198   -2.653239
     46          1           0        1.203323    4.241293   -1.071862
 ---------------------------------------------------------------------

 SCF Done:  E(UB3LYP) =  -3531.42989417     A.U. after   14 cycles

 The electronic state is 6-A.
 Alpha  occ. eigenvalues -- -256.20825-101.52582-101.52404-101.52272 -30.20201
 Alpha  occ. eigenvalues --  -26.05506 -26.05460 -26.05345 -19.20304 -19.18423
 Alpha  occ. eigenvalues --  -19.15181 -10.32845 -10.31969 -10.29889 -10.24735
 Alpha  occ. eigenvalues --  -10.22989 -10.21931 -10.21603 -10.21190 -10.21058
 Alpha  occ. eigenvalues --  -10.20499 -10.20330 -10.20265 -10.20236 -10.20200
 Alpha  occ. eigenvalues --  -10.20179 -10.19957 -10.18550  -9.44306  -9.44129
 Alpha  occ. eigenvalues --   -9.44001  -7.20170  -7.19999  -7.19875  -7.19858
 Alpha  occ. eigenvalues --   -7.19845  -7.19679  -7.19663  -7.19549  -7.19537
 Alpha  occ. eigenvalues --   -3.67863  -2.45343  -2.45261  -2.45024  -1.12032
 Alpha  occ. eigenvalues --   -1.03590  -1.03335  -0.87561  -0.86692  -0.84046
 Alpha  occ. eigenvalues --   -0.80518  -0.79797  -0.79612  -0.78657  -0.77751
 Alpha  occ. eigenvalues --   -0.76093  -0.74924  -0.73546  -0.71064  -0.66466
 Alpha  occ. eigenvalues --   -0.64102  -0.62069  -0.61082  -0.59346  -0.56864
 Alpha  occ. eigenvalues --   -0.56082  -0.54301  -0.52501  -0.51330  -0.50375
 Alpha  occ. eigenvalues --   -0.49908  -0.49624  -0.48986  -0.48199  -0.48043
 Alpha  occ. eigenvalues --   -0.47775  -0.47527  -0.47101  -0.46418  -0.46208
 Alpha  occ. eigenvalues --   -0.45304  -0.44663  -0.44037  -0.43245  -0.42897
 Alpha  occ. eigenvalues --   -0.42287  -0.41663  -0.40821  -0.40035  -0.39929
 Alpha  occ. eigenvalues --   -0.39489  -0.38883  -0.38294  -0.37678  -0.37263
 Alpha  occ. eigenvalues --   -0.36899  -0.36534  -0.36108  -0.35976  -0.35697
 Alpha  occ. eigenvalues --   -0.34671  -0.34315  -0.33890  -0.32420  -0.31824
 Alpha  occ. eigenvalues --   -0.31254  -0.31181  -0.31011  -0.30784  -0.30017
 Alpha  occ. eigenvalues --   -0.29818  -0.29553  -0.28552  -0.26813  -0.26030
 Alpha virt. eigenvalues --   -0.10231  -0.03342  -0.02926  -0.01489  -0.01293
 Alpha virt. eigenvalues --   -0.00175  -0.00063   0.00105   0.01441   0.01605
 Alpha virt. eigenvalues --    0.01743   0.01848   0.02428   0.03224   0.03780

  Beta  occ. eigenvalues -- -256.20640-101.52397-101.52223-101.52087 -30.11287
  Beta  occ. eigenvalues --  -25.98046 -25.98004 -25.97968 -19.20304 -19.17884
  Beta  occ. eigenvalues --  -19.15178 -10.32844 -10.31970 -10.29861 -10.24735
  Beta  occ. eigenvalues --  -10.22961 -10.21919 -10.21596 -10.21189 -10.21054
  Beta  occ. eigenvalues --  -10.20497 -10.20329 -10.20265 -10.20235 -10.20199
  Beta  occ. eigenvalues --  -10.20179 -10.19954 -10.18548  -9.44124  -9.43951
  Beta  occ. eigenvalues --   -9.43820  -7.19871  -7.19693  -7.19606  -7.19593
  Beta  occ. eigenvalues --   -7.19565  -7.19437  -7.19425  -7.19298  -7.19295
  Beta  occ. eigenvalues --   -3.47071  -2.23408  -2.23265  -2.23217  -1.12030
  Beta  occ. eigenvalues --   -1.03582  -1.02293  -0.87485  -0.86586  -0.84006
  Beta  occ. eigenvalues --   -0.79331  -0.78694  -0.78486  -0.78337  -0.77687
  Beta  occ. eigenvalues --   -0.76084  -0.74895  -0.73532  -0.70898  -0.66389
  Beta  occ. eigenvalues --   -0.64067  -0.62046  -0.61052  -0.59127  -0.56769
  Beta  occ. eigenvalues --   -0.55619  -0.54221  -0.51696  -0.51275  -0.50034
  Beta  occ. eigenvalues --   -0.49820  -0.48864  -0.48034  -0.47385  -0.46436
  Beta  occ. eigenvalues --   -0.46172  -0.44721  -0.44027  -0.43311  -0.42908
  Beta  occ. eigenvalues --   -0.42357  -0.41614  -0.40812  -0.40039  -0.39869
  Beta  occ. eigenvalues --   -0.39465  -0.38500  -0.38227  -0.37885  -0.37265
  Beta  occ. eigenvalues --   -0.36937  -0.36811  -0.36147  -0.36053  -0.36013
  Beta  occ. eigenvalues --   -0.35820  -0.35581  -0.34336  -0.33422  -0.33296
  Beta  occ. eigenvalues --   -0.32757  -0.32442  -0.31843  -0.31260  -0.30332
  Beta  occ. eigenvalues --   -0.29932  -0.29836  -0.28606  -0.26804  -0.26015
  Beta virt. eigenvalues --   -0.14862  -0.14414  -0.13652  -0.13275  -0.12770
  Beta virt. eigenvalues --   -0.09693  -0.03277  -0.02894  -0.01391  -0.01248
  Beta virt. eigenvalues --   -0.00115  -0.00040   0.00130   0.01464   0.01632

 Mulliken charges and spin densities:
               1          2
     1  C   -0.228713   0.006140
     2  C    3.143557  -0.007085
     3  C   -0.320720  -0.013695
     4  C    0.031294  -0.000787
     5  C    0.204719  -0.000166
     6  C   -0.161068   0.001061
     7  C   -2.417738   0.031851
     8  C    0.350782   0.001568
     9  C    0.475987   0.002083
    10  C    0.532601   0.000137
    11  C    0.934559   0.016143
    12  C   -0.793218   0.003103
    13  C    0.400779  -0.004261
    14  O   -0.281498   0.161948
    15  Fe   0.616252   4.046405
    16  Cl  -0.509836   0.247403
    17  C    0.421620   0.001148
    18  Cl  -0.464236   0.254963
    19  Cl  -0.474229   0.246023
    20  H   -0.329066   0.001263
    21  H   -0.159998   0.000015
    22  H   -0.163089   0.000039
    23  H   -0.157717   0.000080
    24  H   -0.212838   0.000054
    25  H   -0.204795  -0.000061
    26  C    0.963843   0.003265
    27  H   -0.142062   0.000453
    28  H   -0.046406   0.000034
    29  H   -0.088741   0.000013
    30  H   -0.111532   0.000636
    31  H   -0.232233   0.000922
    32  H    0.047761  -0.000120
    33  H    0.061075  -0.000671
    34  H    0.040479  -0.000198
    35  H    0.071075   0.001931
    36  H    0.044965  -0.000694
    37  H    0.056825  -0.000209
    38  O   -0.685543  -0.000693
    39  O   -0.647762   0.000850
    40  C    0.421967  -0.001255
    41  C    0.055936   0.000920
    42  H   -0.041782   0.000006
    43  H   -0.047322  -0.000009
    44  H   -0.004354   0.000074
    45  H    0.022601  -0.000013
    46  H    0.027817  -0.000615
 Sum of Mulliken charges =  -0.00000   5.00000

 Dipole moment (field-independent basis, Debye):
    X=              4.4924    Y=            -10.5311    Z=             -5.4832  Tot=             12.6945
 Quadrupole moment (field-independent basis, Debye-Ang):
   XX=           -201.8423   YY=           -148.9578   ZZ=           -167.1433
   XY=             18.6352   XZ=              9.2945   YZ=              8.1693

 Normal termination of Gaussian 16 at Sun Jun 20 10:36:10 2021.
