 Gaussian 16, Revision A.03,

 -----------------------------------------------------------
 #p opt=modredundant freq=noraman ub3lyp jul-cc-pvdz pop=cm5
 -----------------------------------------------------------

 -----
 title
 -----
 Symbolic Z-matrix:
 Charge =  0 Multiplicity = 6

 SCF Done:  E(UB3LYP) =  -3531.43458148     A.U. after   25 cycles
 SCF Done:  E(UB3LYP) =  -3531.43377825     A.U. after   22 cycles
 SCF Done:  E(UB3LYP) =  -3531.43290208     A.U. after   17 cycles
 SCF Done:  E(UB3LYP) =  -3531.43256034     A.U. after   17 cycles
 SCF Done:  E(UB3LYP) =  -3531.43478382     A.U. after   12 cycles
 SCF Done:  E(UB3LYP) =  -3531.43450466     A.U. after   17 cycles
 SCF Done:  E(UB3LYP) =  -3531.43506491     A.U. after   16 cycles
 SCF Done:  E(UB3LYP) =  -3531.43521222     A.U. after   15 cycles
 SCF Done:  E(UB3LYP) =  -3531.43530899     A.U. after   15 cycles
 SCF Done:  E(UB3LYP) =  -3531.43532568     A.U. after   14 cycles
 SCF Done:  E(UB3LYP) =  -3531.43535207     A.U. after   11 cycles
 SCF Done:  E(UB3LYP) =  -3531.43535211     A.U. after   11 cycles
 SCF Done:  E(UB3LYP) =  -3531.43535208     A.U. after   11 cycles
 SCF Done:  E(UB3LYP) =  -3531.43535208     A.U. after   11 cycles
 SCF Done:  E(UB3LYP) =  -3531.43535208     A.U. after   11 cycles
 SCF Done:  E(UB3LYP) =  -3531.43535210     A.U. after   11 cycles
 SCF Done:  E(UB3LYP) =  -3531.43535213     A.U. after   10 cycles
 Optimization completed.
    -- Stationary point found.
 Normal termination of Gaussian 16 at Sun Jun 20 15:53:30 2021.

 ----------------------------------------------------------------------
 #P Geom=AllCheck Guess=TCheck SCRF=Check GenChk UB3LYP/Jul-CC-pVDZ Fre
 q
 ----------------------------------------------------------------------

 Structure from the checkpoint file:  "checkpoint.chk"
 -----
 title
 -----
 Charge =  0 Multiplicity = 6

 SCF Done:  E(UB3LYP) =  -3531.43535213     A.U. after    1 cycles

  Exact polarizability: 316.379  15.412 308.152  12.506   8.423 298.095
 Approx polarizability: 487.580  45.992 465.853   7.626   7.022 497.217

 ******    1 imaginary frequencies (negative Signs) ******

                      1                      2                      3
                      A                      A                      A
 Frequencies --    -17.1475                15.1419                26.1897
 Red. masses --      6.5724                 5.5090                 4.0489
 Frc consts  --      0.0011                 0.0007                 0.0016
 IR Inten    --      0.5135                 0.6336                 0.5617

                      4                      5                      6
                      A                      A                      A
 Frequencies --     30.1605                45.3403                52.5835
 Red. masses --      8.9097                 3.9360                 4.5725
 Frc consts  --      0.0048                 0.0048                 0.0074
 IR Inten    --      0.3186                 1.2553                 1.5710

                      7                      8                      9
                      A                      A                      A
 Frequencies --     59.7050                65.6048                79.0520
 Red. masses --      4.2221                 4.8211                 7.6284
 Frc consts  --      0.0089                 0.0122                 0.0281
 IR Inten    --      0.5028                 2.3554                 0.5527

                     10                     11                     12
                      A                      A                      A
 Frequencies --     86.3643                93.8556               100.3619
 Red. masses --      6.9827                 9.2452                 3.4316
 Frc consts  --      0.0307                 0.0480                 0.0204
 IR Inten    --      0.6468                 3.3768                 2.2073

                     13                     14                     15
                      A                      A                      A
 Frequencies --    101.8222               106.1917               117.9178
 Red. masses --      2.4454                 2.6649                 9.6190
 Frc consts  --      0.0149                 0.0177                 0.0788
 IR Inten    --      0.3872                 0.4598                 0.6450

                     16                     17                     18
                      A                      A                      A
 Frequencies --    126.0717               133.7482               142.5420
 Red. masses --      6.4725                 3.4718                 2.1407
 Frc consts  --      0.0606                 0.0366                 0.0256
 IR Inten    --      2.6434                 5.1902                 0.5413

                     19                     20                     21
                      A                      A                      A
 Frequencies --    146.4019               170.5857               173.9148
 Red. masses --      4.0292                 3.8484                 1.3184
 Frc consts  --      0.0509                 0.0660                 0.0235
 IR Inten    --      3.7721                41.9597                 1.4880

                     22                     23                     24
                      A                      A                      A
 Frequencies --    199.7094               208.2535               225.0597
 Red. masses --      3.4590                 2.5570                 3.3955
 Frc consts  --      0.0813                 0.0653                 0.1013
 IR Inten    --      0.5570                 4.4661                 9.5974

                     25                     26                     27
                      A                      A                      A
 Frequencies --    253.0648               259.1612               292.6465
 Red. masses --      3.8572                 1.8061                 4.0512
 Frc consts  --      0.1455                 0.0715                 0.2044
 IR Inten    --     99.0244                 8.5297                 2.4241

                     28                     29                     30
                      A                      A                      A
 Frequencies --    309.5865               316.5493               344.5127
 Red. masses --      2.7601                 5.5848                20.0054
 Frc consts  --      0.1559                 0.3297                 1.3990
 IR Inten    --      5.2275                 3.5812                51.5578

                     31                     32                     33
                      A                      A                      A
 Frequencies --    355.6125               378.1286               393.4313
 Red. masses --      4.9640                 5.0063                19.1867
 Frc consts  --      0.3699                 0.4217                 1.7498
 IR Inten    --      1.7192                16.9754                81.6132

                     34                     35                     36
                      A                      A                      A
 Frequencies --    397.3837               399.9840               411.1567
 Red. masses --      4.4669                 6.2396                 2.8783
 Frc consts  --      0.4156                 0.5882                 0.2867
 IR Inten    --     37.6458                45.1688                 1.1869

                     37                     38                     39
                      A                      A                      A
 Frequencies --    427.3116               454.5748               481.4752
 Red. masses --      3.8280                 3.6488                 2.6450
 Frc consts  --      0.4118                 0.4442                 0.3613
 IR Inten    --     43.6813                 2.8529                 7.6969

                     40                     41                     42
                      A                      A                      A
 Frequencies --    502.6878               520.4385               540.2556
 Red. masses --      2.8771                 3.2493                 3.4281
 Frc consts  --      0.4284                 0.5185                 0.5895
 IR Inten    --      6.5242                 3.8596                29.1257

                     43                     44                     45
                      A                      A                      A
 Frequencies --    588.5073               624.9962               644.8269
 Red. masses --      4.6779                 6.2151                 4.0550
 Frc consts  --      0.9546                 1.4304                 0.9934
 IR Inten    --     74.9093                 7.6056               105.2139

                     46                     47                     48
                      A                      A                      A
 Frequencies --    693.5008               699.5003               752.8200
 Red. masses --      1.6553                 5.9320                 4.3209
 Frc consts  --      0.4691                 1.7101                 1.4428
 IR Inten    --     60.7883                12.9149                 5.8671

                     49                     50                     51
                      A                      A                      A
 Frequencies --    767.6177               799.5408               806.1803
 Red. masses --      2.2920                 1.8119                 1.5622
 Frc consts  --      0.7957                 0.6825                 0.5982
 IR Inten    --     15.6634                16.8974                 2.2890

                     52                     53                     54
                      A                      A                      A
 Frequencies --    821.8971               844.0531               861.9297
 Red. masses --      3.1983                 1.2585                 1.9071
 Frc consts  --      1.2729                 0.5282                 0.8348
 IR Inten    --     16.8272                 1.3326                 3.9821

                     55                     56                     57
                      A                      A                      A
 Frequencies --    868.6687               905.2209               924.0231
 Red. masses --      1.9481                 1.8830                 1.9137
 Frc consts  --      0.8661                 0.9091                 0.9627
 IR Inten    --     39.9528                 6.3363                16.1276

                     58                     59                     60
                      A                      A                      A
 Frequencies --    943.4922               957.7297               969.7442
 Red. masses --      1.4138                 1.4260                 3.2304
 Frc consts  --      0.7415                 0.7706                 1.7899
 IR Inten    --      0.2307                 3.0594                20.8787

                     61                     62                     63
                      A                      A                      A
 Frequencies --    987.2926               988.1566               994.0396
 Red. masses --      1.8335                 1.5494                 1.4760
 Frc consts  --      1.0530                 0.8914                 0.8593
 IR Inten    --     16.1550                37.9839                 7.8756

                     64                     65                     66
                      A                      A                      A
 Frequencies --   1002.9168              1007.9322              1017.5173
 Red. masses --      2.5150                 1.7935                 1.9790
 Frc consts  --      1.4904                 1.0735                 1.2072
 IR Inten    --      0.7471                 1.6832                 8.3094

                     67                     68                     69
                      A                      A                      A
 Frequencies --   1037.4674              1047.4251              1072.2583
 Red. masses --      2.6852                 2.3423                 2.2446
 Frc consts  --      1.7028                 1.5141                 1.5205
 IR Inten    --     45.2219                 3.2424                 1.6624

                     70                     71                     72
                      A                      A                      A
 Frequencies --   1086.6897              1096.9131              1111.4112
 Red. masses --      1.8063                 1.8631                 1.5647
 Frc consts  --      1.2567                 1.3208                 1.1387
 IR Inten    --      1.3867                14.7986                 9.2296

                     73                     74                     75
                      A                      A                      A
 Frequencies --   1132.8827              1138.8865              1162.4879
 Red. masses --      2.1448                 2.2866                 1.6803
 Frc consts  --      1.6218                 1.7475                 1.3379
 IR Inten    --     14.0814                 6.2607                59.9531

                     76                     77                     78
                      A                      A                      A
 Frequencies --   1170.6314              1176.5617              1199.8437
 Red. masses --      1.5667                 1.0883                 1.3679
 Frc consts  --      1.2649                 0.8876                 1.1602
 IR Inten    --      2.5880                 1.3693                50.4447

                     79                     80                     81
                      A                      A                      A
 Frequencies --   1206.1043              1226.1574              1250.3234
 Red. masses --      1.3769                 2.3565                 2.3384
 Frc consts  --      1.1801                 2.0874                 2.1538
 IR Inten    --     37.5815               157.7100                69.8635

                     82                     83                     84
                      A                      A                      A
 Frequencies --   1258.8520              1285.2061              1324.0181
 Red. masses --      2.0835                 1.1125                 1.5295
 Frc consts  --      1.9454                 1.0827                 1.5797
 IR Inten    --     55.0388                 0.1242               144.2316

                     85                     86                     87
                      A                      A                      A
 Frequencies --   1326.6548              1330.3620              1335.5727
 Red. masses --      1.4493                 1.5242                 1.6612
 Frc consts  --      1.5028                 1.5894                 1.7458
 IR Inten    --      9.0662                63.6711                20.9219

                     88                     89                     90
                      A                      A                      A
 Frequencies --   1362.2399              1365.9083              1377.6996
 Red. masses --      3.3575                 1.4897                 1.3003
 Frc consts  --      3.6709                 1.6375                 1.4542
 IR Inten    --      3.7276                13.1143                18.1004

                     91                     92                     93
                      A                      A                      A
 Frequencies --   1383.1187              1397.5562              1408.6240
 Red. masses --      1.4027                 1.2720                 1.5257
 Frc consts  --      1.5810                 1.4638                 1.7836
 IR Inten    --     27.0070                16.0063                19.2156

                     94                     95                     96
                      A                      A                      A
 Frequencies --   1415.9329              1451.0843              1456.9815
 Red. masses --      1.4056                 1.8073                 1.3539
 Frc consts  --      1.6603                 2.2421                 1.6934
 IR Inten    --     14.9276               224.5786                76.9871

                     97                     98                     99
                      A                      A                      A
 Frequencies --   1464.6902              1473.2045              1478.0319
 Red. masses --      1.0738                 1.0390                 1.1060
 Frc consts  --      1.3572                 1.3285                 1.4236
 IR Inten    --      1.1364                 6.5389                18.9453

                    100                    101                    102
                      A                      A                      A
 Frequencies --   1479.4716              1486.0333              1488.0666
 Red. masses --      1.0632                 1.7406                 1.0869
 Frc consts  --      1.3711                 2.2647                 1.4180
 IR Inten    --      8.4488               225.7172                15.1549

                    103                    104                    105
                      A                      A                      A
 Frequencies --   1492.8358              1498.4067              1506.5518
 Red. masses --      1.2402                 1.3701                 1.0840
 Frc consts  --      1.6285                 1.8124                 1.4496
 IR Inten    --     74.0746               114.1736                 7.9825

                    106                    107                    108
                      A                      A                      A
 Frequencies --   1517.0197              1619.1283              1639.5266
 Red. masses --      1.9828                 5.5601                 5.6436
 Frc consts  --      2.6885                 8.5881                 8.9381
 IR Inten    --     15.3524                 5.7437                28.2711

                    109                    110                    111
                      A                      A                      A
 Frequencies --   1674.8932              1766.8432              3017.2394
 Red. masses --      5.7348                11.6215                 1.0397
 Frc consts  --      9.4785                21.3751                 5.5768
 IR Inten    --    148.3358               227.6830                 3.5439

                    112                    113                    114
                      A                      A                      A
 Frequencies --   3025.1789              3035.9544              3042.2086
 Red. masses --      1.0433                 1.0669                 1.0360
 Frc consts  --      5.6257                 5.7937                 5.6493
 IR Inten    --      9.2325                26.0336                17.9102

                    115                    116                    117
                      A                      A                      A
 Frequencies --   3060.1922              3068.5157              3073.2144
 Red. masses --      1.0595                 1.0625                 1.0968
 Frc consts  --      5.8457                 5.8943                 6.1030
 IR Inten    --     15.6669                24.4934                 7.3027

                    118                    119                    120
                      A                      A                      A
 Frequencies --   3074.4323              3083.3004              3096.5054
 Red. masses --      1.0854                 1.0934                 1.0975
 Frc consts  --      6.0444                 6.1243                 6.2000
 IR Inten    --      2.2416                 5.3168                 3.9557

                    121                    122                    123
                      A                      A                      A
 Frequencies --   3109.2593              3118.1506              3118.9920
 Red. masses --      1.1057                 1.1020                 1.1011
 Frc consts  --      6.2983                 6.3128                 6.3108
 IR Inten    --      8.8799                15.4827                16.2414

                    124                    125                    126
                      A                      A                      A
 Frequencies --   3134.0437              3139.9814              3155.6390
 Red. masses --      1.1008                 1.1045                 1.0971
 Frc consts  --      6.3704                 6.4158                 6.4367
 IR Inten    --     10.1944                14.1200                 8.3209

                    127                    128                    129
                      A                      A                      A
 Frequencies --   3160.6587              3174.0668              3186.7708
 Red. masses --      1.0878                 1.0860                 1.0911
 Frc consts  --      6.4027                 6.4464                 6.5284
 IR Inten    --     17.1070                 0.3799                 6.8078

                    130                    131                    132
                      A                      A                      A
 Frequencies --   3196.3939              3222.8868              3233.6357
 Red. masses --      1.0968                 1.0928                 1.0918
 Frc consts  --      6.6022                 6.6875                 6.7263
 IR Inten    --     12.7805                 1.9653                 1.2098

 - Thermochemistry -
 -------------------
 Temperature   298.150 Kelvin.  Pressure   1.00000 Atm.
 Atom     1 has atomic number  6 and mass  12.00000

 Molecular mass:   434.99839 amu.
 Principal axes and moments of inertia in atomic units:
                           1         2         3
     Eigenvalues --  9327.15208********************
           X            0.99906  -0.04065   0.01487
           Y            0.04031   0.99893   0.02247
           Z           -0.01576  -0.02185   0.99964
 This molecule is an asymmetric top.
 Rotational symmetry number  1.
 Warning -- assumption of classical behavior for rotation
           may cause significant error
 Rotational temperatures (Kelvin)      0.00929     0.00777     0.00651
 Rotational constants (GHZ):           0.19349     0.16184     0.13568
    1 imaginary frequencies ignored.
 Zero-point vibrational energy     943401.5 (Joules/Mol)
                                  225.47838 (Kcal/Mol)
 Warning -- explicit consideration of  42 degrees of freedom as
           vibrations may cause significant error
 Vibrational temperatures:     21.79    37.68    43.39    65.23    75.66
          (Kelvin)             85.90    94.39   113.74   124.26   135.04
                              144.40   146.50   152.79   169.66   181.39
                              192.43   205.09   210.64   245.43   250.22
                              287.34   299.63   323.81   364.10   372.88
                              421.05   445.43   455.44   495.68   511.65
                              544.04   566.06   571.75   575.49   591.56
                              614.81   654.03   692.74   723.26   748.79
                              777.31   846.73   899.23   927.76   997.79
                             1006.42  1083.14  1104.43  1150.36  1159.91
                             1182.53  1214.40  1240.12  1249.82  1302.41
                             1329.46  1357.47  1377.96  1395.25  1420.49
                             1421.74  1430.20  1442.97  1450.19  1463.98
                             1492.68  1507.01  1542.74  1563.50  1578.21
                             1599.07  1629.97  1638.60  1672.56  1684.28
                             1692.81  1726.31  1735.32  1764.17  1798.94
                             1811.21  1849.12  1904.97  1908.76  1914.09
                             1921.59  1959.96  1965.24  1982.20  1990.00
                             2010.77  2026.70  2037.21  2087.79  2096.27
                             2107.36  2119.61  2126.56  2128.63  2138.07
                             2141.00  2147.86  2155.87  2167.59  2182.65
                             2329.56  2358.91  2409.80  2542.09  4341.13
                             4352.56  4368.06  4377.06  4402.93  4414.91
                             4421.67  4423.42  4436.18  4455.18  4473.53
                             4486.32  4487.53  4509.19  4517.73  4540.26
                             4547.48  4566.77  4585.05  4598.90  4637.02
                             4652.48

 Zero-point correction=                           0.359323 (Hartree/Particle)
 Thermal correction to Energy=                    0.386942
 Thermal correction to Enthalpy=                  0.387886
 Thermal correction to Gibbs Free Energy=         0.296402
 Sum of electronic and zero-point Energies=          -3531.076029
 Sum of electronic and thermal Energies=             -3531.048410
 Sum of electronic and thermal Enthalpies=           -3531.047466
 Sum of electronic and thermal Free Energies=        -3531.138950

                     E (Thermal)             CV                S
                      KCal/Mol        Cal/Mol-Kelvin    Cal/Mol-Kelvin
 Total                  242.810             97.751            192.545
 Electronic               0.000              0.000              3.561
 Translational            0.889              2.981             44.100
 Rotational               0.889              2.981             35.580
 Vibrational            241.032             91.789            109.304
 Vibration     1          0.593              1.986              7.187
 Vibration     2          0.593              1.985              6.099
 Vibration     3          0.594              1.984              5.819
 Vibration     4          0.595              1.979              5.011
 Vibration     5          0.596              1.977              4.718
 Vibration     6          0.597              1.974              4.467
 Vibration     7          0.597              1.971              4.281
 Vibration     8          0.600              1.963              3.914
 Vibration     9          0.601              1.959              3.741
 Vibration    10          0.603              1.954              3.578
 Vibration    11          0.604              1.949              3.447
 Vibration    12          0.604              1.948              3.419
 Vibration    13          0.605              1.944              3.337
 Vibration    14          0.608              1.934              3.134
 Vibration    15          0.611              1.927              3.005
 Vibration    16          0.613              1.920              2.891
 Vibration    17          0.616              1.911              2.769
 Vibration    18          0.617              1.907              2.718
 Vibration    19          0.626              1.879              2.429
 Vibration    20          0.627              1.875              2.393
 Vibration    21          0.638              1.840              2.136
 Vibration    22          0.642              1.828              2.059
 Vibration    23          0.650              1.803              1.918
 Vibration    24          0.664              1.758              1.709
 Vibration    25          0.668              1.747              1.667
 Vibration    26          0.688              1.687              1.459
 Vibration    27          0.699              1.655              1.365
 Vibration    28          0.703              1.642              1.328
 Vibration    29          0.723              1.586              1.191
 Vibration    30          0.731              1.564              1.141
 Vibration    31          0.748              1.517              1.047
 Vibration    32          0.761              1.484              0.987
 Vibration    33          0.764              1.476              0.972
 Vibration    34          0.766              1.470              0.963
 Vibration    35          0.775              1.446              0.923
 Vibration    36          0.789              1.411              0.867
 Vibration    37          0.813              1.351              0.782
 Vibration    38          0.838              1.291              0.706
 Vibration    39          0.858              1.244              0.651
 Vibration    40          0.875              1.205              0.609
 Vibration    41          0.895              1.161              0.565
 Vibration    42          0.946              1.056              0.470

                           ! Non-Optimized Parameters !
 Normal termination of Gaussian 16 at Sun Jun 20 19:06:02 2021.

 ----------------------------------------------------------------------
 #p ub3lyp jul-cc-pvdz pop=cm5 scrf=(pcm,solvent=dichloroethane) guess=
 read geom=allcheck
 ----------------------------------------------------------------------

 Structure from the checkpoint file:  "checkpoint.chk"
 -----
 title
 -----
 Charge =  0 Multiplicity = 6

 SCF Done:  E(UB3LYP) =  -3531.45388821     A.U. after   18 cycles
 Normal termination of Gaussian 16 at Sun Jun 20 19:26:17 2021.
 Gaussian 16:  ES64L-G16RevA.03 25-Dec-2016

 ----------------------------------------------------------------------
 #p ub3lyp jul-cc-pvdz pop=cm5 scrf=(pcm,solvent=water) guess=read geom
 =allcheck
 ----------------------------------------------------------------------

 Structure from the checkpoint file:  "checkpoint.chk"
 -----
 title
 -----
 Charge =  0 Multiplicity = 6

                         Standard orientation:
 ---------------------------------------------------------------------
 Center     Atomic      Atomic             Coordinates (Angstroms)
 Number     Number       Type             X           Y           Z
 ---------------------------------------------------------------------
      1          6           0        3.232372    0.041199    0.420898
      2          6           0        1.903948   -0.329626    0.710591
      3          6           0        1.557285   -0.623315    2.044406
      4          6           0        2.514445   -0.561912    3.056363
      5          6           0        3.832609   -0.205921    2.754698
      6          6           0        4.185994    0.100678    1.435104
      7          6           0        0.828379   -0.363507   -0.323729
      8          6           0        0.909271    0.500248   -1.610527
      9          6           0        1.789721   -0.066290   -2.730656
     10          6           0        1.475415   -1.558483   -2.866046
     11          6           0        1.582809   -2.187521   -1.504326
     12          6           0        0.675267   -2.994443   -0.892350
     13          6           0       -0.697621   -3.271057   -1.415993
     14          8           0       -0.334716   -0.686250    0.078306
     15         26           0       -2.185640   -0.119790    0.390981
     16         17           0       -2.971779    0.629079   -1.533478
     17          6           0        0.998915   -3.651875    0.414804
     18         17           0       -2.094662    1.382296    2.001908
     19         17           0       -3.230782   -1.937286    1.091530
     20          1           0        0.525492   -0.870759    2.283561
     21          1           0        2.226657   -0.782472    4.084812
     22          1           0        4.581610   -0.155832    3.546603
     23          1           0        5.208450    0.394829    1.195814
     24          1           0        3.527679    0.302049   -0.591468
     25          1           0       -0.130620    0.537119   -1.960328
     26          6           0        1.303913    1.945125   -1.263000
     27          1           0        1.583877    0.479628   -3.661151
     28          1           0        2.851506    0.092640   -2.507719
     29          1           0        0.475439   -1.695743   -3.295560
     30          1           0        2.188867   -2.034153   -3.556661
     31          1           0        2.580999   -2.152084   -1.065211
     32          1           0        2.033343   -3.476899    0.731248
     33          1           0        0.315095   -3.287318    1.198421
     34          1           0        0.830696   -4.737795    0.342125
     35          1           0       -0.772066   -4.339332   -1.678364
     36          1           0       -1.450131   -3.091774   -0.634562
     37          1           0       -0.963969   -2.684442   -2.299901
     38          8           0        0.291993    2.583054   -0.667763
     39          8           0        2.380131    2.441113   -1.522542
     40          6           0        0.519820    3.977870   -0.299362
     41          6           0       -0.814301    4.577107    0.092340
     42          1           0        1.243203    3.988611    0.527745
     43          1           0        0.975215    4.485562   -1.159000
     44          1           0       -0.662117    5.624435    0.391268
     45          1           0       -1.516833    4.555088   -0.751795
     46          1           0       -1.261652    4.030691    0.931976
 ---------------------------------------------------------------------

 SCF Done:  E(UB3LYP) =  -3531.45747303     A.U. after   16 cycles

 The electronic state is 6-A.
 Alpha  occ. eigenvalues -- -256.21260-101.52594-101.52514-101.52506 -30.20657
 Alpha  occ. eigenvalues --  -26.06063 -26.05847 -26.05755 -19.20839 -19.18613
 Alpha  occ. eigenvalues --  -19.15829 -10.33731 -10.33187 -10.25027 -10.23189
 Alpha  occ. eigenvalues --  -10.22969 -10.22429 -10.21434 -10.21366 -10.21301
 Alpha  occ. eigenvalues --  -10.20893 -10.20826 -10.20294 -10.20109 -10.19828
 Alpha  occ. eigenvalues --  -10.19210 -10.18972 -10.18575  -9.44315  -9.44243
 Alpha  occ. eigenvalues --   -9.44236  -7.20182  -7.20112  -7.20106  -7.19870
 Alpha  occ. eigenvalues --   -7.19855  -7.19791  -7.19787  -7.19782  -7.19775
 Alpha  occ. eigenvalues --   -3.68319  -2.45991  -2.45579  -2.45401  -1.12734
 Alpha  occ. eigenvalues --   -1.08832  -1.04222  -0.88221  -0.85715  -0.82955
 Alpha  occ. eigenvalues --   -0.80594  -0.79848  -0.79798  -0.78770  -0.78554
 Alpha  occ. eigenvalues --   -0.76849  -0.75033  -0.70910  -0.70097  -0.66958
 Alpha  occ. eigenvalues --   -0.64659  -0.62631  -0.61726  -0.59771  -0.57667
 Alpha  occ. eigenvalues --   -0.55944  -0.54068  -0.53289  -0.51763  -0.50459
 Alpha  occ. eigenvalues --   -0.49870  -0.49170  -0.48866  -0.48520  -0.48366
 Alpha  occ. eigenvalues --   -0.48087  -0.47516  -0.47164  -0.46898  -0.45787
 Alpha  occ. eigenvalues --   -0.45606  -0.44959  -0.43911  -0.43200  -0.42757
 Alpha  occ. eigenvalues --   -0.42364  -0.41133  -0.40379  -0.40101  -0.39753
 Alpha  occ. eigenvalues --   -0.38840  -0.38444  -0.38007  -0.37790  -0.37671
 Alpha  occ. eigenvalues --   -0.37263  -0.36997  -0.36376  -0.36114  -0.35445
 Alpha  occ. eigenvalues --   -0.34859  -0.34330  -0.34042  -0.32432  -0.32247
 Alpha  occ. eigenvalues --   -0.31380  -0.31359  -0.31002  -0.30802  -0.30236
 Alpha  occ. eigenvalues --   -0.29930  -0.29573  -0.28442  -0.27552  -0.25605
 Alpha virt. eigenvalues --   -0.10892  -0.03333  -0.02514  -0.01699  -0.01164
 Alpha virt. eigenvalues --   -0.00179  -0.00010   0.00062   0.01360   0.01508
 Alpha virt. eigenvalues --    0.01714   0.01978   0.02535   0.02729   0.03266

  Beta  occ. eigenvalues -- -256.21075-101.52407-101.52328-101.52315 -30.11705
  Beta  occ. eigenvalues --  -25.98481 -25.98429 -25.98372 -19.20839 -19.18192
  Beta  occ. eigenvalues --  -19.15827 -10.33730 -10.33172 -10.25027 -10.23159
  Beta  occ. eigenvalues --  -10.22958 -10.22410 -10.21434 -10.21366 -10.21302
  Beta  occ. eigenvalues --  -10.20890 -10.20825 -10.20292 -10.20084 -10.19828
  Beta  occ. eigenvalues --  -10.19211 -10.18974 -10.18574  -9.44131  -9.44061
  Beta  occ. eigenvalues --   -9.44049  -7.19875  -7.19804  -7.19796  -7.19615
  Beta  occ. eigenvalues --   -7.19603  -7.19542  -7.19533  -7.19530  -7.19515
  Beta  occ. eigenvalues --   -3.47444  -2.23715  -2.23661  -2.23598  -1.12730
  Beta  occ. eigenvalues --   -1.08021  -1.04219  -0.88181  -0.85654  -0.82898
  Beta  occ. eigenvalues --   -0.79382  -0.78769  -0.78565  -0.78510  -0.78430
  Beta  occ. eigenvalues --   -0.76844  -0.75006  -0.70893  -0.70002  -0.66810
  Beta  occ. eigenvalues --   -0.64597  -0.62601  -0.61636  -0.59346  -0.57422
  Beta  occ. eigenvalues --   -0.55425  -0.53975  -0.52602  -0.51697  -0.50268
  Beta  occ. eigenvalues --   -0.49513  -0.48903  -0.47701  -0.47518  -0.46857
  Beta  occ. eigenvalues --   -0.45687  -0.45034  -0.43914  -0.43205  -0.42756
  Beta  occ. eigenvalues --   -0.42339  -0.41175  -0.40342  -0.40104  -0.39762
  Beta  occ. eigenvalues --   -0.38754  -0.38458  -0.38256  -0.37967  -0.37652
  Beta  occ. eigenvalues --   -0.37206  -0.37027  -0.36424  -0.36256  -0.36203
  Beta  occ. eigenvalues --   -0.36041  -0.35447  -0.34223  -0.33539  -0.33342
  Beta  occ. eigenvalues --   -0.32809  -0.32615  -0.32166  -0.31443  -0.30508
  Beta  occ. eigenvalues --   -0.29804  -0.29561  -0.28536  -0.27554  -0.25474
  Beta virt. eigenvalues --   -0.15301  -0.14769  -0.13841  -0.13557  -0.13351
  Beta virt. eigenvalues --   -0.10066  -0.03315  -0.02462  -0.01617  -0.01091
  Beta virt. eigenvalues --   -0.00137   0.00020   0.00095   0.01422   0.01544

 Mulliken charges and spin densities:
               1          2
     1  C    0.161657  -0.000519
     2  C    3.025704   0.006217
     3  C   -0.585075  -0.005337
     4  C    0.018052   0.002640
     5  C    0.287725   0.000600
     6  C   -0.073459   0.002095
     7  C   -2.453561  -0.005289
     8  C    0.483844   0.006031
     9  C    0.544539   0.002070
    10  C    0.694255  -0.000621
    11  C    0.351663   0.012191
    12  C   -0.097957   0.020060
    13  C    0.119625  -0.001463
    14  O   -0.271595   0.122227
    15  Fe   0.639928   4.070162
    16  Cl  -0.501098   0.247811
    17  C    0.281516  -0.000442
    18  Cl  -0.461220   0.258612
    19  Cl  -0.475553   0.254707
    20  H   -0.240365   0.000129
    21  H   -0.157123   0.000014
    22  H   -0.151888  -0.000003
    23  H   -0.154764   0.000146
    24  H   -0.227073  -0.000108
    25  H   -0.180936  -0.000025
    26  C    0.734624  -0.000586
    27  H   -0.142018   0.000246
    28  H   -0.010840  -0.000030
    29  H   -0.088468   0.000058
    30  H   -0.117629   0.000928
    31  H   -0.263876  -0.000782
    32  H   -0.006217   0.000002
    33  H    0.070711   0.000877
    34  H   -0.020366   0.001145
    35  H   -0.003233   0.001247
    36  H    0.073687   0.002269
    37  H    0.015095  -0.000072
    38  O   -0.669147   0.002291
    39  O   -0.598031   0.000939
    40  C    0.426548   0.000901
    41  C    0.040928  -0.001157
    42  H   -0.033476   0.000055
    43  H   -0.034191   0.000024
    44  H   -0.006163   0.000035
    45  H    0.025897   0.000058
    46  H    0.029322  -0.000349
 Sum of Mulliken charges =  -0.00000   5.00000

 Dipole moment (field-independent basis, Debye):
    X=             10.5119    Y=             -3.2431    Z=             -1.8965  Tot=             11.1631
 Quadrupole moment (field-independent basis, Debye-Ang):
   XX=           -192.2558   YY=           -162.1637   ZZ=           -169.7917
   XY=             -9.2773   XZ=             10.9197   YZ=              5.6272

 Normal termination of Gaussian 16 at Sun Jun 20 19:44:10 2021.
