 Gaussian 16, Revision A.03,

 -----------------------------------------------------------
 #p opt=modredundant freq=noraman ub3lyp jul-cc-pvdz pop=cm5
 -----------------------------------------------------------

 -----
 title
 -----
 Symbolic Z-matrix:
 Charge =  0 Multiplicity = 6

 SCF Done:  E(UB3LYP) =  -3531.41591327     A.U. after   22 cycles
 SCF Done:  E(UB3LYP) =  -3531.41579845     A.U. after   16 cycles
 SCF Done:  E(UB3LYP) =  -3531.41273592     A.U. after   17 cycles
 SCF Done:  E(UB3LYP) =  -3531.41586222     A.U. after   15 cycles
 SCF Done:  E(UB3LYP) =  -3531.41628739     A.U. after   10 cycles
 SCF Done:  E(UB3LYP) =  -3531.41646556     A.U. after   15 cycles
 SCF Done:  E(UB3LYP) =  -3531.41646311     A.U. after   14 cycles
 SCF Done:  E(UB3LYP) =  -3531.41647972     A.U. after   14 cycles
 SCF Done:  E(UB3LYP) =  -3531.41649960     A.U. after   14 cycles
 SCF Done:  E(UB3LYP) =  -3531.41650176     A.U. after   13 cycles
 SCF Done:  E(UB3LYP) =  -3531.41650585     A.U. after   12 cycles
 SCF Done:  E(UB3LYP) =  -3531.41650595     A.U. after   11 cycles
 SCF Done:  E(UB3LYP) =  -3531.41650599     A.U. after   10 cycles
 SCF Done:  E(UB3LYP) =  -3531.41650604     A.U. after    9 cycles
 SCF Done:  E(UB3LYP) =  -3531.41650604     A.U. after    9 cycles
 SCF Done:  E(UB3LYP) =  -3531.41650608     A.U. after    9 cycles
 SCF Done:  E(UB3LYP) =  -3531.41650606     A.U. after    9 cycles
 Optimization completed.
    -- Stationary point found.
 Normal termination of Gaussian 16 at Sun Jun 20 04:32:06 2021.

 ----------------------------------------------------------------------
 #P Geom=AllCheck Guess=TCheck SCRF=Check GenChk UB3LYP/Jul-CC-pVDZ Fre
 q
 ----------------------------------------------------------------------

 Structure from the checkpoint file:  "checkpoint.chk"
 -----
 title
 -----
 Charge =  0 Multiplicity = 6

 SCF Done:  E(UB3LYP) =  -3531.41650606     A.U. after    2 cycles

  Exact polarizability: 285.272   3.313 301.735  23.437   6.414 284.595
 Approx polarizability: 417.787   3.073 477.588  43.426   7.502 449.942

 ******    1 imaginary frequencies (negative Signs) ******

                      1                      2                      3
                      A                      A                      A
 Frequencies --   -223.9559                21.5230                25.2111
 Red. masses --     10.5019                 6.6602                 5.2617
 Frc consts  --      0.3103                 0.0018                 0.0020
 IR Inten    --    210.7525                 0.1406                 0.7221

                      4                      5                      6
                      A                      A                      A
 Frequencies --     33.4308                46.4751                49.3430
 Red. masses --      5.6306                 4.6941                 4.8602
 Frc consts  --      0.0037                 0.0060                 0.0070
 IR Inten    --      0.6641                 0.3076                 2.0919

                      7                      8                      9
                      A                      A                      A
 Frequencies --     61.9359                69.2790                78.3560
 Red. masses --      2.4271                 5.2824                 9.6867
 Frc consts  --      0.0055                 0.0149                 0.0350
 IR Inten    --      0.0956                 1.2570                 0.8098

                     10                     11                     12
                      A                      A                      A
 Frequencies --     83.8665                90.6373               103.9554
 Red. masses --      9.2776                12.2518                 6.9835
 Frc consts  --      0.0384                 0.0593                 0.0445
 IR Inten    --      1.5289                 0.3353                 0.8621

                     13                     14                     15
                      A                      A                      A
 Frequencies --    114.3347               119.5302               122.3521
 Red. masses --     14.7996                 8.1915                 4.1352
 Frc consts  --      0.1140                 0.0690                 0.0365
 IR Inten    --      2.1033                 7.1582                 2.0734

                     16                     17                     18
                      A                      A                      A
 Frequencies --    130.6505               152.2393               170.2586
 Red. masses --      4.8465                 3.9270                 2.4318
 Frc consts  --      0.0487                 0.0536                 0.0415
 IR Inten    --      2.8673                 3.6441                 1.4152

                     19                     20                     21
                      A                      A                      A
 Frequencies --    185.1117               193.7578               200.0870
 Red. masses --      2.7366                 2.0712                 1.9268
 Frc consts  --      0.0552                 0.0458                 0.0454
 IR Inten    --      4.7432                 7.9876                 1.6395

                     22                     23                     24
                      A                      A                      A
 Frequencies --    223.5239               237.0095               245.3023
 Red. masses --      4.3431                 1.8139                 2.7080
 Frc consts  --      0.1278                 0.0600                 0.0960
 IR Inten    --      7.9730                 1.0175                 4.0377

                     25                     26                     27
                      A                      A                      A
 Frequencies --    252.1446               258.4851               292.8053
 Red. masses --      1.4932                 1.8492                 3.5206
 Frc consts  --      0.0559                 0.0728                 0.1778
 IR Inten    --      2.4623                 0.6535                 3.4887

                     28                     29                     30
                      A                      A                      A
 Frequencies --    313.4482               341.2862               345.5155
 Red. masses --      2.7959                 5.8710                 7.3563
 Frc consts  --      0.1618                 0.4029                 0.5174
 IR Inten    --      0.6714                10.9685                22.2809

                     31                     32                     33
                      A                      A                      A
 Frequencies --    358.3709               379.7890               387.4606
 Red. masses --      3.8279                 3.2707                25.8687
 Frc consts  --      0.2897                 0.2780                 2.2881
 IR Inten    --      8.2916                 4.7294                78.9273

                     34                     35                     36
                      A                      A                      A
 Frequencies --    398.0813               399.6620               404.8593
 Red. masses --     12.9748                 4.7137                 4.6741
 Frc consts  --      1.2114                 0.4436                 0.4514
 IR Inten    --     79.4372                11.8548                27.1101

                     37                     38                     39
                      A                      A                      A
 Frequencies --    410.4536               467.0899               513.0953
 Red. masses --      2.9481                 3.6463                 3.1607
 Frc consts  --      0.2926                 0.4687                 0.4903
 IR Inten    --      1.0099                 2.8066                 7.4182

                     40                     41                     42
                      A                      A                      A
 Frequencies --    524.0190               543.7991               621.2642
 Red. masses --      2.7699                 3.0429                 4.4514
 Frc consts  --      0.4481                 0.5302                 1.0123
 IR Inten    --      5.7821                14.2634                13.1612

                     43                     44                     45
                      A                      A                      A
 Frequencies --    628.9213               661.7853               681.0477
 Red. masses --      6.0078                 3.8174                 4.3312
 Frc consts  --      1.4001                 0.9850                 1.1836
 IR Inten    --      4.3223                 7.1325                14.4816

                     46                     47                     48
                      A                      A                      A
 Frequencies --    706.9701               740.5688               757.8827
 Red. masses --      1.5978                 4.3086                 3.1520
 Frc consts  --      0.4705                 1.3923                 1.0667
 IR Inten    --     42.5421                31.5335                 5.7194

                     49                     50                     51
                      A                      A                      A
 Frequencies --    783.4323               791.7009               806.6534
 Red. masses --      3.1455                 3.3105                 1.1580
 Frc consts  --      1.1375                 1.2226                 0.4440
 IR Inten    --     13.3444                 6.4220                 0.4479

                     52                     53                     54
                      A                      A                      A
 Frequencies --    844.7868               848.0977               872.2126
 Red. masses --      1.3028                 2.2776                 2.6892
 Frc consts  --      0.5478                 0.9652                 1.2054
 IR Inten    --      3.3553                23.2361                11.7986

                     55                     56                     57
                      A                      A                      A
 Frequencies --    875.1266               893.7154               926.9377
 Red. masses --      3.2528                 1.3595                 1.4968
 Frc consts  --      1.4677                 0.6398                 0.7577
 IR Inten    --      5.1408                 4.0384                19.7432

                     58                     59                     60
                      A                      A                      A
 Frequencies --    934.4099               941.2725               966.5330
 Red. masses --      2.4469                 2.2130                 3.3072
 Frc consts  --      1.2587                 1.1552                 1.8203
 IR Inten    --      4.6305                54.0683                68.2729

                     61                     62                     63
                      A                      A                      A
 Frequencies --    980.7933               983.8515              1001.1289
 Red. masses --      1.3881                 2.6132                 1.3200
 Frc consts  --      0.7867                 1.4903                 0.7795
 IR Inten    --      0.7400                48.2225                 0.7582

                     64                     65                     66
                      A                      A                      A
 Frequencies --   1004.9694              1006.7971              1016.6209
 Red. masses --      4.4460                 1.5401                 2.4824
 Frc consts  --      2.6456                 0.9198                 1.5116
 IR Inten    --      1.7471                 3.1213                35.7582

                     67                     68                     69
                      A                      A                      A
 Frequencies --   1036.9856              1047.3446              1050.6096
 Red. masses --      2.5359                 2.8256                 2.0216
 Frc consts  --      1.6066                 1.8262                 1.3147
 IR Inten    --     16.9551                30.4914                13.0561

                     70                     71                     72
                      A                      A                      A
 Frequencies --   1059.5059              1089.6280              1103.5203
 Red. masses --      1.9775                 1.9683                 1.9035
 Frc consts  --      1.3079                 1.3769                 1.3657
 IR Inten    --      4.8867                33.9182                 2.7244

                     73                     74                     75
                      A                      A                      A
 Frequencies --   1115.6206              1132.8544              1140.5087
 Red. masses --      1.8434                 2.1768                 1.5804
 Frc consts  --      1.3518                 1.6460                 1.2112
 IR Inten    --      5.6984                 7.8214                13.7351

                     76                     77                     78
                      A                      A                      A
 Frequencies --   1160.5820              1169.5422              1175.2631
 Red. masses --      1.6469                 1.5615                 1.0859
 Frc consts  --      1.3070                 1.2584                 0.8837
 IR Inten    --     34.7067                 1.8106                 0.0770

                     79                     80                     81
                      A                      A                      A
 Frequencies --   1198.2673              1209.1627              1225.4105
 Red. masses --      1.9322                 1.1612                 1.8706
 Frc consts  --      1.6346                 1.0003                 1.6550
 IR Inten    --    133.8237                 8.2754               102.2305

                     82                     83                     84
                      A                      A                      A
 Frequencies --   1250.3540              1259.3781              1283.1968
 Red. masses --      1.7874                 2.2842                 1.1073
 Frc consts  --      1.6464                 2.1345                 1.0742
 IR Inten    --     23.5329                53.7912                 1.4739

                     85                     86                     87
                      A                      A                      A
 Frequencies --   1298.7576              1307.6588              1316.7066
 Red. masses --      1.6405                 2.1766                 1.3531
 Frc consts  --      1.6303                 2.1929                 1.3821
 IR Inten    --     61.9537                 3.8821                 1.4977

                     88                     89                     90
                      A                      A                      A
 Frequencies --   1324.8133              1334.2873              1359.5373
 Red. masses --      1.6924                 2.0315                 2.1913
 Frc consts  --      1.7501                 2.1309                 2.3863
 IR Inten    --     39.3226                20.2278                 0.0264

                     91                     92                     93
                      A                      A                      A
 Frequencies --   1365.2253              1376.9621              1390.7654
 Red. masses --      1.3765                 1.3586                 1.5502
 Frc consts  --      1.5116                 1.5177                 1.7666
 IR Inten    --     22.7155                17.8450                66.1712

                     94                     95                     96
                      A                      A                      A
 Frequencies --   1399.2277              1406.6301              1416.6058
 Red. masses --      1.2448                 1.4696                 1.5063
 Frc consts  --      1.4359                 1.7132                 1.7810
 IR Inten    --     29.5056                24.7505                 5.4248

                     97                     98                     99
                      A                      A                      A
 Frequencies --   1446.6519              1466.6751              1469.6029
 Red. masses --      1.1063                 1.6290                 1.3607
 Frc consts  --      1.3641                 2.0646                 1.7315
 IR Inten    --      0.6129                 7.2990                 1.9358

                    100                    101                    102
                      A                      A                      A
 Frequencies --   1473.6488              1475.6201              1487.7463
 Red. masses --      1.0392                 1.1147                 1.0774
 Frc consts  --      1.3297                 1.4301                 1.4051
 IR Inten    --      3.7561                 0.6928                 5.1740

                    103                    104                    105
                      A                      A                      A
 Frequencies --   1488.0366              1498.8975              1507.3119
 Red. masses --      1.0552                 1.0932                 1.0842
 Frc consts  --      1.3766                 1.4471                 1.4513
 IR Inten    --      0.3906                12.8908                 6.0225

                    106                    107                    108
                      A                      A                      A
 Frequencies --   1510.8026              1523.8601              1624.7334
 Red. masses --      1.0828                 2.2394                 5.6274
 Frc consts  --      1.4562                 3.0638                 8.7522
 IR Inten    --      3.1980                 3.5885                 0.5982

                    109                    110                    111
                      A                      A                      A
 Frequencies --   1647.4287              1772.3220              3007.7415
 Red. masses --      5.7646                11.6090                 1.0499
 Frc consts  --      9.2179                21.4848                 5.5962
 IR Inten    --      0.0660               208.2451                 1.3183

                    112                    113                    114
                      A                      A                      A
 Frequencies --   3019.2305              3039.7531              3058.7089
 Red. masses --      1.0499                 1.0356                 1.0584
 Frc consts  --      5.6390                 5.6377                 5.8342
 IR Inten    --      8.6968                20.5869                12.6373

                    115                    116                    117
                      A                      A                      A
 Frequencies --   3059.9192              3065.7342              3080.5066
 Red. masses --      1.0602                 1.0617                 1.0854
 Frc consts  --      5.8486                 5.8794                 6.0685
 IR Inten    --     15.7452                33.9321                 7.7212

                    118                    119                    120
                      A                      A                      A
 Frequencies --   3096.7728              3102.7566              3109.8655
 Red. masses --      1.1035                 1.1065                 1.0815
 Frc consts  --      6.2348                 6.2764                 6.1628
 IR Inten    --      8.4911                 7.4722                 1.4715

                    121                    122                    123
                      A                      A                      A
 Frequencies --   3115.2600              3115.4280              3117.4885
 Red. masses --      1.0996                 1.1014                 1.0873
 Frc consts  --      6.2877                 6.2985                 6.2258
 IR Inten    --      3.8374                25.9197                 9.7278

                    124                    125                    126
                      A                      A                      A
 Frequencies --   3129.5400              3133.8617              3162.6487
 Red. masses --      1.0889                 1.1044                 1.1060
 Frc consts  --      6.2832                 6.3906                 6.5178
 IR Inten    --     13.0154                21.5594                 1.6012

                    127                    128                    129
                      A                      A                      A
 Frequencies --   3166.2659              3169.2877              3179.3027
 Red. masses --      1.1050                 1.0847                 1.0881
 Frc consts  --      6.5269                 6.4193                 6.4802
 IR Inten    --      4.2238                 0.3215                 6.5368

                    130                    131                    132
                      A                      A                      A
 Frequencies --   3188.2267              3194.9087              3200.1730
 Red. masses --      1.0917                 1.0944                 1.0982
 Frc consts  --      6.5382                 6.5815                 6.6266
 IR Inten    --     17.4024                 5.0188                10.3284

 - Thermochemistry -
 -------------------
 Temperature   298.150 Kelvin.  Pressure   1.00000 Atm.
 Atom     1 has atomic number  6 and mass  12.00000

 Molecular mass:   434.99839 amu.
 Principal axes and moments of inertia in atomic units:
                           1         2         3
     Eigenvalues --  9042.81097********************
           X            0.99617   0.08619   0.01496
           Y           -0.08642   0.99614   0.01546
           Z           -0.01357  -0.01670   0.99977
 This molecule is an asymmetric top.
 Rotational symmetry number  1.
 Warning -- assumption of classical behavior for rotation
           may cause significant error
 Rotational temperatures (Kelvin)      0.00958     0.00749     0.00684
 Rotational constants (GHZ):           0.19958     0.15614     0.14254
    1 imaginary frequencies ignored.
 Zero-point vibrational energy     942284.4 (Joules/Mol)
                                  225.21137 (Kcal/Mol)
 Warning -- explicit consideration of  40 degrees of freedom as
           vibrations may cause significant error
 Vibrational temperatures:     30.97    36.27    48.10    66.87    70.99
          (Kelvin)             89.11    99.68   112.74   120.67   130.41
                              149.57   164.50   171.98   176.04   187.98
                              219.04   244.96   266.33   278.77   287.88
                              321.60   341.00   352.94   362.78   371.90
                              421.28   450.98   491.03   497.12   515.62
                              546.43   557.47   572.75   575.02   582.50
                              590.55   672.04   738.23   753.95   782.41
                              893.86   904.88   952.16   979.88  1017.17
                             1065.51  1090.42  1127.18  1139.08  1160.59
                             1215.46  1220.22  1254.92  1259.11  1285.86
                             1333.66  1344.41  1354.28  1390.63  1411.14
                             1415.54  1440.40  1445.93  1448.56  1462.69
                             1491.99  1506.90  1511.59  1524.39  1567.73
                             1587.72  1605.13  1629.92  1640.94  1669.82
                             1682.71  1690.94  1724.04  1739.72  1763.09
                             1798.98  1811.96  1846.23  1868.62  1881.43
                             1894.45  1906.11  1919.74  1956.07  1964.25
                             1981.14  2001.00  2013.18  2023.83  2038.18
                             2081.41  2110.22  2114.43  2120.25  2123.09
                             2140.54  2140.95  2156.58  2168.69  2173.71
                             2192.49  2337.63  2370.28  2549.98  4327.47
                             4344.00  4373.53  4400.80  4402.54  4410.91
                             4432.16  4455.57  4464.17  4474.40  4482.16
                             4482.41  4485.37  4502.71  4508.93  4550.35
                             4555.55  4559.90  4574.31  4587.15  4596.76
                             4604.34

 Zero-point correction=                           0.358897 (Hartree/Particle)
 Thermal correction to Energy=                    0.385924
 Thermal correction to Enthalpy=                  0.386869
 Thermal correction to Gibbs Free Energy=         0.297381
 Sum of electronic and zero-point Energies=          -3531.057609
 Sum of electronic and thermal Energies=             -3531.030582
 Sum of electronic and thermal Enthalpies=           -3531.029637
 Sum of electronic and thermal Free Energies=        -3531.119125

                     E (Thermal)             CV                S
                      KCal/Mol        Cal/Mol-Kelvin    Cal/Mol-Kelvin
 Total                  242.171             97.056            188.343
 Electronic               0.000              0.000              3.561
 Translational            0.889              2.981             44.100
 Rotational               0.889              2.981             35.536
 Vibrational            240.394             91.094            105.147
 Vibration     1          0.593              1.985              6.488
 Vibration     2          0.593              1.985              6.175
 Vibration     3          0.594              1.983              5.615
 Vibration     4          0.595              1.979              4.962
 Vibration     5          0.595              1.978              4.844
 Vibration     6          0.597              1.972              4.395
 Vibration     7          0.598              1.969              4.174
 Vibration     8          0.600              1.964              3.932
 Vibration     9          0.601              1.960              3.798
 Vibration    10          0.602              1.956              3.646
 Vibration    11          0.605              1.946              3.379
 Vibration    12          0.607              1.938              3.194
 Vibration    13          0.609              1.933              3.108
 Vibration    14          0.610              1.930              3.063
 Vibration    15          0.612              1.923              2.936
 Vibration    16          0.619              1.900              2.644
 Vibration    17          0.625              1.879              2.433
 Vibration    18          0.631              1.860              2.276
 Vibration    19          0.635              1.849              2.192
 Vibration    20          0.638              1.840              2.132
 Vibration    21          0.649              1.805              1.930
 Vibration    22          0.656              1.784              1.825
 Vibration    23          0.660              1.771              1.764
 Vibration    24          0.664              1.759              1.716
 Vibration    25          0.667              1.748              1.672
 Vibration    26          0.688              1.687              1.458
 Vibration    27          0.701              1.648              1.344
 Vibration    28          0.721              1.593              1.206
 Vibration    29          0.724              1.584              1.187
 Vibration    30          0.733              1.558              1.129
 Vibration    31          0.750              1.513              1.040
 Vibration    32          0.756              1.497              1.010
 Vibration    33          0.764              1.474              0.970
 Vibration    34          0.766              1.471              0.964
 Vibration    35          0.770              1.460              0.945
 Vibration    36          0.775              1.448              0.925
 Vibration    37          0.824              1.323              0.746
 Vibration    38          0.868              1.221              0.626
 Vibration    39          0.879              1.197              0.601
 Vibration    40          0.899              1.153              0.557

                           ! Non-Optimized Parameters !
 Normal termination of Gaussian 16 at Sun Jun 20 08:38:01 2021.

 ----------------------------------------------------------------------
 #p ub3lyp jul-cc-pvdz pop=cm5 scrf=(pcm,solvent=dichloroethane) guess=
 read geom=allcheck
 ----------------------------------------------------------------------

 Structure from the checkpoint file:  "checkpoint.chk"
 -----
 title
 -----
 Charge =  0 Multiplicity = 6

 SCF Done:  E(UB3LYP) =  -3531.43774843     A.U. after   17 cycles
 Normal termination of Gaussian 16 at Sun Jun 20 09:02:39 2021.
 Gaussian 16:  ES64L-G16RevA.03 25-Dec-2016

 ----------------------------------------------------------------------
 #p ub3lyp jul-cc-pvdz pop=cm5 scrf=(pcm,solvent=water) guess=read geom
 =allcheck
 ----------------------------------------------------------------------

 Structure from the checkpoint file:  "checkpoint.chk"
 -----
 title
 -----
 Charge =  0 Multiplicity = 6

                         Standard orientation:
 ---------------------------------------------------------------------
 Center     Atomic      Atomic             Coordinates (Angstroms)
 Number     Number       Type             X           Y           Z
 ---------------------------------------------------------------------
      1          6           0        1.870886   -2.060821    1.644593
      2          6           0        1.212817   -0.974868    1.049101
      3          6           0        1.193503    0.251674    1.731191
      4          6           0        1.791765    0.378804    2.985684
      5          6           0        2.436275   -0.712338    3.575164
      6          6           0        2.479749   -1.931592    2.896252
      7          6           0        0.602419   -1.087821   -0.329085
      8          6           0        1.528590   -0.657914   -1.515309
      9          6           0        2.155797   -1.969093   -2.019465
     10          6           0        1.010856   -3.003254   -2.023549
     11          6           0        0.127481   -2.644229   -0.821041
     12          6           0       -1.326924   -2.215333   -1.018593
     13          6           0       -1.884797   -1.991527   -2.383094
     14          8           0       -0.739196   -0.502098   -0.444654
     15         26           0       -1.944309    0.881698    0.288966
     16         17           0       -3.724129    0.766909   -1.033956
     17          6           0       -2.291178   -2.659604    0.030334
     18         17           0       -1.024021    2.882113    0.199047
     19         17           0       -2.491848    0.285648    2.342726
     20          1           0        0.714987    1.123600    1.287756
     21          1           0        1.749888    1.337850    3.503436
     22          1           0        2.902968   -0.611858    4.556054
     23          1           0        2.986313   -2.789938    3.339731
     24          1           0        1.928140   -3.021642    1.134012
     25          1           0        0.867697   -0.227423   -2.278275
     26          6           0        2.587475    0.382632   -1.175704
     27          1           0        2.618257   -1.843521   -3.007358
     28          1           0        2.953804   -2.268172   -1.326865
     29          1           0        0.453213   -2.947762   -2.967198
     30          1           0        1.392971   -4.029453   -1.945450
     31          1           0        0.195147   -3.364208   -0.001436
     32          1           0       -2.506241   -3.722524   -0.183042
     33          1           0       -1.863143   -2.597158    1.036201
     34          1           0       -3.234654   -2.104549   -0.011572
     35          1           0       -2.135465   -2.985084   -2.794892
     36          1           0       -2.804622   -1.399218   -2.334452
     37          1           0       -1.174053   -1.512765   -3.062837
     38          8           0        2.136857    1.626895   -1.409547
     39          8           0        3.699746    0.122948   -0.767575
     40          6           0        3.054252    2.715959   -1.105587
     41          6           0        2.414898    4.003301   -1.584059
     42          1           0        3.231220    2.716408   -0.021327
     43          1           0        4.010216    2.509499   -1.604811
     44          1           0        3.080364    4.846877   -1.349971
     45          1           0        2.253356    3.982026   -2.670904
     46          1           0        1.449182    4.169645   -1.089564
 ---------------------------------------------------------------------

 SCF Done:  E(UB3LYP) =  -3531.44184021     A.U. after   14 cycles

 The electronic state is 6-A.
 Alpha  occ. eigenvalues -- -256.21219-101.52805-101.52658-101.52534 -30.20594
 Alpha  occ. eigenvalues --  -26.05942 -26.05830 -26.05718 -19.20279 -19.19373
 Alpha  occ. eigenvalues --  -19.15156 -10.32788 -10.31205 -10.29232 -10.24726
 Alpha  occ. eigenvalues --  -10.22645 -10.21843 -10.21531 -10.20772 -10.20674
 Alpha  occ. eigenvalues --  -10.20481 -10.20267 -10.20252 -10.20214 -10.20164
 Alpha  occ. eigenvalues --  -10.19992 -10.19855 -10.18562  -9.44526  -9.44384
 Alpha  occ. eigenvalues --   -9.44262  -7.20392  -7.20255  -7.20135  -7.20082
 Alpha  occ. eigenvalues --   -7.20065  -7.19940  -7.19916  -7.19807  -7.19805
 Alpha  occ. eigenvalues --   -3.68238  -2.45765  -2.45618  -2.45362  -1.11998
 Alpha  occ. eigenvalues --   -1.03704  -1.03540  -0.87591  -0.86167  -0.83884
 Alpha  occ. eigenvalues --   -0.80768  -0.80036  -0.79876  -0.78629  -0.77717
 Alpha  occ. eigenvalues --   -0.76094  -0.74743  -0.73058  -0.71205  -0.66401
 Alpha  occ. eigenvalues --   -0.63960  -0.62092  -0.60923  -0.59385  -0.56864
 Alpha  occ. eigenvalues --   -0.56013  -0.54209  -0.52577  -0.51284  -0.50391
 Alpha  occ. eigenvalues --   -0.49941  -0.49356  -0.48974  -0.48521  -0.48342
 Alpha  occ. eigenvalues --   -0.47996  -0.47513  -0.47166  -0.46346  -0.45931
 Alpha  occ. eigenvalues --   -0.45572  -0.44635  -0.43975  -0.43217  -0.42868
 Alpha  occ. eigenvalues --   -0.42129  -0.41436  -0.40541  -0.40065  -0.39771
 Alpha  occ. eigenvalues --   -0.39312  -0.39085  -0.38015  -0.37648  -0.37195
 Alpha  occ. eigenvalues --   -0.36865  -0.36517  -0.36084  -0.35741  -0.35543
 Alpha  occ. eigenvalues --   -0.34806  -0.34306  -0.34058  -0.32813  -0.31916
 Alpha  occ. eigenvalues --   -0.31434  -0.31335  -0.31208  -0.31031  -0.30308
 Alpha  occ. eigenvalues --   -0.30033  -0.29952  -0.28946  -0.26812  -0.26347
 Alpha virt. eigenvalues --   -0.08012  -0.03477  -0.02935  -0.01481  -0.01281
 Alpha virt. eigenvalues --   -0.00173  -0.00056   0.00113   0.01470   0.01651
 Alpha virt. eigenvalues --    0.01747   0.01850   0.02397   0.03237   0.03804

  Beta  occ. eigenvalues -- -256.21033-101.52615-101.52469-101.52342 -30.11678
  Beta  occ. eigenvalues --  -25.98429 -25.98415 -25.98348 -19.20279 -19.18912
  Beta  occ. eigenvalues --  -19.15153 -10.32788 -10.31197 -10.29203 -10.24726
  Beta  occ. eigenvalues --  -10.22629 -10.21833 -10.21526 -10.20771 -10.20670
  Beta  occ. eigenvalues --  -10.20479 -10.20267 -10.20251 -10.20213 -10.20163
  Beta  occ. eigenvalues --  -10.19990 -10.19853 -10.18560  -9.44340  -9.44199
  Beta  occ. eigenvalues --   -9.44074  -7.20087  -7.19941  -7.19820  -7.19819
  Beta  occ. eigenvalues --   -7.19807  -7.19681  -7.19669  -7.19549  -7.19547
  Beta  occ. eigenvalues --   -3.47439  -2.23755  -2.23621  -2.23605  -1.11996
  Beta  occ. eigenvalues --   -1.03548  -1.02815  -0.87528  -0.86039  -0.83853
  Beta  occ. eigenvalues --   -0.79543  -0.78768  -0.78581  -0.78551  -0.77664
  Beta  occ. eigenvalues --   -0.76086  -0.74720  -0.73042  -0.71043  -0.66347
  Beta  occ. eigenvalues --   -0.63926  -0.62072  -0.60889  -0.59214  -0.56800
  Beta  occ. eigenvalues --   -0.55479  -0.54176  -0.51815  -0.51210  -0.50015
  Beta  occ. eigenvalues --   -0.49672  -0.48844  -0.47712  -0.47233  -0.46391
  Beta  occ. eigenvalues --   -0.45808  -0.44657  -0.43970  -0.43264  -0.42878
  Beta  occ. eigenvalues --   -0.42164  -0.41407  -0.40532  -0.40051  -0.39717
  Beta  occ. eigenvalues --   -0.39323  -0.38624  -0.38039  -0.37757  -0.37211
  Beta  occ. eigenvalues --   -0.36865  -0.36830  -0.36329  -0.36263  -0.35961
  Beta  occ. eigenvalues --   -0.35690  -0.35467  -0.34220  -0.33605  -0.33501
  Beta  occ. eigenvalues --   -0.32934  -0.32680  -0.31957  -0.31615  -0.30908
  Beta  occ. eigenvalues --   -0.30152  -0.29987  -0.28919  -0.26801  -0.26316
  Beta virt. eigenvalues --   -0.15217  -0.14776  -0.13903  -0.13633  -0.13218
  Beta virt. eigenvalues --   -0.07480  -0.03399  -0.02904  -0.01375  -0.01241
  Beta virt. eigenvalues --   -0.00110  -0.00033   0.00137   0.01495   0.01676

 Mulliken charges and spin densities:
               1          2
     1  C   -0.266818   0.005285
     2  C    3.336806  -0.005246
     3  C   -0.385519  -0.013817
     4  C    0.030866  -0.000281
     5  C    0.228426  -0.000517
     6  C   -0.171810   0.001327
     7  C   -2.474994   0.030167
     8  C    0.261157   0.000525
     9  C    0.499241   0.001452
    10  C    0.565360   0.001161
    11  C    0.896529   0.005454
    12  C   -0.832767   0.010044
    13  C    0.428734  -0.004143
    14  O   -0.262894   0.131914
    15  Fe   0.588943   4.053603
    16  Cl  -0.492518   0.258381
    17  C    0.457098   0.001147
    18  Cl  -0.454185   0.262544
    19  Cl  -0.459740   0.255337
    20  H   -0.317016   0.000977
    21  H   -0.162771   0.000008
    22  H   -0.162794   0.000033
    23  H   -0.158297   0.000048
    24  H   -0.201694   0.000018
    25  H   -0.207987   0.000039
    26  C    1.003098   0.002471
    27  H   -0.141894   0.000421
    28  H   -0.050682   0.000014
    29  H   -0.093379  -0.000034
    30  H   -0.118930   0.000455
    31  H   -0.230606   0.001154
    32  H    0.036138   0.000116
    33  H    0.057193  -0.000666
    34  H    0.037347  -0.000062
    35  H    0.059210   0.002273
    36  H    0.034517  -0.000538
    37  H    0.049512  -0.000236
    38  O   -0.696035  -0.000851
    39  O   -0.657074   0.000731
    40  C    0.415973  -0.001167
    41  C    0.058631   0.001065
    42  H   -0.041412   0.000016
    43  H   -0.048586  -0.000006
    44  H   -0.003961   0.000070
    45  H    0.021874  -0.000009
    46  H    0.027712  -0.000675
 Sum of Mulliken charges =  -0.00000   5.00000

 Dipole moment (field-independent basis, Debye):
    X=              3.8820    Y=             -9.7967    Z=             -4.9549  Tot=             11.6446
 Quadrupole moment (field-independent basis, Debye-Ang):
   XX=           -200.3901   YY=           -151.4388   ZZ=           -167.4472
   XY=             19.9021   XZ=              8.6158   YZ=              6.9961

 Normal termination of Gaussian 16 at Sun Jun 20 09:22:53 2021.
