 Gaussian 16, Revision A.03,

 -----------------------------------------------------------
 #p opt=modredundant freq=noraman ub3lyp jul-cc-pvdz pop=cm5
 -----------------------------------------------------------

 -----
 title
 -----
 Symbolic Z-matrix:
 Charge =  0 Multiplicity = 6

 SCF Done:  E(UB3LYP) =  -3531.40674034     A.U. after   25 cycles
 SCF Done:  E(UB3LYP) =  -3531.40719106     A.U. after   15 cycles
 SCF Done:  E(UB3LYP) =  -3531.40625086     A.U. after   15 cycles
 SCF Done:  E(UB3LYP) =  -3531.40729980     A.U. after   15 cycles
 SCF Done:  E(UB3LYP) =  -3531.40733172     A.U. after   14 cycles
 SCF Done:  E(UB3LYP) =  -3531.40737988     A.U. after   14 cycles
 SCF Done:  E(UB3LYP) =  -3531.40739028     A.U. after   14 cycles
 SCF Done:  E(UB3LYP) =  -3531.40739369     A.U. after   13 cycles
 SCF Done:  E(UB3LYP) =  -3531.40739601     A.U. after   11 cycles
 SCF Done:  E(UB3LYP) =  -3531.40739809     A.U. after   13 cycles
 SCF Done:  E(UB3LYP) =  -3531.40739869     A.U. after   11 cycles
 SCF Done:  E(UB3LYP) =  -3531.40739937     A.U. after   11 cycles
 SCF Done:  E(UB3LYP) =  -3531.40740000     A.U. after   10 cycles
 SCF Done:  E(UB3LYP) =  -3531.40740024     A.U. after   10 cycles
 SCF Done:  E(UB3LYP) =  -3531.40740030     A.U. after    9 cycles
 SCF Done:  E(UB3LYP) =  -3531.40740027     A.U. after    9 cycles
 Optimization completed.
    -- Stationary point found.
 Normal termination of Gaussian 16 at Sun Jun 20 02:27:40 2021.

 ----------------------------------------------------------------------
 #P Geom=AllCheck Guess=TCheck SCRF=Check GenChk UB3LYP/Jul-CC-pVDZ Fre
 q
 ----------------------------------------------------------------------

 Structure from the checkpoint file:  "checkpoint.chk"
 -----
 title
 -----
 Charge =  0 Multiplicity = 6

 SCF Done:  E(UB3LYP) =  -3531.40740027     A.U. after    2 cycles

  Exact polarizability: 327.097   8.524 289.486  14.721  15.749 288.772
 Approx polarizability: 499.504  16.079 433.209  15.078  35.214 476.325

 ******    1 imaginary frequencies (negative Signs) ******

                      1                      2                      3
                      A                      A                      A
 Frequencies --   -544.4092                15.6733                22.0820
 Red. masses --      9.7576                 5.3070                 6.4096
 Frc consts  --      1.7039                 0.0008                 0.0018
 IR Inten    --    149.4576                 0.8925                 1.3179

                      4                      5                      6
                      A                      A                      A
 Frequencies --     38.2715                42.7023                45.3004
 Red. masses --      5.3566                 6.1330                 3.6500
 Frc consts  --      0.0046                 0.0066                 0.0044
 IR Inten    --      0.3024                 1.0509                 1.0613

                      7                      8                      9
                      A                      A                      A
 Frequencies --     56.1874                63.0389                69.6628
 Red. masses --      2.8917                 5.8959                 5.9649
 Frc consts  --      0.0054                 0.0138                 0.0171
 IR Inten    --      0.5407                 0.6004                 2.1991

                     10                     11                     12
                      A                      A                      A
 Frequencies --     85.2938                87.7812                99.5142
 Red. masses --     11.6552                 7.2966                 9.0115
 Frc consts  --      0.0500                 0.0331                 0.0526
 IR Inten    --      1.2276                 1.1909                 0.6369

                     13                     14                     15
                      A                      A                      A
 Frequencies --    106.8973               115.1943               120.7037
 Red. masses --      6.0368                 3.2918                11.6853
 Frc consts  --      0.0406                 0.0257                 0.1003
 IR Inten    --      6.4511                 0.3606                 1.0350

                     16                     17                     18
                      A                      A                      A
 Frequencies --    131.8544               145.2058               149.0131
 Red. masses --      6.5295                 1.4651                 3.1722
 Frc consts  --      0.0669                 0.0182                 0.0415
 IR Inten    --      1.4795                 4.0622                 0.2556

                     19                     20                     21
                      A                      A                      A
 Frequencies --    170.7376               174.8950               192.3318
 Red. masses --      2.5654                 2.1950                 2.4054
 Frc consts  --      0.0441                 0.0396                 0.0524
 IR Inten    --      3.4929                 6.7105                 2.4674

                     22                     23                     24
                      A                      A                      A
 Frequencies --    195.4463               215.8467               234.3802
 Red. masses --      1.4616                 2.9907                 4.8424
 Frc consts  --      0.0329                 0.0821                 0.1567
 IR Inten    --      6.4281                 9.3547                 6.0665

                     25                     26                     27
                      A                      A                      A
 Frequencies --    251.5317               260.7391               292.9180
 Red. masses --      2.2984                 2.3448                 4.4452
 Frc consts  --      0.0857                 0.0939                 0.2247
 IR Inten    --      6.5477                 9.0957                 4.3189

                     28                     29                     30
                      A                      A                      A
 Frequencies --    311.2137               321.3380               333.7611
 Red. masses --      3.0189                 3.7681                26.2608
 Frc consts  --      0.1723                 0.2292                 1.7236
 IR Inten    --      9.8917                24.3705                51.1648

                     31                     32                     33
                      A                      A                      A
 Frequencies --    354.5477               372.4341               373.5317
 Red. masses --      7.1942                31.4809                 3.6584
 Frc consts  --      0.5328                 2.5727                 0.3007
 IR Inten    --      6.1094                84.3976                 4.9584

                     34                     35                     36
                      A                      A                      A
 Frequencies --    390.6788               410.0332               410.5486
 Red. masses --     28.1867                 3.1381                 2.9449
 Frc consts  --      2.5347                 0.3109                 0.2925
 IR Inten    --     77.8071                 5.3706                 5.8856

                     37                     38                     39
                      A                      A                      A
 Frequencies --    430.0077               463.0788               475.8774
 Red. masses --      3.9114                 4.0645                 3.2822
 Frc consts  --      0.4261                 0.5135                 0.4379
 IR Inten    --     17.4693                 4.1259                33.8374

                     40                     41                     42
                      A                      A                      A
 Frequencies --    505.1636               529.9860               580.0573
 Red. masses --      2.4554                 3.1929                 3.2446
 Frc consts  --      0.3692                 0.5284                 0.6432
 IR Inten    --      6.1711                 4.3845                41.9954

                     43                     44                     45
                      A                      A                      A
 Frequencies --    612.9214               628.3866               656.8816
 Red. masses --      3.3766                 5.8074                 5.4468
 Frc consts  --      0.7474                 1.3511                 1.3847
 IR Inten    --     25.5190                 3.4298                58.6242

                     46                     47                     48
                      A                      A                      A
 Frequencies --    700.3809               712.5891               763.4916
 Red. masses --      1.8459                 3.3595                 2.9253
 Frc consts  --      0.5335                 1.0051                 1.0047
 IR Inten    --     26.5693                59.3483                 0.9536

                     49                     50                     51
                      A                      A                      A
 Frequencies --    767.8307               804.9916               805.1058
 Red. masses --      3.5200                 2.0004                 1.3414
 Frc consts  --      1.2227                 0.7638                 0.5123
 IR Inten    --     15.6784                 3.4562                 4.4120

                     52                     53                     54
                      A                      A                      A
 Frequencies --    832.6140               838.8222               843.8056
 Red. masses --      1.7743                 2.4553                 1.3079
 Frc consts  --      0.7247                 1.0179                 0.5487
 IR Inten    --      9.3727                16.8294                 2.1913

                     55                     56                     57
                      A                      A                      A
 Frequencies --    862.1455               876.8201               919.4176
 Red. masses --      2.2211                 2.1375                 2.5100
 Frc consts  --      0.9727                 0.9682                 1.2501
 IR Inten    --     15.2036                15.5143                 7.1279

                     58                     59                     60
                      A                      A                      A
 Frequencies --    932.1748               956.8290               981.7946
 Red. masses --      1.4594                 2.1345                 1.4549
 Frc consts  --      0.7472                 1.1514                 0.8262
 IR Inten    --      3.1144                19.4699                 2.8353

                     61                     62                     63
                      A                      A                      A
 Frequencies --    985.7609               987.8305               999.8777
 Red. masses --      1.9601                 2.0413                 1.5197
 Frc consts  --      1.1222                 1.1736                 0.8952
 IR Inten    --     10.7359                34.3415                 1.8300

                     64                     65                     66
                      A                      A                      A
 Frequencies --   1006.5036              1009.3743              1013.0653
 Red. masses --      3.4405                 2.0754                 1.5517
 Frc consts  --      2.0536                 1.2458                 0.9383
 IR Inten    --      1.7005                23.7675                 7.9715

                     67                     68                     69
                      A                      A                      A
 Frequencies --   1033.4520              1041.6526              1047.6812
 Red. masses --      1.7378                 3.0233                 2.2223
 Frc consts  --      1.0935                 1.9328                 1.4372
 IR Inten    --     69.2093                18.8294                11.1306

                     70                     71                     72
                      A                      A                      A
 Frequencies --   1066.3531              1081.3816              1099.1942
 Red. masses --      2.3375                 1.9121                 1.8682
 Frc consts  --      1.5661                 1.3174                 1.3299
 IR Inten    --     12.3404                95.4152                50.0009

                     73                     74                     75
                      A                      A                      A
 Frequencies --   1115.7589              1130.2107              1133.9305
 Red. masses --      2.3407                 2.3630                 2.1803
 Frc consts  --      1.7169                 1.7784                 1.6517
 IR Inten    --     28.2286                22.8980                12.4109

                     76                     77                     78
                      A                      A                      A
 Frequencies --   1159.9343              1169.2786              1174.1255
 Red. masses --      1.6482                 1.5721                 1.0890
 Frc consts  --      1.3066                 1.2664                 0.8845
 IR Inten    --     24.8624                 4.8767                 0.4924

                     79                     80                     81
                      A                      A                      A
 Frequencies --   1199.0529              1205.0360              1229.5858
 Red. masses --      1.3231                 1.5769                 1.8387
 Frc consts  --      1.1208                 1.3491                 1.6379
 IR Inten    --     32.6702                60.1563               125.1962

                     82                     83                     84
                      A                      A                      A
 Frequencies --   1240.7931              1254.9054              1284.4888
 Red. masses --      2.6670                 1.8540                 1.1096
 Frc consts  --      2.4192                 1.7202                 1.0787
 IR Inten    --    155.6280                44.6681                 1.3493

                     85                     86                     87
                      A                      A                      A
 Frequencies --   1316.0811              1319.3477              1324.2267
 Red. masses --      1.4501                 1.4002                 1.4621
 Frc consts  --      1.4799                 1.4360                 1.5106
 IR Inten    --     45.9975                 0.4492                32.3705

                     88                     89                     90
                      A                      A                      A
 Frequencies --   1328.5073              1342.2666              1357.3779
 Red. masses --      1.7492                 1.5646                 3.2704
 Frc consts  --      1.8190                 1.6609                 3.5502
 IR Inten    --     24.9221                88.6953                 0.7121

                     91                     92                     93
                      A                      A                      A
 Frequencies --   1366.0224              1376.2149              1380.6169
 Red. masses --      1.3835                 1.2873                 1.3414
 Frc consts  --      1.5210                 1.4365                 1.5065
 IR Inten    --     19.9189                40.9030                86.8959

                     94                     95                     96
                      A                      A                      A
 Frequencies --   1389.8168              1411.2871              1417.4593
 Red. masses --      1.5331                 1.2534                 1.4562
 Frc consts  --      1.7448                 1.4709                 1.7238
 IR Inten    --     44.0329                41.8317                 2.3846

                     97                     98                     99
                      A                      A                      A
 Frequencies --   1433.5751              1463.1542              1471.3332
 Red. masses --      1.1760                 1.5819                 1.7627
 Frc consts  --      1.4239                 1.9953                 2.2482
 IR Inten    --      1.9525                15.4543                33.5589

                    100                    101                    102
                      A                      A                      A
 Frequencies --   1473.1359              1483.2545              1487.4537
 Red. masses --      1.0388                 1.2235                 1.0535
 Frc consts  --      1.3282                 1.5859                 1.3734
 IR Inten    --      5.8005                20.7037                 5.4506

                    103                    104                    105
                      A                      A                      A
 Frequencies --   1488.9838              1500.4042              1507.0593
 Red. masses --      1.2221                 1.1361                 1.0855
 Frc consts  --      1.5964                 1.5069                 1.4526
 IR Inten    --      5.4578                 9.2245                 7.1574

                    106                    107                    108
                      A                      A                      A
 Frequencies --   1513.1363              1516.5196              1619.2871
 Red. masses --      1.1713                 1.9777                 5.6649
 Frc consts  --      1.5801                 2.6798                 8.7516
 IR Inten    --      7.2479                 1.6899                 0.3251

                    109                    110                    111
                      A                      A                      A
 Frequencies --   1640.7633              1762.6052              2986.2265
 Red. masses --      5.6978                11.6896                 1.0541
 Frc consts  --      9.0375                21.3973                 5.5386
 IR Inten    --      5.9072               231.7697                 9.5827

                    112                    113                    114
                      A                      A                      A
 Frequencies --   2998.5478              3041.0611              3057.9859
 Red. masses --      1.0524                 1.0361                 1.0623
 Frc consts  --      5.5749                 5.6456                 5.8529
 IR Inten    --      6.0155                19.0321                26.3137

                    115                    116                    117
                      A                      A                      A
 Frequencies --   3058.1268              3068.0200              3072.4079
 Red. masses --      1.0593                 1.0702                 1.0758
 Frc consts  --      5.8368                 5.9354                 5.9835
 IR Inten    --     12.5538                19.4766                 6.1669

                    118                    119                    120
                      A                      A                      A
 Frequencies --   3094.7240              3100.0492              3105.6154
 Red. masses --      1.0783                 1.1016                 1.1061
 Frc consts  --      6.0847                 6.2374                 6.2853
 IR Inten    --      2.6579                10.6579                 9.4725

                    121                    122                    123
                      A                      A                      A
 Frequencies --   3113.1408              3116.5183              3118.3265
 Red. masses --      1.0772                 1.1018                 1.0996
 Frc consts  --      6.1511                 6.3050                 6.2998
 IR Inten    --      5.7189                18.9612                 8.4151

                    124                    125                    126
                      A                      A                      A
 Frequencies --   3130.2895              3138.3584              3158.4521
 Red. masses --      1.0896                 1.1041                 1.1067
 Frc consts  --      6.2904                 6.4074                 6.5047
 IR Inten    --     12.7227                15.8341                 0.8365

                    127                    128                    129
                      A                      A                      A
 Frequencies --   3170.5766              3173.3399              3181.7987
 Red. masses --      1.0854                 1.1060                 1.0901
 Frc consts  --      6.4285                 6.5622                 6.5025
 IR Inten    --      0.0606                 1.9985                 7.2980

                    130                    131                    132
                      A                      A                      A
 Frequencies --   3192.8280              3204.4041              3230.5903
 Red. masses --      1.0955                 1.0943                 1.0918
 Frc consts  --      6.5798                 6.6205                 6.7137
 IR Inten    --     16.9975                 5.6217                 3.3468

 - Thermochemistry -
 -------------------
 Temperature   298.150 Kelvin.  Pressure   1.00000 Atm.
 Atom     1 has atomic number  6 and mass  12.00000

 Molecular mass:   434.99839 amu.
 Principal axes and moments of inertia in atomic units:
                           1         2         3
     Eigenvalues --  8805.29795********************
           X            0.99745   0.06890   0.01846
           Y           -0.06917   0.99750   0.01446
           Z           -0.01742  -0.01570   0.99973
 This molecule is an asymmetric top.
 Rotational symmetry number  1.
 Warning -- assumption of classical behavior for rotation
           may cause significant error
 Rotational temperatures (Kelvin)      0.00984     0.00776     0.00675
 Rotational constants (GHZ):           0.20496     0.16170     0.14066
    1 imaginary frequencies ignored.
 Zero-point vibrational energy     939146.1 (Joules/Mol)
                                  224.46131 (Kcal/Mol)
 Warning -- explicit consideration of  42 degrees of freedom as
           vibrations may cause significant error
 Vibrational temperatures:     22.55    31.77    55.06    61.44    65.18
          (Kelvin)             80.84    90.70   100.23   122.72   126.30
                              143.18   153.80   165.74   173.67   189.71
                              208.92   214.40   245.65   251.63   276.72
                              281.20   310.56   337.22   361.90   375.15
                              421.44   447.77   462.33   480.21   510.12
                              535.85   537.43   562.10   589.95   590.69
                              618.69   666.27   684.68   726.82   762.53
                              834.57   881.86   904.11   945.11  1007.69
                             1025.26  1098.49  1104.74  1158.20  1158.37
                             1197.95  1206.88  1214.05  1240.44  1261.55
                             1322.84  1341.19  1376.66  1412.58  1418.29
                             1421.27  1438.60  1448.13  1452.26  1457.58
                             1486.91  1498.71  1507.38  1534.24  1555.87
                             1581.50  1605.33  1626.12  1631.47  1668.89
                             1682.33  1689.30  1725.17  1733.78  1769.10
                             1785.22  1805.53  1848.09  1893.55  1898.25
                             1905.27  1911.43  1931.22  1952.96  1965.40
                             1980.07  1986.40  1999.64  2030.53  2039.41
                             2062.59  2105.15  2116.92  2119.51  2134.07
                             2140.11  2142.32  2158.75  2168.32  2177.07
                             2181.93  2329.79  2360.69  2536.00  4296.51
                             4314.24  4375.41  4399.76  4399.96  4414.20
                             4420.51  4452.62  4460.28  4468.29  4479.12
                             4483.97  4486.58  4503.79  4515.40  4544.31
                             4561.75  4565.73  4577.90  4593.77  4610.42
                             4648.10

 Zero-point correction=                           0.357702 (Hartree/Particle)
 Thermal correction to Energy=                    0.385214
 Thermal correction to Enthalpy=                  0.386158
 Thermal correction to Gibbs Free Energy=         0.294912
 Sum of electronic and zero-point Energies=          -3531.049698
 Sum of electronic and thermal Energies=             -3531.022187
 Sum of electronic and thermal Enthalpies=           -3531.021242
 Sum of electronic and thermal Free Energies=        -3531.112488

                     E (Thermal)             CV                S
                      KCal/Mol        Cal/Mol-Kelvin    Cal/Mol-Kelvin
 Total                  241.725             97.886            192.042
 Electronic               0.000              0.000              3.561
 Translational            0.889              2.981             44.100
 Rotational               0.889              2.981             35.488
 Vibrational            239.948             91.924            108.894
 Vibration     1          0.593              1.986              7.118
 Vibration     2          0.593              1.985              6.438
 Vibration     3          0.594              1.982              5.347
 Vibration     4          0.595              1.980              5.130
 Vibration     5          0.595              1.979              5.013
 Vibration     6          0.596              1.975              4.587
 Vibration     7          0.597              1.972              4.360
 Vibration     8          0.598              1.969              4.163
 Vibration     9          0.601              1.959              3.765
 Vibration    10          0.601              1.958              3.709
 Vibration    11          0.604              1.949              3.464
 Vibration    12          0.606              1.944              3.324
 Vibration    13          0.608              1.937              3.179
 Vibration    14          0.609              1.932              3.089
 Vibration    15          0.612              1.921              2.919
 Vibration    16          0.617              1.908              2.734
 Vibration    17          0.618              1.904              2.685
 Vibration    18          0.626              1.879              2.427
 Vibration    19          0.627              1.873              2.382
 Vibration    20          0.634              1.850              2.205
 Vibration    21          0.636              1.846              2.176
 Vibration    22          0.645              1.817              1.994
 Vibration    23          0.654              1.788              1.845
 Vibration    24          0.664              1.760              1.720
 Vibration    25          0.669              1.745              1.657
 Vibration    26          0.688              1.687              1.457
 Vibration    27          0.700              1.652              1.356
 Vibration    28          0.707              1.633              1.303
 Vibration    29          0.715              1.608              1.242
 Vibration    30          0.730              1.566              1.146
 Vibration    31          0.744              1.529              1.070
 Vibration    32          0.745              1.526              1.065
 Vibration    33          0.758              1.490              0.998
 Vibration    34          0.774              1.448              0.926
 Vibration    35          0.775              1.447              0.925
 Vibration    36          0.791              1.405              0.859
 Vibration    37          0.821              1.332              0.757
 Vibration    38          0.833              1.304              0.721
 Vibration    39          0.860              1.239              0.645
 Vibration    40          0.885              1.184              0.587
 Vibration    41          0.937              1.074              0.485
 Vibration    42          0.972              1.005              0.428

                           ! Non-Optimized Parameters !
 Normal termination of Gaussian 16 at Sun Jun 20 06:49:23 2021.

 ----------------------------------------------------------------------
 #p ub3lyp jul-cc-pvdz pop=cm5 scrf=(pcm,solvent=dichloroethane) guess=
 read geom=allcheck
 ----------------------------------------------------------------------

 Structure from the checkpoint file:  "checkpoint.chk"
 -----
 title
 -----
 Charge =  0 Multiplicity = 6

 SCF Done:  E(UB3LYP) =  -3531.43260880     A.U. after   18 cycles
 Normal termination of Gaussian 16 at Sun Jun 20 07:10:43 2021.
 Gaussian 16:  ES64L-G16RevA.03 25-Dec-2016

 ----------------------------------------------------------------------
 #p ub3lyp jul-cc-pvdz pop=cm5 scrf=(pcm,solvent=water) guess=read geom
 =allcheck
 ----------------------------------------------------------------------

 Structure from the checkpoint file:  "checkpoint.chk"
 -----
 title
 -----
 Charge =  0 Multiplicity = 6

                         Standard orientation:
 ---------------------------------------------------------------------
 Center     Atomic      Atomic             Coordinates (Angstroms)
 Number     Number       Type             X           Y           Z
 ---------------------------------------------------------------------
      1          6           0        2.982635   -1.350793    0.491955
      2          6           0        1.661577   -0.932545    0.743845
      3          6           0        1.322215   -0.522168    2.043110
      4          6           0        2.279816   -0.525845    3.062820
      5          6           0        3.584653   -0.949033    2.803904
      6          6           0        3.932957   -1.360957    1.511123
      7          6           0        0.620817   -0.912719   -0.352737
      8          6           0        0.997012   -0.163723   -1.681345
      9          6           0        1.462891   -1.197907   -2.715782
     10          6           0        0.555432   -2.422529   -2.514341
     11          6           0        0.397305   -2.574840   -1.006486
     12          6           0       -0.906458   -2.745907   -0.375764
     13          6           0       -2.177819   -2.645352   -1.124030
     14          8           0       -0.656119   -0.620410    0.133743
     15         26           0       -1.996787    0.708562    0.342272
     16         17           0       -2.567388    1.338988   -1.719080
     17          6           0       -0.964460   -3.270466    1.007224
     18         17           0       -1.344563    2.355775    1.662872
     19         17           0       -3.644617   -0.448970    1.329803
     20          1           0        0.312959   -0.175752    2.249755
     21          1           0        1.998101   -0.192332    4.062463
     22          1           0        4.330096   -0.955499    3.600642
     23          1           0        4.951788   -1.685024    1.294736
     24          1           0        3.281945   -1.661663   -0.507809
     25          1           0        0.058185    0.299026   -2.012891
     26          6           0        2.013370    0.957479   -1.489775
     27          1           0        1.398185   -0.795812   -3.735089
     28          1           0        2.517040   -1.449994   -2.543681
     29          1           0       -0.411018   -2.248643   -3.002954
     30          1           0        0.984050   -3.328874   -2.963510
     31          1           0        1.166446   -3.192287   -0.534702
     32          1           0       -1.142859   -4.359051    0.911499
     33          1           0       -0.023781   -3.130916    1.550248
     34          1           0       -1.811096   -2.843494    1.557971
     35          1           0       -2.321843   -3.636929   -1.597217
     36          1           0       -3.026591   -2.448993   -0.461299
     37          1           0       -2.148063   -1.904033   -1.927667
     38          8           0        1.441935    2.033466   -0.934261
     39          8           0        3.181625    0.888889   -1.814761
     40          6           0        2.307853    3.180121   -0.688349
     41          6           0        1.428382    4.348740   -0.295297
     42          1           0        3.013633    2.902040    0.106729
     43          1           0        2.884103    3.375020   -1.601981
     44          1           0        2.063588    5.221250   -0.083472
     45          1           0        0.738084    4.610850   -1.108699
     46          1           0        0.836550    4.115135    0.598546
 ---------------------------------------------------------------------

 SCF Done:  E(UB3LYP) =  -3531.43747186     A.U. after   15 cycles

 The electronic state is 6-A.
 Alpha  occ. eigenvalues -- -256.19903-101.51849-101.51832-101.51669 -30.19308
 Alpha  occ. eigenvalues --  -26.04618 -26.04538 -26.04460 -19.20292 -19.16293
 Alpha  occ. eigenvalues --  -19.15180 -10.32873 -10.31902 -10.30504 -10.24741
 Alpha  occ. eigenvalues --  -10.22910 -10.21872 -10.21499 -10.21464 -10.21390
 Alpha  occ. eigenvalues --  -10.20477 -10.20349 -10.20289 -10.20272 -10.20214
 Alpha  occ. eigenvalues --  -10.20141 -10.19920 -10.18454  -9.43586  -9.43546
 Alpha  occ. eigenvalues --   -9.43387  -7.19445  -7.19409  -7.19255  -7.19134
 Alpha  occ. eigenvalues --   -7.19124  -7.19097  -7.19081  -7.18930  -7.18919
 Alpha  occ. eigenvalues --   -3.67015  -2.44546  -2.44318  -2.44223  -1.12102
 Alpha  occ. eigenvalues --   -1.03562  -1.03502  -0.88020  -0.87179  -0.84136
 Alpha  occ. eigenvalues --   -0.79801  -0.79135  -0.78960  -0.78748  -0.77735
 Alpha  occ. eigenvalues --   -0.75996  -0.75181  -0.73986  -0.71406  -0.66360
 Alpha  occ. eigenvalues --   -0.64221  -0.61889  -0.61330  -0.59282  -0.56954
 Alpha  occ. eigenvalues --   -0.56257  -0.54378  -0.52716  -0.51288  -0.50663
 Alpha  occ. eigenvalues --   -0.50187  -0.49235  -0.48748  -0.47984  -0.47576
 Alpha  occ. eigenvalues --   -0.47315  -0.47073  -0.46584  -0.46434  -0.45934
 Alpha  occ. eigenvalues --   -0.44627  -0.44252  -0.44045  -0.43067  -0.43001
 Alpha  occ. eigenvalues --   -0.42533  -0.41901  -0.41019  -0.40282  -0.40106
 Alpha  occ. eigenvalues --   -0.39896  -0.38880  -0.37981  -0.37511  -0.37008
 Alpha  occ. eigenvalues --   -0.36621  -0.36534  -0.36150  -0.35725  -0.35487
 Alpha  occ. eigenvalues --   -0.34543  -0.34142  -0.33610  -0.31875  -0.31806
 Alpha  occ. eigenvalues --   -0.30759  -0.30681  -0.30441  -0.30110  -0.29639
 Alpha  occ. eigenvalues --   -0.29403  -0.28860  -0.28367  -0.26818  -0.25715
 Alpha virt. eigenvalues --   -0.12259  -0.03108  -0.02684  -0.01511  -0.01232
 Alpha virt. eigenvalues --   -0.00161  -0.00046   0.00016   0.01458   0.01594
 Alpha virt. eigenvalues --    0.01821   0.01965   0.02451   0.03414   0.03701

  Beta  occ. eigenvalues -- -256.19718-101.51675-101.51664-101.51506 -30.10372
  Beta  occ. eigenvalues --  -25.97149 -25.97076 -25.97046 -19.20291 -19.15593
  Beta  occ. eigenvalues --  -19.15177 -10.32873 -10.31910 -10.30485 -10.24741
  Beta  occ. eigenvalues --  -10.22864 -10.21857 -10.21497 -10.21447 -10.21389
  Beta  occ. eigenvalues --  -10.20474 -10.20349 -10.20290 -10.20271 -10.20216
  Beta  occ. eigenvalues --  -10.20142 -10.19918 -10.18453  -9.43415  -9.43380
  Beta  occ. eigenvalues --   -9.43226  -7.19161  -7.19123  -7.18969  -7.18900
  Beta  occ. eigenvalues --   -7.18890  -7.18869  -7.18866  -7.18715  -7.18713
  Beta  occ. eigenvalues --   -3.46180  -2.22502  -2.22414  -2.22300  -1.12099
  Beta  occ. eigenvalues --   -1.03557  -1.02152  -0.87835  -0.87163  -0.84085
  Beta  occ. eigenvalues --   -0.78772  -0.78707  -0.77941  -0.77804  -0.77619
  Beta  occ. eigenvalues --   -0.75989  -0.75142  -0.73978  -0.71259  -0.66241
  Beta  occ. eigenvalues --   -0.64164  -0.61846  -0.61294  -0.59034  -0.56790
  Beta  occ. eigenvalues --   -0.55872  -0.54264  -0.51880  -0.51169  -0.50391
  Beta  occ. eigenvalues --   -0.50072  -0.48810  -0.47998  -0.47831  -0.46624
  Beta  occ. eigenvalues --   -0.45719  -0.44549  -0.44064  -0.43126  -0.42993
  Beta  occ. eigenvalues --   -0.42517  -0.41894  -0.41011  -0.40276  -0.40068
  Beta  occ. eigenvalues --   -0.39886  -0.38855  -0.37796  -0.37623  -0.37270
  Beta  occ. eigenvalues --   -0.36738  -0.36455  -0.36129  -0.35785  -0.35630
  Beta  occ. eigenvalues --   -0.35390  -0.35297  -0.34486  -0.32893  -0.32686
  Beta  occ. eigenvalues --   -0.32241  -0.31981  -0.31744  -0.31259  -0.29964
  Beta  occ. eigenvalues --   -0.29346  -0.28828  -0.28530  -0.26809  -0.25773
  Beta virt. eigenvalues --   -0.13949  -0.13482  -0.12818  -0.12503  -0.11692
  Beta virt. eigenvalues --   -0.11596  -0.03053  -0.02668  -0.01419  -0.01193
  Beta virt. eigenvalues --   -0.00117  -0.00012   0.00044   0.01473   0.01616

 Mulliken charges and spin densities:
               1          2
     1  C    0.109182   0.002204
     2  C    2.505393   0.001936
     3  C   -0.270591  -0.010430
     4  C    0.002112   0.004253
     5  C    0.252856   0.000655
     6  C   -0.108164   0.000242
     7  C   -2.090498  -0.002067
     8  C    0.363142   0.010000
     9  C    0.569215   0.002394
    10  C    0.609830   0.000215
    11  C    0.734857   0.030311
    12  C   -0.558508  -0.007554
    13  C    0.338600   0.001547
    14  O   -0.474409   0.225202
    15  Fe   0.651999   4.053243
    16  Cl  -0.540624   0.221622
    17  C    0.337957  -0.001670
    18  Cl  -0.488271   0.239168
    19  Cl  -0.542987   0.221497
    20  H   -0.225497   0.003421
    21  H   -0.161572   0.000004
    22  H   -0.164930  -0.000015
    23  H   -0.158989   0.000190
    24  H   -0.212802  -0.000074
    25  H   -0.213945   0.000001
    26  C    0.914725   0.000174
    27  H   -0.142379   0.000272
    28  H   -0.033797  -0.000023
    29  H   -0.094014  -0.000034
    30  H   -0.122133   0.000957
    31  H   -0.225982   0.000332
    32  H    0.065810   0.000625
    33  H    0.062539  -0.000012
    34  H    0.053056  -0.000487
    35  H    0.062310  -0.000536
    36  H    0.033311  -0.000400
    37  H    0.089491  -0.000462
    38  O   -0.700396   0.002111
    39  O   -0.666016   0.001309
    40  C    0.428146   0.000910
    41  C    0.044788  -0.000913
    42  H   -0.034921   0.000047
    43  H   -0.038771   0.000037
    44  H   -0.007313   0.000028
    45  H    0.021947   0.000056
    46  H    0.026244  -0.000286
 Sum of Mulliken charges =  -0.00000   5.00000

 Dipole moment (field-independent basis, Debye):
    X=              6.3283    Y=            -12.2378    Z=             -2.4222  Tot=             13.9885
 Quadrupole moment (field-independent basis, Debye-Ang):
   XX=           -199.9632   YY=           -146.3150   ZZ=           -174.6131
   XY=             15.0057   XZ=             13.4542   YZ=              5.1012

 Normal termination of Gaussian 16 at Sun Jun 20 07:28:34 2021.
