 Gaussian 16, Revision A.03,

 -----------------------------------------------------------
 #p opt=modredundant freq=noraman ub3lyp jul-cc-pvdz pop=cm5
 -----------------------------------------------------------

 -----
 title
 -----
 Symbolic Z-matrix:
 Charge =  0 Multiplicity = 6

 SCF Done:  E(UB3LYP) =  -3531.41155159     A.U. after   26 cycles
 SCF Done:  E(UB3LYP) =  -3531.41032897     A.U. after   18 cycles
 SCF Done:  E(UB3LYP) =  -3531.40866429     A.U. after   20 cycles
 SCF Done:  E(UB3LYP) =  -3531.40796754     A.U. after   21 cycles
 SCF Done:  E(UB3LYP) =  -3531.41169498     A.U. after   14 cycles
 SCF Done:  E(UB3LYP) =  -3531.41157552     A.U. after   18 cycles
 SCF Done:  E(UB3LYP) =  -3531.41185024     A.U. after   18 cycles
 SCF Done:  E(UB3LYP) =  -3531.41191402     A.U. after   18 cycles
 SCF Done:  E(UB3LYP) =  -3531.41216115     A.U. after   17 cycles
 SCF Done:  E(UB3LYP) =  -3531.41215504     A.U. after   17 cycles
 SCF Done:  E(UB3LYP) =  -3531.41219554     A.U. after   12 cycles
 SCF Done:  E(UB3LYP) =  -3531.41219596     A.U. after   11 cycles
 SCF Done:  E(UB3LYP) =  -3531.41219571     A.U. after   11 cycles
 SCF Done:  E(UB3LYP) =  -3531.41219555     A.U. after   11 cycles
 SCF Done:  E(UB3LYP) =  -3531.41219599     A.U. after   11 cycles
 SCF Done:  E(UB3LYP) =  -3531.41219570     A.U. after   11 cycles
 SCF Done:  E(UB3LYP) =  -3531.41219590     A.U. after   10 cycles
 Optimization completed.
    -- Stationary point found.
 Normal termination of Gaussian 16 at Sun Jun 20 04:00:11 2021.

 ----------------------------------------------------------------------
 #P Geom=AllCheck Guess=TCheck SCRF=Check GenChk UB3LYP/Jul-CC-pVDZ Fre
 q
 ----------------------------------------------------------------------

 Structure from the checkpoint file:  "checkpoint.chk"
 -----
 title
 -----
 Charge =  0 Multiplicity = 6

 SCF Done:  E(UB3LYP) =  -3531.41219590     A.U. after    2 cycles

  Exact polarizability: 317.995  13.658 298.901  12.277  12.938 299.373
 Approx polarizability: 492.818  42.265 456.547  11.193  21.128 498.125

 ******    2 imaginary frequencies (negative Signs) ******

                      1                      2                      3
                      A                      A                      A
 Frequencies --   -188.8163               -23.9842                21.2022
 Red. masses --      6.2116                 5.5137                 5.3248
 Frc consts  --      0.1305                 0.0019                 0.0014
 IR Inten    --    257.6552                 1.2054                 0.2374

                      4                      5                      6
                      A                      A                      A
 Frequencies --     26.2161                34.6074                49.5619
 Red. masses --      7.8636                 6.1503                 5.0914
 Frc consts  --      0.0032                 0.0043                 0.0074
 IR Inten    --      1.5269                 0.8593                 2.3338

                      7                      8                      9
                      A                      A                      A
 Frequencies --     53.2074                60.1094                66.8376
 Red. masses --      3.0615                 5.6237                 3.9143
 Frc consts  --      0.0051                 0.0120                 0.0103
 IR Inten    --      0.9068                 1.1179                 0.8228

                     10                     11                     12
                      A                      A                      A
 Frequencies --     82.3289                90.5377                99.0719
 Red. masses --      9.1759                 7.7025                 4.7288
 Frc consts  --      0.0366                 0.0372                 0.0273
 IR Inten    --      0.4679                 1.0083                 5.3161

                     13                     14                     15
                      A                      A                      A
 Frequencies --    103.9779               106.8738               120.4247
 Red. masses --     10.4361                 4.7321                18.7939
 Frc consts  --      0.0665                 0.0318                 0.1606
 IR Inten    --      3.6326                 5.3999                 2.0493

                     16                     17                     18
                      A                      A                      A
 Frequencies --    127.9751               146.9389               158.0342
 Red. masses --      8.4638                 4.4723                 1.4909
 Frc consts  --      0.0817                 0.0569                 0.0219
 IR Inten    --      1.9903                 4.0926                 1.7856

                     19                     20                     21
                      A                      A                      A
 Frequencies --    164.4678               181.3301               188.5024
 Red. masses --      1.8918                 1.5517                 2.7973
 Frc consts  --      0.0301                 0.0301                 0.0586
 IR Inten    --      4.7290                 1.7912                 3.4045

                     22                     23                     24
                      A                      A                      A
 Frequencies --    198.0065               207.8762               227.4031
 Red. masses --      2.2580                 2.4957                 4.2974
 Frc consts  --      0.0522                 0.0635                 0.1309
 IR Inten    --      0.8475                 3.9948                26.8227

                     25                     26                     27
                      A                      A                      A
 Frequencies --    241.1267               260.4127               292.6675
 Red. masses --      3.1818                 1.8574                 3.9789
 Frc consts  --      0.1090                 0.0742                 0.2008
 IR Inten    --      7.3726                 2.9823                 4.5366

                     28                     29                     30
                      A                      A                      A
 Frequencies --    318.5843               329.2440               348.0338
 Red. masses --      2.2222                 8.9773                 7.8155
 Frc consts  --      0.1329                 0.5734                 0.5578
 IR Inten    --      0.3642                 7.3271                22.2464

                     31                     32                     33
                      A                      A                      A
 Frequencies --    354.7025               376.5003               383.6888
 Red. masses --      9.2529                 3.9954                32.7568
 Frc consts  --      0.6859                 0.3337                 2.8413
 IR Inten    --     33.2300                 8.8618                84.3064

                     34                     35                     36
                      A                      A                      A
 Frequencies --    393.0194               403.0434               409.8558
 Red. masses --     29.3964                 2.7294                 2.8573
 Frc consts  --      2.6753                 0.2612                 0.2828
 IR Inten    --     75.2833                12.8130                 0.5346

                     37                     38                     39
                      A                      A                      A
 Frequencies --    431.3882               452.9733               478.5629
 Red. masses --      3.5061                 4.1828                 2.9029
 Frc consts  --      0.3844                 0.5057                 0.3917
 IR Inten    --     22.5755                 4.6556                11.5686

                     40                     41                     42
                      A                      A                      A
 Frequencies --    509.8203               526.2922               561.0627
 Red. masses --      2.9156                 3.2155                 3.0876
 Frc consts  --      0.4465                 0.5247                 0.5727
 IR Inten    --      9.7057                 4.9940                41.1184

                     43                     44                     45
                      A                      A                      A
 Frequencies --    609.2207               625.5799               637.9537
 Red. masses --      4.3361                 5.9694                 4.1826
 Frc consts  --      0.9482                 1.3764                 1.0029
 IR Inten    --     35.6942                23.6133               104.2026

                     46                     47                     48
                      A                      A                      A
 Frequencies --    692.4596               704.3079               756.8385
 Red. masses --      1.6122                 6.0905                 4.6434
 Frc consts  --      0.4555                 1.7800                 1.5671
 IR Inten    --     52.4848                26.3408                 4.5187

                     49                     50                     51
                      A                      A                      A
 Frequencies --    764.7482               797.6136               802.4568
 Red. masses --      2.3783                 2.2728                 1.5203
 Frc consts  --      0.8195                 0.8519                 0.5768
 IR Inten    --     13.9169                17.3488                 3.9296

                     52                     53                     54
                      A                      A                      A
 Frequencies --    819.0298               839.3125               862.3475
 Red. masses --      2.6232                 1.2626                 2.2088
 Frc consts  --      1.0368                 0.5241                 0.9678
 IR Inten    --     26.4808                 1.1510                11.0393

                     55                     56                     57
                      A                      A                      A
 Frequencies --    870.0804               889.7193               919.3222
 Red. masses --      1.6890                 1.7216                 1.9697
 Frc consts  --      0.7534                 0.8029                 0.9808
 IR Inten    --     30.1896                 3.4281                12.5907

                     58                     59                     60
                      A                      A                      A
 Frequencies --    937.0971               956.9514               961.4316
 Red. masses --      1.4147                 1.3039                 3.1126
 Frc consts  --      0.7319                 0.7035                 1.6952
 IR Inten    --      3.5040                37.8649                23.2176

                     61                     62                     63
                      A                      A                      A
 Frequencies --    984.5562               989.6385              1000.3180
 Red. masses --      1.5130                 2.6179                 1.3461
 Frc consts  --      0.8641                 1.5106                 0.7936
 IR Inten    --      5.7224                27.0613                 4.4359

                     64                     65                     66
                      A                      A                      A
 Frequencies --   1001.5226              1003.0733              1007.6058
 Red. masses --      1.9757                 2.0483                 2.1804
 Frc consts  --      1.1676                 1.2142                 1.3043
 IR Inten    --      0.9478                 6.1409                 2.1588

                     67                     68                     69
                      A                      A                      A
 Frequencies --   1036.9791              1046.9563              1066.3777
 Red. masses --      2.7517                 2.4627                 2.2980
 Frc consts  --      1.7434                 1.5904                 1.5397
 IR Inten    --     38.9740                 5.0402                 6.5267

                     70                     71                     72
                      A                      A                      A
 Frequencies --   1075.5883              1096.4979              1110.9539
 Red. masses --      1.8029                 1.7855                 1.5737
 Frc consts  --      1.2289                 1.2648                 1.1444
 IR Inten    --     31.8368                11.2400                10.5819

                     73                     74                     75
                      A                      A                      A
 Frequencies --   1132.3269              1136.1109              1161.7767
 Red. masses --      2.1353                 2.3199                 1.7050
 Frc consts  --      1.6131                 1.7643                 1.3559
 IR Inten    --     11.3946                 7.1194                57.5637

                     76                     77                     78
                      A                      A                      A
 Frequencies --   1170.3620              1176.1064              1194.8193
 Red. masses --      1.5696                 1.0892                 1.6170
 Frc consts  --      1.2668                 0.8877                 1.3600
 IR Inten    --      6.7193                 1.1559                46.4610

                     79                     80                     81
                      A                      A                      A
 Frequencies --   1203.9908              1218.2355              1235.8503
 Red. masses --      1.2628                 2.6241                 2.2763
 Frc consts  --      1.0786                 2.2945                 2.0484
 IR Inten    --     21.4098                57.5616               127.0193

                     82                     83                     84
                      A                      A                      A
 Frequencies --   1257.3010              1283.2810              1290.3522
 Red. masses --      1.9076                 1.4231                 1.5827
 Frc consts  --      1.7767                 1.3808                 1.5527
 IR Inten    --     31.7320               168.7006               221.3955

                     85                     86                     87
                      A                      A                      A
 Frequencies --   1321.6788              1326.3462              1333.2761
 Red. masses --      1.4227                 1.4931                 1.6725
 Frc consts  --      1.4642                 1.5476                 1.7517
 IR Inten    --     36.4361                52.7435                30.2296

                     88                     89                     90
                      A                      A                      A
 Frequencies --   1357.1241              1360.5857              1362.4599
 Red. masses --      1.6182                 3.0682                 1.4551
 Frc consts  --      1.7560                 3.3465                 1.5915
 IR Inten    --     79.4460                 5.1545                30.9258

                     91                     92                     93
                      A                      A                      A
 Frequencies --   1380.3073              1384.9846              1395.1264
 Red. masses --      1.4173                 1.4107                 1.3099
 Frc consts  --      1.5909                 1.5943                 1.5021
 IR Inten    --     99.9450                48.6006                74.3671

                     94                     95                     96
                      A                      A                      A
 Frequencies --   1406.1861              1416.1012              1450.3311
 Red. masses --      1.5724                 1.4304                 1.0804
 Frc consts  --      1.8319                 1.6901                 1.3390
 IR Inten    --     80.8512                 0.8106                13.0380

                     97                     98                     99
                      A                      A                      A
 Frequencies --   1461.4559              1470.1732              1472.7207
 Red. masses --      1.0804                 1.4572                 1.4859
 Frc consts  --      1.3596                 1.8557                 1.8988
 IR Inten    --      7.4849                 4.9312                36.4630

                    100                    101                    102
                      A                      A                      A
 Frequencies --   1473.2880              1483.1366              1488.3437
 Red. masses --      1.0516                 1.1154                 1.0542
 Frc consts  --      1.3448                 1.4456                 1.3759
 IR Inten    --      4.0724                26.5645                 1.9267

                    103                    104                    105
                      A                      A                      A
 Frequencies --   1498.8383              1506.3138              1506.4761
 Red. masses --      1.1666                 1.0844                 1.1129
 Frc consts  --      1.5442                 1.4496                 1.4881
 IR Inten    --      7.6627                 3.3539                20.7465

                    106                    107                    108
                      A                      A                      A
 Frequencies --   1516.5966              1616.3327              1626.1367
 Red. masses --      1.8615                 5.3388                 5.1075
 Frc consts  --      2.5226                 8.2179                 7.9575
 IR Inten    --      2.4163                38.1070               122.8595

                    109                    110                    111
                      A                      A                      A
 Frequencies --   1639.3165              1765.4586              3011.2093
 Red. masses --      5.6739                11.4790                 1.0519
 Frc consts  --      8.9838                21.0799                 5.6194
 IR Inten    --     18.9271               233.6888                 1.9055

                    112                    113                    114
                      A                      A                      A
 Frequencies --   3023.4416              3041.5757              3050.6736
 Red. masses --      1.0442                 1.0361                 1.0641
 Frc consts  --      5.6239                 5.6471                 5.8345
 IR Inten    --      3.9105                20.1203                23.3280

                    115                    116                    117
                      A                      A                      A
 Frequencies --   3061.4185              3070.9008              3079.0110
 Red. masses --      1.0593                 1.0634                 1.0859
 Frc consts  --      5.8492                 5.9084                 6.0656
 IR Inten    --     14.0891                27.0721                 0.5988

                    118                    119                    120
                      A                      A                      A
 Frequencies --   3090.0404              3099.5600              3110.0677
 Red. masses --      1.0901                 1.0999                 1.1050
 Frc consts  --      6.1323                 6.2260                 6.2973
 IR Inten    --      3.2049                 4.0945                10.7394

                    121                    122                    123
                      A                      A                      A
 Frequencies --   3113.6614              3117.6831              3123.7304
 Red. masses --      1.0814                 1.1028                 1.1003
 Frc consts  --      6.1769                 6.3156                 6.3258
 IR Inten    --      1.2356                15.5317                16.5804

                    124                    125                    126
                      A                      A                      A
 Frequencies --   3140.8875              3148.3402              3168.4674
 Red. masses --      1.1044                 1.1036                 1.1033
 Frc consts  --      6.4192                 6.4450                 6.5257
 IR Inten    --     12.9097                 3.9571                 3.2001

                    127                    128                    129
                      A                      A                      A
 Frequencies --   3173.5059              3176.5645              3186.2154
 Red. masses --      1.0860                 1.0883                 1.0911
 Frc consts  --      6.4439                 6.4702                 6.5266
 IR Inten    --      0.2513                 7.6981                 7.2667

                    130                    131                    132
                      A                      A                      A
 Frequencies --   3196.1054              3230.2386              3233.5873
 Red. masses --      1.0970                 1.0921                 1.0914
 Frc consts  --      6.6023                 6.7143                 6.7236
 IR Inten    --     14.0147                 2.0046                 1.4058

 - Thermochemistry -
 -------------------
 Temperature   298.150 Kelvin.  Pressure   1.00000 Atm.
 Atom     1 has atomic number  6 and mass  12.00000

 Molecular mass:   434.99839 amu.
 Principal axes and moments of inertia in atomic units:
                           1         2         3
     Eigenvalues --  9061.12772********************
           X            0.99939  -0.03118   0.01544
           Y            0.03074   0.99913   0.02805
           Z           -0.01630  -0.02756   0.99949
 This molecule is an asymmetric top.
 Rotational symmetry number  1.
 Warning -- assumption of classical behavior for rotation
           may cause significant error
 Rotational temperatures (Kelvin)      0.00956     0.00794     0.00686
 Rotational constants (GHZ):           0.19917     0.16549     0.14294
    2 imaginary frequencies ignored.
 Zero-point vibrational energy     942534.7 (Joules/Mol)
                                  225.27121 (Kcal/Mol)
 Warning -- explicit consideration of  41 degrees of freedom as
           vibrations may cause significant error
 Vibrational temperatures:     30.51    37.72    49.79    71.31    76.55
          (Kelvin)             86.48    96.16   118.45   130.26   142.54
                              149.60   153.77   173.26   184.13   211.41
                              227.38   236.63   260.89   271.21   284.89
                              299.09   327.18   346.93   374.68   421.08
                              458.37   473.71   500.74   510.34   541.70
                              552.04   565.47   579.89   589.69   620.67
                              651.73   688.55   733.52   757.22   807.24
                              876.53   900.07   917.87   996.29  1013.34
                             1088.92  1100.30  1147.59  1154.56  1178.40
                             1207.58  1240.73  1251.85  1280.11  1322.70
                             1348.27  1376.84  1383.29  1416.56  1423.87
                             1439.23  1440.97  1443.20  1449.72  1491.98
                             1506.34  1534.28  1547.53  1577.62  1598.41
                             1629.17  1634.61  1671.54  1683.89  1692.15
                             1719.08  1732.27  1752.77  1778.11  1808.98
                             1846.36  1856.53  1901.60  1908.32  1918.29
                             1952.60  1957.58  1960.28  1985.95  1992.68
                             2007.28  2023.19  2037.45  2086.70  2102.71
                             2115.25  2118.92  2119.73  2133.90  2141.39
                             2156.49  2167.25  2167.48  2182.04  2325.54
                             2339.65  2358.61  2540.10  4332.46  4350.06
                             4376.15  4389.24  4404.70  4418.34  4430.01
                             4445.88  4459.58  4474.69  4479.86  4485.65
                             4494.35  4519.04  4529.76  4558.72  4565.97
                             4570.37  4584.25  4598.48  4647.59  4652.41

 Zero-point correction=                           0.358993 (Hartree/Particle)
 Thermal correction to Energy=                    0.385669
 Thermal correction to Enthalpy=                  0.386614
 Thermal correction to Gibbs Free Energy=         0.298002
 Sum of electronic and zero-point Energies=          -3531.053203
 Sum of electronic and thermal Energies=             -3531.026527
 Sum of electronic and thermal Enthalpies=           -3531.025582
 Sum of electronic and thermal Free Energies=        -3531.114194

                     E (Thermal)             CV                S
                      KCal/Mol        Cal/Mol-Kelvin    Cal/Mol-Kelvin
 Total                  242.011             95.771            186.498
 Electronic               0.000              0.000              3.561
 Translational            0.889              2.981             44.100
 Rotational               0.889              2.981             35.477
 Vibrational            240.234             89.809            103.360
 Vibration     1          0.593              1.985              6.518
 Vibration     2          0.593              1.985              6.097
 Vibration     3          0.594              1.983              5.546
 Vibration     4          0.595              1.978              4.835
 Vibration     5          0.596              1.976              4.694
 Vibration     6          0.597              1.973              4.454
 Vibration     7          0.598              1.970              4.244
 Vibration     8          0.600              1.961              3.835
 Vibration     9          0.602              1.956              3.648
 Vibration    10          0.604              1.950              3.472
 Vibration    11          0.605              1.946              3.378
 Vibration    12          0.606              1.944              3.325
 Vibration    13          0.609              1.932              3.094
 Vibration    14          0.611              1.925              2.976
 Vibration    15          0.617              1.906              2.711
 Vibration    16          0.621              1.894              2.573
 Vibration    17          0.623              1.886              2.498
 Vibration    18          0.630              1.865              2.315
 Vibration    19          0.633              1.856              2.243
 Vibration    20          0.637              1.843              2.152
 Vibration    21          0.641              1.829              2.062
 Vibration    22          0.651              1.799              1.899
 Vibration    23          0.658              1.777              1.795
 Vibration    24          0.668              1.745              1.659
 Vibration    25          0.688              1.687              1.458
 Vibration    26          0.705              1.638              1.317
 Vibration    27          0.712              1.617              1.264
 Vibration    28          0.726              1.579              1.175
 Vibration    29          0.731              1.566              1.145
 Vibration    30          0.747              1.520              1.053
 Vibration    31          0.753              1.505              1.025
 Vibration    32          0.760              1.485              0.989
 Vibration    33          0.768              1.464              0.952
 Vibration    34          0.774              1.449              0.927
 Vibration    35          0.792              1.402              0.854
 Vibration    36          0.812              1.354              0.787
 Vibration    37          0.835              1.298              0.714
 Vibration    38          0.865              1.228              0.634
 Vibration    39          0.881              1.192              0.596
 Vibration    40          0.917              1.116              0.522
 Vibration    41          0.968              1.012              0.434

                           ! Non-Optimized Parameters !
 Normal termination of Gaussian 16 at Sun Jun 20 07:14:40 2021.

 ----------------------------------------------------------------------
 #p ub3lyp jul-cc-pvdz pop=cm5 scrf=(pcm,solvent=dichloroethane) guess=
 read geom=allcheck
 ----------------------------------------------------------------------

 Structure from the checkpoint file:  "checkpoint.chk"
 -----
 title
 -----
 Charge =  0 Multiplicity = 6

 SCF Done:  E(UB3LYP) =  -3531.43227544     A.U. after   19 cycles
 Normal termination of Gaussian 16 at Sun Jun 20 07:36:22 2021.
 Gaussian 16:  ES64L-G16RevA.03 25-Dec-2016

 ----------------------------------------------------------------------
 #p ub3lyp jul-cc-pvdz pop=cm5 scrf=(pcm,solvent=water) guess=read geom
 =allcheck
 ----------------------------------------------------------------------

 Structure from the checkpoint file:  "checkpoint.chk"
 -----
 title
 -----
 Charge =  0 Multiplicity = 6

                         Standard orientation:
 ---------------------------------------------------------------------
 Center     Atomic      Atomic             Coordinates (Angstroms)
 Number     Number       Type             X           Y           Z
 ---------------------------------------------------------------------
      1          6           0        3.235466   -0.171891    0.489352
      2          6           0        1.874123   -0.462022    0.711002
      3          6           0        1.436333   -0.672281    2.032460
      4          6           0        2.333762   -0.602037    3.099151
      5          6           0        3.682707   -0.323894    2.865058
      6          6           0        4.128888   -0.104866    1.555746
      7          6           0        0.863656   -0.514227   -0.396017
      8          6           0        1.002372    0.427212   -1.633800
      9          6           0        1.946676   -0.112824   -2.713381
     10          6           0        1.649658   -1.613297   -2.861748
     11          6           0        1.507293   -2.194652   -1.478560
     12          6           0        0.371550   -2.775495   -0.961228
     13          6           0       -0.923916   -2.850470   -1.701106
     14          8           0       -0.354126   -0.800549   -0.032258
     15         26           0       -2.081413   -0.064459    0.410906
     16         17           0       -2.946418    0.728453   -1.469701
     17          6           0        0.422772   -3.515114    0.333619
     18         17           0       -1.851650    1.428738    2.024585
     19         17           0       -3.189080   -1.842004    1.163216
     20          1           0        0.383121   -0.861323    2.223013
     21          1           0        1.972192   -0.755796    4.116418
     22          1           0        4.384448   -0.267515    3.698720
     23          1           0        5.177332    0.127327    1.365531
     24          1           0        3.605474    0.018118   -0.514102
     25          1           0       -0.018249    0.482981   -2.032980
     26          6           0        1.389116    1.850209   -1.206535
     27          1           0        1.786901    0.430141   -3.654529
     28          1           0        2.991460    0.059350   -2.430408
     29          1           0        0.735882   -1.760083   -3.450204
     30          1           0        2.462870   -2.118933   -3.402131
     31          1           0        2.437899   -2.382140   -0.944069
     32          1           0        1.385527   -3.412957    0.845359
     33          1           0       -0.397298   -3.201209    0.993248
     34          1           0        0.257369   -4.583874    0.116005
     35          1           0       -0.905401   -3.788687   -2.284136
     36          1           0       -1.774884   -2.904749   -1.013844
     37          1           0       -1.081300   -2.027581   -2.403526
     38          8           0        0.324932    2.510771   -0.742888
     39          8           0        2.506737    2.312842   -1.304688
     40          6           0        0.540678    3.885283   -0.299300
     41          6           0       -0.816316    4.536837   -0.134892
     42          1           0        1.100635    3.842885    0.645071
     43          1           0        1.164842    4.389827   -1.047503
     44          1           0       -0.676790    5.570644    0.213444
     45          1           0       -1.357480    4.562096   -1.090583
     46          1           0       -1.425569    3.995885    0.599698
 ---------------------------------------------------------------------

 SCF Done:  E(UB3LYP) =  -3531.44103584     A.U. after   17 cycles

 The electronic state is 6-A.
 Alpha  occ. eigenvalues -- -256.19929-101.51632-101.51431-101.51322 -30.19366
 Alpha  occ. eigenvalues --  -26.04678 -26.04602 -26.04490 -19.19950 -19.16168
 Alpha  occ. eigenvalues --  -19.15179 -10.33006 -10.32451 -10.26065 -10.24558
 Alpha  occ. eigenvalues --  -10.22298 -10.21911 -10.21041 -10.20939 -10.20908
 Alpha  occ. eigenvalues --  -10.20778 -10.20532 -10.20445 -10.20064 -10.19988
 Alpha  occ. eigenvalues --  -10.19749 -10.19666 -10.18246  -9.43360  -9.43153
 Alpha  occ. eigenvalues --   -9.43054  -7.19218  -7.19019  -7.18922  -7.18907
 Alpha  occ. eigenvalues --   -7.18898  -7.18704  -7.18689  -7.18612  -7.18580
 Alpha  occ. eigenvalues --   -3.67065  -2.44603  -2.44357  -2.44231  -1.11941
 Alpha  occ. eigenvalues --   -1.06563  -1.03511  -0.87815  -0.86464  -0.83224
 Alpha  occ. eigenvalues --   -0.79526  -0.78811  -0.78682  -0.78397  -0.78078
 Alpha  occ. eigenvalues --   -0.76423  -0.74798  -0.71895  -0.70710  -0.66344
 Alpha  occ. eigenvalues --   -0.64337  -0.62228  -0.61476  -0.59229  -0.56954
 Alpha  occ. eigenvalues --   -0.55717  -0.53965  -0.52697  -0.51271  -0.50116
 Alpha  occ. eigenvalues --   -0.49482  -0.49225  -0.48590  -0.47676  -0.47478
 Alpha  occ. eigenvalues --   -0.47194  -0.47050  -0.46550  -0.46219  -0.45845
 Alpha  occ. eigenvalues --   -0.44613  -0.44475  -0.43461  -0.42887  -0.42498
 Alpha  occ. eigenvalues --   -0.42022  -0.40808  -0.40345  -0.40046  -0.39738
 Alpha  occ. eigenvalues --   -0.38945  -0.38498  -0.37900  -0.37462  -0.37228
 Alpha  occ. eigenvalues --   -0.36761  -0.36585  -0.35872  -0.35533  -0.35363
 Alpha  occ. eigenvalues --   -0.34228  -0.33801  -0.33061  -0.31614  -0.31327
 Alpha  occ. eigenvalues --   -0.30549  -0.30443  -0.30024  -0.29839  -0.29502
 Alpha  occ. eigenvalues --   -0.29033  -0.28599  -0.27960  -0.27137  -0.25289
 Alpha virt. eigenvalues --   -0.10563  -0.02972  -0.02563  -0.01408  -0.00940
 Alpha virt. eigenvalues --   -0.00070   0.00092   0.00139   0.01496   0.01642
 Alpha virt. eigenvalues --    0.01805   0.02032   0.02620   0.03322   0.03343

  Beta  occ. eigenvalues -- -256.19744-101.51469-101.51257-101.51144 -30.10368
  Beta  occ. eigenvalues --  -25.97118 -25.97090 -25.97065 -19.19950 -19.15628
  Beta  occ. eigenvalues --  -19.15177 -10.33007 -10.32450 -10.26041 -10.24558
  Beta  occ. eigenvalues --  -10.22285 -10.21891 -10.20982 -10.20941 -10.20911
  Beta  occ. eigenvalues --  -10.20783 -10.20529 -10.20443 -10.20060 -10.19990
  Beta  occ. eigenvalues --  -10.19749 -10.19667 -10.18245  -9.43200  -9.42983
  Beta  occ. eigenvalues --   -9.42879  -7.18942  -7.18726  -7.18689  -7.18685
  Beta  occ. eigenvalues --   -7.18623  -7.18476  -7.18458  -7.18373  -7.18345
  Beta  occ. eigenvalues --   -3.46092  -2.22377  -2.22333  -2.22170  -1.11939
  Beta  occ. eigenvalues --   -1.05527  -1.03509  -0.87754  -0.86361  -0.83178
  Beta  occ. eigenvalues --   -0.78443  -0.78406  -0.78012  -0.77618  -0.77420
  Beta  occ. eigenvalues --   -0.76420  -0.74757  -0.71876  -0.70592  -0.66221
  Beta  occ. eigenvalues --   -0.64279  -0.62198  -0.61424  -0.58828  -0.56751
  Beta  occ. eigenvalues --   -0.55281  -0.53885  -0.51855  -0.51192  -0.49877
  Beta  occ. eigenvalues --   -0.49326  -0.48522  -0.48093  -0.47495  -0.47009
  Beta  occ. eigenvalues --   -0.45700  -0.44772  -0.43487  -0.42877  -0.42576
  Beta  occ. eigenvalues --   -0.41980  -0.40799  -0.40330  -0.40048  -0.39747
  Beta  occ. eigenvalues --   -0.38953  -0.38432  -0.37814  -0.37403  -0.37271
  Beta  occ. eigenvalues --   -0.37063  -0.36639  -0.35959  -0.35538  -0.35329
  Beta  occ. eigenvalues --   -0.35240  -0.35022  -0.34161  -0.32647  -0.32374
  Beta  occ. eigenvalues --   -0.31925  -0.31579  -0.31504  -0.30469  -0.29788
  Beta  occ. eigenvalues --   -0.28966  -0.28623  -0.28137  -0.27137  -0.25292
  Beta virt. eigenvalues --   -0.13672  -0.13353  -0.12628  -0.12131  -0.11816
  Beta virt. eigenvalues --   -0.09936  -0.02927  -0.02522  -0.01330  -0.00887
  Beta virt. eigenvalues --   -0.00032   0.00125   0.00168   0.01533   0.01675

 Mulliken charges and spin densities:
               1          2
     1  C    0.262553  -0.000624
     2  C    2.861504   0.000423
     3  C   -0.487024  -0.012602
     4  C    0.061076   0.005805
     5  C    0.261923  -0.002270
     6  C   -0.094604   0.002576
     7  C   -2.330690  -0.009535
     8  C    0.379416   0.012602
     9  C    0.484190   0.003834
    10  C    0.665004  -0.002714
    11  C    0.494616   0.037730
    12  C   -0.324270   0.012116
    13  C    0.279991   0.000466
    14  O   -0.448100   0.167156
    15  Fe   0.787581   4.080445
    16  Cl  -0.556877   0.231064
    17  C    0.353761  -0.000654
    18  Cl  -0.525046   0.241600
    19  Cl  -0.530653   0.225292
    20  H   -0.254523   0.001271
    21  H   -0.161756  -0.000010
    22  H   -0.156278   0.000048
    23  H   -0.156031   0.000170
    24  H   -0.255747  -0.000120
    25  H   -0.199318  -0.000646
    26  C    0.811933   0.001276
    27  H   -0.139533   0.000322
    28  H   -0.012525  -0.000040
    29  H   -0.085556   0.000071
    30  H   -0.110728   0.001354
    31  H   -0.270003  -0.001268
    32  H    0.011510   0.000100
    33  H    0.079144   0.000302
    34  H    0.001315   0.000772
    35  H    0.017595   0.000601
    36  H    0.045773   0.001009
    37  H    0.076120  -0.000179
    38  O   -0.632894   0.002596
    39  O   -0.634209   0.000748
    40  C    0.432227   0.000757
    41  C    0.038607  -0.001577
    42  H   -0.039102  -0.000012
    43  H   -0.040776   0.000018
    44  H   -0.010087   0.000046
    45  H    0.023829   0.000087
    46  H    0.026664  -0.000405
 Sum of Mulliken charges =  -0.00000   5.00000

 Dipole moment (field-independent basis, Debye):
    X=             10.5720    Y=             -4.9885    Z=             -3.6825  Tot=             12.2561
 Quadrupole moment (field-independent basis, Debye-Ang):
   XX=           -199.1004   YY=           -160.5808   ZZ=           -170.6266
   XY=            -10.0887   XZ=              9.3084   YZ=              7.6907

 Normal termination of Gaussian 16 at Sun Jun 20 07:55:49 2021.
