 Gaussian 16, Revision A.03,

 -----------------------------------------------------------
 #p opt=modredundant freq=noraman ub3lyp jul-cc-pvdz pop=cm5
 -----------------------------------------------------------

 -----
 title
 -----
 Symbolic Z-matrix:
 Charge =  0 Multiplicity = 6

 SCF Done:  E(UB3LYP) =  -3531.42504053     A.U. after   26 cycles
 SCF Done:  E(UB3LYP) =  -3531.42382374     A.U. after   18 cycles
 SCF Done:  E(UB3LYP) =  -3531.42306636     A.U. after   18 cycles
 SCF Done:  E(UB3LYP) =  -3531.42256010     A.U. after   19 cycles
 SCF Done:  E(UB3LYP) =  -3531.42521070     A.U. after   13 cycles
 SCF Done:  E(UB3LYP) =  -3531.42501431     A.U. after   17 cycles
 SCF Done:  E(UB3LYP) =  -3531.42538231     A.U. after   17 cycles
 SCF Done:  E(UB3LYP) =  -3531.42559065     A.U. after   15 cycles
 SCF Done:  E(UB3LYP) =  -3531.42567801     A.U. after   14 cycles
 SCF Done:  E(UB3LYP) =  -3531.42568769     A.U. after   15 cycles
 SCF Done:  E(UB3LYP) =  -3531.42572734     A.U. after   10 cycles
 SCF Done:  E(UB3LYP) =  -3531.42572822     A.U. after   12 cycles
 SCF Done:  E(UB3LYP) =  -3531.42572872     A.U. after   11 cycles
 SCF Done:  E(UB3LYP) =  -3531.42572900     A.U. after   11 cycles
 SCF Done:  E(UB3LYP) =  -3531.42572902     A.U. after   10 cycles
 SCF Done:  E(UB3LYP) =  -3531.42572897     A.U. after    9 cycles
 SCF Done:  E(UB3LYP) =  -3531.42572892     A.U. after    9 cycles
 Optimization completed.
    -- Stationary point found.
 Normal termination of Gaussian 16 at Sun Jun 20 07:29:43 2021.

 ----------------------------------------------------------------------
 #P Geom=AllCheck Guess=TCheck SCRF=Check GenChk UB3LYP/Jul-CC-pVDZ Fre
 q
 ----------------------------------------------------------------------

 Structure from the checkpoint file:  "checkpoint.chk"
 -----
 title
 -----
 Charge =  0 Multiplicity = 6

 SCF Done:  E(UB3LYP) =  -3531.42572892     A.U. after    2 cycles

  Exact polarizability: 316.820  14.317 303.582  12.570  10.714 298.998
 Approx polarizability: 489.307  44.557 462.544   9.979  13.997 497.818

 ******    1 imaginary frequencies (negative Signs) ******

                      1                      2                      3
                      A                      A                      A
 Frequencies --    -20.7639                18.2513                25.9526
 Red. masses --      6.3556                 5.1065                 5.1576
 Frc consts  --      0.0016                 0.0010                 0.0020
 IR Inten    --      0.7761                 0.2886                 0.5624

                      4                      5                      6
                      A                      A                      A
 Frequencies --     29.6832                44.2765                50.1965
 Red. masses --      8.9104                 3.8930                 4.3872
 Frc consts  --      0.0046                 0.0045                 0.0065
 IR Inten    --      0.2583                 7.0150                 1.7946

                      7                      8                      9
                      A                      A                      A
 Frequencies --     60.6273                66.3851                80.8744
 Red. masses --      4.7505                 4.1068                10.0339
 Frc consts  --      0.0103                 0.0107                 0.0387
 IR Inten    --      0.4757                 2.7759                 2.7402

                     10                     11                     12
                      A                      A                      A
 Frequencies --     88.1151                93.9101               101.2783
 Red. masses --      7.6315                 7.9212                 4.0913
 Frc consts  --      0.0349                 0.0412                 0.0247
 IR Inten    --      1.1634                 4.5370                 3.2792

                     13                     14                     15
                      A                      A                      A
 Frequencies --    103.8544               117.1205               122.5735
 Red. masses --      6.6597                16.6426                 1.9637
 Frc consts  --      0.0423                 0.1345                 0.0174
 IR Inten    --      1.6984                 5.1010                19.5107

                     16                     17                     18
                      A                      A                      A
 Frequencies --    128.6090               138.6229               151.7191
 Red. masses --      4.0235                 2.7558                 4.7323
 Frc consts  --      0.0392                 0.0312                 0.0642
 IR Inten    --      5.0522                27.8613                27.6344

                     19                     20                     21
                      A                      A                      A
 Frequencies --    156.1702               168.2602               177.8432
 Red. masses --      3.5394                 2.4584                 1.1522
 Frc consts  --      0.0509                 0.0410                 0.0215
 IR Inten    --     22.6666                10.7055                 0.8265

                     22                     23                     24
                      A                      A                      A
 Frequencies --    198.8491               206.7741               231.1378
 Red. masses --      2.9643                 2.5814                 3.9127
 Frc consts  --      0.0691                 0.0650                 0.1232
 IR Inten    --      0.2563                 9.4401                19.0147

                     25                     26                     27
                      A                      A                      A
 Frequencies --    240.9847               259.8853               293.1099
 Red. masses --      4.2595                 1.7188                 3.9721
 Frc consts  --      0.1457                 0.0684                 0.2011
 IR Inten    --     85.9078                 3.0267                 2.9371

                     28                     29                     30
                      A                      A                      A
 Frequencies --    319.1621               325.5809               348.1995
 Red. masses --      2.2827                 9.3530                13.1433
 Frc consts  --      0.1370                 0.5841                 0.9389
 IR Inten    --      1.6020                 2.4844                41.1596

                     31                     32                     33
                      A                      A                      A
 Frequencies --    354.8880               373.4180               389.2095
 Red. masses --      6.2337                 4.2830                31.3931
 Frc consts  --      0.4626                 0.3519                 2.8019
 IR Inten    --     14.5615                16.6824                88.1665

                     34                     35                     36
                      A                      A                      A
 Frequencies --    395.8646               401.4307               411.2401
 Red. masses --     21.0500                 2.7994                 2.8629
 Frc consts  --      1.9436                 0.2658                 0.2853
 IR Inten    --     72.5447                10.6131                 0.5809

                     37                     38                     39
                      A                      A                      A
 Frequencies --    428.8845               454.2311               480.7267
 Red. masses --      3.7160                 3.9870                 2.7152
 Frc consts  --      0.4027                 0.4847                 0.3697
 IR Inten    --     41.4962                 1.3959                11.4728

                     40                     41                     42
                      A                      A                      A
 Frequencies --    508.1643               524.6514               549.9500
 Red. masses --      2.9099                 3.2446                 3.1468
 Frc consts  --      0.4427                 0.5262                 0.5607
 IR Inten    --      6.7441                 3.9828                32.5707

                     43                     44                     45
                      A                      A                      A
 Frequencies --    599.5755               624.8978               641.2277
 Red. masses --      4.5587                 6.0564                 4.0174
 Frc consts  --      0.9656                 1.3934                 0.9732
 IR Inten    --     69.2785                14.1200               101.8427

                     46                     47                     48
                      A                      A                      A
 Frequencies --    693.4910               702.7227               754.9925
 Red. masses --      1.6216                 6.2294                 4.5198
 Frc consts  --      0.4595                 1.8124                 1.5179
 IR Inten    --     57.1025                18.8005                 5.2633

                     49                     50                     51
                      A                      A                      A
 Frequencies --    766.0070               797.1588               804.0597
 Red. masses --      2.3567                 2.1022                 1.4761
 Frc consts  --      0.8147                 0.7871                 0.5623
 IR Inten    --     15.7435                20.9939                 0.9179

                     52                     53                     54
                      A                      A                      A
 Frequencies --    820.0575               841.9940               862.9670
 Red. masses --      2.8364                 1.2592                 2.1496
 Frc consts  --      1.1239                 0.5260                 0.9432
 IR Inten    --     20.6458                 1.1376                 7.4173

                     55                     56                     57
                      A                      A                      A
 Frequencies --    869.9194               899.2716               925.1969
 Red. masses --      1.7773                 1.8073                 1.9487
 Frc consts  --      0.7924                 0.8611                 0.9828
 IR Inten    --     37.4198                 5.5025                17.5157

                     58                     59                     60
                      A                      A                      A
 Frequencies --    940.8701               960.1331               966.5049
 Red. masses --      1.4206                 1.4159                 2.8203
 Frc consts  --      0.7409                 0.7690                 1.5522
 IR Inten    --      0.2552                 9.3197                27.8156

                     61                     62                     63
                      A                      A                      A
 Frequencies --    985.7261               988.6767               993.2458
 Red. masses --      1.7537                 2.0092                 1.3000
 Frc consts  --      1.0040                 1.1572                 0.7556
 IR Inten    --     11.4946                34.0670                 7.9924

                     64                     65                     66
                      A                      A                      A
 Frequencies --   1002.2916              1008.0587              1010.4112
 Red. masses --      2.2596                 1.9780                 1.9750
 Frc consts  --      1.3374                 1.1842                 1.1880
 IR Inten    --      0.7673                 2.4917                 6.8032

                     67                     68                     69
                      A                      A                      A
 Frequencies --   1037.1081              1047.3950              1069.7792
 Red. masses --      2.7174                 2.3972                 2.3190
 Frc consts  --      1.7221                 1.5494                 1.5636
 IR Inten    --     40.2011                 3.8982                 2.8480

                     70                     71                     72
                      A                      A                      A
 Frequencies --   1083.7536              1096.4382              1111.5204
 Red. masses --      1.8223                 1.7793                 1.5662
 Frc consts  --      1.2610                 1.2603                 1.1400
 IR Inten    --     10.5930                12.1734                 9.6308

                     73                     74                     75
                      A                      A                      A
 Frequencies --   1132.4467              1137.5002              1161.9225
 Red. masses --      2.1372                 2.3215                 1.6959
 Frc consts  --      1.6148                 1.7698                 1.3490
 IR Inten    --     12.8531                 6.5467                60.4940

                     76                     77                     78
                      A                      A                      A
 Frequencies --   1170.7310              1176.3966              1197.4056
 Red. masses --      1.5659                 1.0895                 1.5149
 Frc consts  --      1.2645                 0.8884                 1.2797
 IR Inten    --      4.2380                 1.2913                50.9209

                     79                     80                     81
                      A                      A                      A
 Frequencies --   1205.1656              1223.4604              1243.5674
 Red. masses --      1.2686                 2.4845                 2.3732
 Frc consts  --      1.0856                 2.1911                 2.1623
 IR Inten    --     25.9608               131.3969                82.9995

                     82                     83                     84
                      A                      A                      A
 Frequencies --   1257.7362              1285.7374              1314.9546
 Red. masses --      1.9620                 1.1125                 1.6063
 Frc consts  --      1.8287                 1.0836                 1.6364
 IR Inten    --     33.0239                 1.1900               188.0508

                     85                     86                     87
                      A                      A                      A
 Frequencies --   1324.3083              1328.3398              1334.3742
 Red. masses --      1.4687                 1.5127                 1.6744
 Frc consts  --      1.5176                 1.5726                 1.7566
 IR Inten    --     45.0464                62.4504                24.8581

                     88                     89                     90
                      A                      A                      A
 Frequencies --   1361.3301              1363.8333              1370.8528
 Red. masses --      3.2035                 1.5291                 1.3297
 Frc consts  --      3.4978                 1.6757                 1.4722
 IR Inten    --      3.6377                21.4623                30.1305

                     91                     92                     93
                      A                      A                      A
 Frequencies --   1383.4260              1391.8047              1406.6215
 Red. masses --      1.4206                 1.2964                 1.5337
 Frc consts  --      1.6019                 1.4796                 1.7879
 IR Inten    --     35.4305                43.6587                27.3264

                     94                     95                     96
                      A                      A                      A
 Frequencies --   1415.2556              1426.5804              1452.7901
 Red. masses --      1.4329                 2.5328                 1.0757
 Frc consts  --      1.6909                 3.0370                 1.3377
 IR Inten    --     48.9590               388.0085                17.6824

                     97                     98                     99
                      A                      A                      A
 Frequencies --   1465.0301              1473.3428              1473.6998
 Red. masses --      1.0813                 1.0445                 1.0840
 Frc consts  --      1.3673                 1.3359                 1.3871
 IR Inten    --      1.3825                 6.2515                 5.0958

                    100                    101                    102
                      A                      A                      A
 Frequencies --   1475.7284              1480.9210              1488.3780
 Red. masses --      1.9408                 1.2146                 1.0551
 Frc consts  --      2.4903                 1.5694                 1.3771
 IR Inten    --     86.9882                60.1060                 2.3575

                    103                    104                    105
                      A                      A                      A
 Frequencies --   1497.5752              1502.2990              1506.4168
 Red. masses --      1.1485                 1.1321                 1.0838
 Frc consts  --      1.5176                 1.5054                 1.4490
 IR Inten    --      9.6457                20.4105                 7.0608

                    106                    107                    108
                      A                      A                      A
 Frequencies --   1516.6722              1618.5810              1639.4146
 Red. masses --      1.9154                 5.5377                 5.6538
 Frc consts  --      2.5960                 8.5477                 8.9530
 IR Inten    --      4.4498                 4.5274                29.3223

                    109                    110                    111
                      A                      A                      A
 Frequencies --   1659.4362              1766.2489              3016.2225
 Red. masses --      5.5452                11.5218                 1.0479
 Frc consts  --      8.9969                21.1775                 5.6168
 IR Inten    --    145.7512               230.2586                 2.0908

                    112                    113                    114
                      A                      A                      A
 Frequencies --   3025.1631              3041.7407              3043.9894
 Red. masses --      1.0406                 1.0360                 1.0659
 Frc consts  --      5.6107                 5.6475                 5.8189
 IR Inten    --      5.9912                19.8676                23.5716

                    115                    116                    117
                      A                      A                      A
 Frequencies --   3060.8671              3069.3999              3077.3818
 Red. masses --      1.0594                 1.0630                 1.0859
 Frc consts  --      5.8476                 5.9006                 6.0589
 IR Inten    --     14.6058                26.0139                 1.0473

                    118                    119                    120
                      A                      A                      A
 Frequencies --   3079.1274              3097.3027              3101.7774
 Red. masses --      1.0967                 1.0918                 1.0916
 Frc consts  --      6.1261                 6.1713                 6.1878
 IR Inten    --      3.1834                 4.9069                 0.4892

                    121                    122                    123
                      A                      A                      A
 Frequencies --   3109.8020              3117.7618              3121.6579
 Red. masses --      1.1053                 1.1025                 1.1006
 Frc consts  --      6.2980                 6.3139                 6.3189
 IR Inten    --      9.9339                15.8562                16.0351

                    124                    125                    126
                      A                      A                      A
 Frequencies --   3140.3457              3140.7663              3160.2461
 Red. masses --      1.1045                 1.1016                 1.1005
 Frc consts  --      6.4173                 6.4022                 6.4758
 IR Inten    --     13.2081                 8.9616                 6.2227

                    127                    128                    129
                      A                      A                      A
 Frequencies --   3169.6189              3173.7760              3186.5219
 Red. masses --      1.0878                 1.0860                 1.0911
 Frc consts  --      6.4392                 6.4451                 6.5277
 IR Inten    --     11.0411                 0.4820                 7.0489

                    130                    131                    132
                      A                      A                      A
 Frequencies --   3196.2556              3226.4182              3234.9637
 Red. masses --      1.0969                 1.0924                 1.0915
 Frc consts  --      6.6024                 6.6999                 6.7301
 IR Inten    --     13.4935                 1.8825                 1.2345

 - Thermochemistry -
 -------------------
 Temperature   298.150 Kelvin.  Pressure   1.00000 Atm.
 Atom     1 has atomic number  6 and mass  12.00000

 Molecular mass:   434.99839 amu.
 Principal axes and moments of inertia in atomic units:
                           1         2         3
     Eigenvalues --  9189.26679********************
           X            0.99904  -0.04128   0.01469
           Y            0.04090   0.99884   0.02542
           Z           -0.01572  -0.02480   0.99957
 This molecule is an asymmetric top.
 Rotational symmetry number  1.
 Warning -- assumption of classical behavior for rotation
           may cause significant error
 Rotational temperatures (Kelvin)      0.00943     0.00786     0.00669
 Rotational constants (GHZ):           0.19640     0.16371     0.13942
    1 imaginary frequencies ignored.
 Zero-point vibrational energy     943539.6 (Joules/Mol)
                                  225.51138 (Kcal/Mol)
 Warning -- explicit consideration of  42 degrees of freedom as
           vibrations may cause significant error
 Vibrational temperatures:     26.26    37.34    42.71    63.70    72.22
          (Kelvin)             87.23    95.51   116.36   126.78   135.12
                              145.72   149.42   168.51   176.36   185.04
                              199.45   218.29   224.69   242.09   255.88
                              286.10   297.50   332.56   346.72   373.92
                              421.72   459.20   468.44   500.98   510.60
                              537.27   559.99   569.56   577.57   591.68
                              617.07   653.54   691.66   731.14   754.86
                              791.26   862.66   899.09   922.58   997.78
                             1011.06  1086.27  1102.11  1146.93  1156.86
                             1179.88  1211.44  1241.62  1251.62  1293.85
                             1331.15  1353.70  1381.42  1390.59  1418.24
                             1422.49  1429.06  1442.07  1450.37  1453.76
                             1492.17  1506.97  1539.17  1559.28  1577.53
                             1599.23  1629.34  1636.61  1671.75  1684.42
                             1692.57  1722.80  1733.96  1760.29  1789.22
                             1809.60  1849.89  1891.93  1905.38  1911.18
                             1919.87  1958.65  1962.25  1972.35  1990.44
                             2002.50  2023.81  2036.24  2052.53  2090.24
                             2107.85  2119.81  2120.33  2123.24  2130.72
                             2141.44  2154.68  2161.47  2167.40  2182.15
                             2328.78  2358.75  2387.56  2541.24  4339.67
                             4352.53  4376.39  4379.62  4403.91  4416.18
                             4427.67  4430.18  4456.33  4462.77  4474.31
                             4485.76  4491.37  4518.26  4518.86  4546.89
                             4560.37  4566.36  4584.69  4598.70  4642.10
                             4654.39

 Zero-point correction=                           0.359375 (Hartree/Particle)
 Thermal correction to Energy=                    0.386885
 Thermal correction to Enthalpy=                  0.387829
 Thermal correction to Gibbs Free Energy=         0.296879
 Sum of electronic and zero-point Energies=          -3531.066354
 Sum of electronic and thermal Energies=             -3531.038844
 Sum of electronic and thermal Enthalpies=           -3531.037900
 Sum of electronic and thermal Free Energies=        -3531.128850

                     E (Thermal)             CV                S
                      KCal/Mol        Cal/Mol-Kelvin    Cal/Mol-Kelvin
 Total                  242.774             97.697            191.420
 Electronic               0.000              0.000              3.561
 Translational            0.889              2.981             44.100
 Rotational               0.889              2.981             35.526
 Vibrational            240.997             91.736            108.233
 Vibration     1          0.593              1.986              6.816
 Vibration     2          0.593              1.985              6.117
 Vibration     3          0.593              1.984              5.850
 Vibration     4          0.595              1.980              5.058
 Vibration     5          0.595              1.978              4.810
 Vibration     6          0.597              1.973              4.437
 Vibration     7          0.598              1.970              4.258
 Vibration     8          0.600              1.962              3.870
 Vibration     9          0.601              1.958              3.701
 Vibration    10          0.603              1.954              3.577
 Vibration    11          0.604              1.948              3.430
 Vibration    12          0.605              1.946              3.381
 Vibration    13          0.608              1.935              3.147
 Vibration    14          0.610              1.930              3.059
 Vibration    15          0.611              1.925              2.967
 Vibration    16          0.614              1.915              2.823
 Vibration    17          0.619              1.901              2.651
 Vibration    18          0.620              1.896              2.596
 Vibration    19          0.625              1.882              2.455
 Vibration    20          0.628              1.870              2.351
 Vibration    21          0.637              1.841              2.144
 Vibration    22          0.641              1.830              2.072
 Vibration    23          0.653              1.793              1.870
 Vibration    24          0.658              1.778              1.796
 Vibration    25          0.668              1.746              1.663
 Vibration    26          0.688              1.687              1.456
 Vibration    27          0.705              1.637              1.314
 Vibration    28          0.710              1.624              1.282
 Vibration    29          0.726              1.579              1.174
 Vibration    30          0.731              1.565              1.144
 Vibration    31          0.745              1.527              1.066
 Vibration    32          0.757              1.493              1.003
 Vibration    33          0.763              1.479              0.978
 Vibration    34          0.767              1.467              0.957
 Vibration    35          0.775              1.446              0.922
 Vibration    36          0.790              1.407              0.862
 Vibration    37          0.813              1.352              0.783
 Vibration    38          0.837              1.293              0.708
 Vibration    39          0.863              1.232              0.638
 Vibration    40          0.880              1.195              0.599
 Vibration    41          0.905              1.140              0.544
 Vibration    42          0.958              1.033              0.450

                           ! Non-Optimized Parameters !
 Normal termination of Gaussian 16 at Sun Jun 20 12:56:26 2021.

 ----------------------------------------------------------------------
 #p ub3lyp jul-cc-pvdz pop=cm5 scrf=(pcm,solvent=dichloroethane) guess=
 read geom=allcheck
 ----------------------------------------------------------------------

 Structure from the checkpoint file:  "checkpoint.chk"
 -----
 title
 -----
 Charge =  0 Multiplicity = 6

 SCF Done:  E(UB3LYP) =  -3531.44526976     A.U. after   18 cycles
 Normal termination of Gaussian 16 at Sun Jun 20 13:23:43 2021.
 Gaussian 16:  ES64L-G16RevA.03 25-Dec-2016

 ----------------------------------------------------------------------
 #p ub3lyp jul-cc-pvdz pop=cm5 scrf=(pcm,solvent=water) guess=read geom
 =allcheck
 ----------------------------------------------------------------------

 Structure from the checkpoint file:  "checkpoint.chk"
 -----
 title
 -----
 Charge =  0 Multiplicity = 6

                         Standard orientation:
 ---------------------------------------------------------------------
 Center     Atomic      Atomic             Coordinates (Angstroms)
 Number     Number       Type             X           Y           Z
 ---------------------------------------------------------------------
      1          6           0        3.241183   -0.032685    0.460000
      2          6           0        1.898234   -0.380561    0.708061
      3          6           0        1.503395   -0.648542    2.033340
      4          6           0        2.426663   -0.584113    3.077091
      5          6           0        3.758803   -0.251276    2.816257
      6          6           0        4.160709    0.029573    1.504654
      7          6           0        0.856690   -0.423423   -0.365947
      8          6           0        0.955292    0.498349   -1.617175
      9          6           0        1.884832   -0.016445   -2.721461
     10          6           0        1.605275   -1.514569   -2.891569
     11          6           0        1.591029   -2.143610   -1.524266
     12          6           0        0.573607   -2.864934   -0.969109
     13          6           0       -0.770302   -3.037579   -1.600238
     14          8           0       -0.326477   -0.747686    0.009206
     15         26           0       -2.128971   -0.132946    0.403393
     16         17           0       -2.983523    0.631153   -1.488705
     17          6           0        0.762025   -3.573663    0.333269
     18         17           0       -1.977404    1.361321    2.021516
     19         17           0       -3.166881   -1.951008    1.133204
     20          1           0        0.461310   -0.876629    2.243588
     21          1           0        2.099652   -0.784104    4.097998
     22          1           0        4.481070   -0.198843    3.632474
     23          1           0        5.194613    0.306372    1.295633
     24          1           0        3.575138    0.207920   -0.545174
     25          1           0       -0.074395    0.527671   -1.995917
     26          6           0        1.314676    1.934156   -1.204058
     27          1           0        1.697222    0.541527   -3.648691
     28          1           0        2.933901    0.163354   -2.459133
     29          1           0        0.650278   -1.663691   -3.409829
     30          1           0        2.383357   -1.983099   -3.512619
     31          1           0        2.562790   -2.208975   -1.034340
     32          1           0        1.782150   -3.486751    0.722582
     33          1           0        0.047662   -3.186875    1.076422
     34          1           0        0.520778   -4.640892    0.204916
     35          1           0       -0.793757   -4.030570   -2.081762
     36          1           0       -1.563812   -3.032955   -0.842637
     37          1           0       -1.003320   -2.289793   -2.363449
     38          8           0        0.249805    2.561409   -0.697279
     39          8           0        2.411840    2.431976   -1.347457
     40          6           0        0.439967    3.944489   -0.268590
     41          6           0       -0.928597    4.548313   -0.033442
     42          1           0        1.051388    3.926351    0.644200
     43          1           0        1.004867    4.467766   -1.050291
     44          1           0       -0.807642    5.587263    0.306325
     45          1           0       -1.519675    4.552067   -0.959405
     46          1           0       -1.479846    3.988082    0.731969
 ---------------------------------------------------------------------

 SCF Done:  E(UB3LYP) =  -3531.44901822     A.U. after   17 cycles

 The electronic state is 6-A.
 Alpha  occ. eigenvalues -- -256.20909-101.52344-101.52299-101.52273 -30.20307
 Alpha  occ. eigenvalues --  -26.05679 -26.05517 -26.05418 -19.20750 -19.17781
 Alpha  occ. eigenvalues --  -19.15711 -10.33609 -10.33024 -10.24968 -10.24469
 Alpha  occ. eigenvalues --  -10.22868 -10.22278 -10.21266 -10.21205 -10.21139
 Alpha  occ. eigenvalues --  -10.20776 -10.20709 -10.20701 -10.20319 -10.20009
 Alpha  occ. eigenvalues --  -10.19531 -10.19361 -10.18540  -9.44063  -9.44026
 Alpha  occ. eigenvalues --   -9.43996  -7.19929  -7.19895  -7.19866  -7.19612
 Alpha  occ. eigenvalues --   -7.19605  -7.19574  -7.19565  -7.19540  -7.19535
 Alpha  occ. eigenvalues --   -3.67985  -2.45598  -2.45283  -2.45095  -1.12628
 Alpha  occ. eigenvalues --   -1.08157  -1.04120  -0.88105  -0.86181  -0.83253
 Alpha  occ. eigenvalues --   -0.80345  -0.79606  -0.79557  -0.78766  -0.78433
 Alpha  occ. eigenvalues --   -0.76712  -0.75059  -0.71435  -0.70517  -0.66834
 Alpha  occ. eigenvalues --   -0.64640  -0.62515  -0.61749  -0.59705  -0.57557
 Alpha  occ. eigenvalues --   -0.55952  -0.54150  -0.53231  -0.51697  -0.50483
 Alpha  occ. eigenvalues --   -0.49826  -0.49195  -0.48979  -0.48320  -0.48103
 Alpha  occ. eigenvalues --   -0.47879  -0.47607  -0.47111  -0.46859  -0.45946
 Alpha  occ. eigenvalues --   -0.45402  -0.44922  -0.43774  -0.43125  -0.42801
 Alpha  occ. eigenvalues --   -0.42355  -0.40893  -0.40601  -0.40112  -0.40027
 Alpha  occ. eigenvalues --   -0.38929  -0.38664  -0.37983  -0.37676  -0.37628
 Alpha  occ. eigenvalues --   -0.37388  -0.36999  -0.36291  -0.36001  -0.35532
 Alpha  occ. eigenvalues --   -0.34705  -0.34251  -0.33980  -0.32270  -0.32060
 Alpha  occ. eigenvalues --   -0.31188  -0.31152  -0.30806  -0.30604  -0.30093
 Alpha  occ. eigenvalues --   -0.29754  -0.29365  -0.28373  -0.27421  -0.25741
 Alpha virt. eigenvalues --   -0.10839  -0.03197  -0.02671  -0.01668  -0.01189
 Alpha virt. eigenvalues --   -0.00157   0.00019   0.00047   0.01383   0.01528
 Alpha virt. eigenvalues --    0.01717   0.01985   0.02532   0.02932   0.03240

  Beta  occ. eigenvalues -- -256.20724-101.52161-101.52112-101.52093 -30.11356
  Beta  occ. eigenvalues --  -25.98113 -25.98089 -25.98031 -19.20750 -19.17307
  Beta  occ. eigenvalues --  -19.15710 -10.33609 -10.33016 -10.24968 -10.24437
  Beta  occ. eigenvalues --  -10.22855 -10.22258 -10.21267 -10.21207 -10.21143
  Beta  occ. eigenvalues --  -10.20773 -10.20699 -10.20669 -10.20316 -10.20010
  Beta  occ. eigenvalues --  -10.19532 -10.19362 -10.18539  -9.43883  -9.43843
  Beta  occ. eigenvalues --   -9.43820  -7.19628  -7.19590  -7.19563  -7.19367
  Beta  occ. eigenvalues --   -7.19358  -7.19325  -7.19312  -7.19303  -7.19296
  Beta  occ. eigenvalues --   -3.47113  -2.23378  -2.23329  -2.23280  -1.12625
  Beta  occ. eigenvalues --   -1.07243  -1.04118  -0.88059  -0.86099  -0.83197
  Beta  occ. eigenvalues --   -0.79165  -0.78770  -0.78399  -0.78313  -0.78251
  Beta  occ. eigenvalues --   -0.76709  -0.75027  -0.71414  -0.70412  -0.66694
  Beta  occ. eigenvalues --   -0.64573  -0.62485  -0.61678  -0.59270  -0.57307
  Beta  occ. eigenvalues --   -0.55480  -0.54083  -0.52444  -0.51618  -0.50283
  Beta  occ. eigenvalues --   -0.49482  -0.48895  -0.48075  -0.47649  -0.47076
  Beta  occ. eigenvalues --   -0.45858  -0.45024  -0.43787  -0.43131  -0.42817
  Beta  occ. eigenvalues --   -0.42310  -0.40889  -0.40588  -0.40092  -0.40053
  Beta  occ. eigenvalues --   -0.38924  -0.38541  -0.38132  -0.37932  -0.37628
  Beta  occ. eigenvalues --   -0.37409  -0.37019  -0.36332  -0.36070  -0.35960
  Beta  occ. eigenvalues --   -0.35889  -0.35514  -0.34352  -0.33358  -0.33118
  Beta  occ. eigenvalues --   -0.32586  -0.32427  -0.32088  -0.31298  -0.30338
  Beta  occ. eigenvalues --   -0.29641  -0.29347  -0.28509  -0.27422  -0.25639
  Beta virt. eigenvalues --   -0.14871  -0.14420  -0.13553  -0.13261  -0.13014
  Beta virt. eigenvalues --   -0.10086  -0.03172  -0.02622  -0.01596  -0.01111
  Beta virt. eigenvalues --   -0.00116   0.00049   0.00080   0.01444   0.01564

 Mulliken charges and spin densities:
               1          2
     1  C    0.234264  -0.000819
     2  C    2.929746   0.003315
     3  C   -0.541722  -0.009915
     4  C    0.057381   0.004486
     5  C    0.277243  -0.001178
     6  C   -0.076263   0.002684
     7  C   -2.438707  -0.005899
     8  C    0.416551   0.010374
     9  C    0.514117   0.003003
    10  C    0.676054  -0.001714
    11  C    0.375487   0.022087
    12  C   -0.161880   0.020117
    13  C    0.209926  -0.000357
    14  O   -0.323576   0.139653
    15  Fe   0.670483   4.065786
    16  Cl  -0.514715   0.242705
    17  C    0.304770  -0.000526
    18  Cl  -0.476331   0.251705
    19  Cl  -0.497412   0.246288
    20  H   -0.253599   0.000611
    21  H   -0.159518   0.000002
    22  H   -0.153321   0.000029
    23  H   -0.154738   0.000157
    24  H   -0.245706  -0.000115
    25  H   -0.187435  -0.000381
    26  C    0.773260   0.000625
    27  H   -0.139334   0.000299
    28  H   -0.009099  -0.000034
    29  H   -0.088188   0.000039
    30  H   -0.111786   0.001167
    31  H   -0.264541  -0.001011
    32  H   -0.003255   0.000025
    33  H    0.086663   0.000558
    34  H   -0.013097   0.001104
    35  H    0.007956   0.001232
    36  H    0.060573   0.001658
    37  H    0.051672  -0.000058
    38  O   -0.659002   0.002405
    39  O   -0.612848   0.000862
    40  C    0.425193   0.000694
    41  C    0.038211  -0.001441
    42  H   -0.035199   0.000027
    43  H   -0.036695   0.000018
    44  H   -0.006903   0.000043
    45  H    0.026456   0.000076
    46  H    0.028864  -0.000382
 Sum of Mulliken charges =  -0.00000   5.00000

 Dipole moment (field-independent basis, Debye):
    X=             10.5884    Y=             -4.0304    Z=             -2.8640  Tot=             11.6859
 Quadrupole moment (field-independent basis, Debye-Ang):
   XX=           -193.6301   YY=           -160.8741   ZZ=           -168.6440
   XY=            -10.2905   XZ=              9.3571   YZ=              6.7357

 Normal termination of Gaussian 16 at Sun Jun 20 13:49:46 2021.
