 Gaussian 16, Revision A.03,

 -----------------------------------------------------------
 #p opt=modredundant freq=noraman ub3lyp jul-cc-pvdz pop=cm5
 -----------------------------------------------------------

 -----
 title
 -----
 Symbolic Z-matrix:
 Charge =  0 Multiplicity = 6

 SCF Done:  E(UB3LYP) =  -3531.39985508     A.U. after   26 cycles
 SCF Done:  E(UB3LYP) =  -3531.40002227     A.U. after   16 cycles
 SCF Done:  E(UB3LYP) =  -3531.39942440     A.U. after   16 cycles
 SCF Done:  E(UB3LYP) =  -3531.40037952     A.U. after   15 cycles
 SCF Done:  E(UB3LYP) =  -3531.40052295     A.U. after   15 cycles
 SCF Done:  E(UB3LYP) =  -3531.40057701     A.U. after   16 cycles
 SCF Done:  E(UB3LYP) =  -3531.40060164     A.U. after   14 cycles
 SCF Done:  E(UB3LYP) =  -3531.40062475     A.U. after   13 cycles
 SCF Done:  E(UB3LYP) =  -3531.40062917     A.U. after   14 cycles
 SCF Done:  E(UB3LYP) =  -3531.40063344     A.U. after   12 cycles
 SCF Done:  E(UB3LYP) =  -3531.40063483     A.U. after   13 cycles
 SCF Done:  E(UB3LYP) =  -3531.40063583     A.U. after   11 cycles
 SCF Done:  E(UB3LYP) =  -3531.40063610     A.U. after   11 cycles
 SCF Done:  E(UB3LYP) =  -3531.40063611     A.U. after   11 cycles
 SCF Done:  E(UB3LYP) =  -3531.40063610     A.U. after   10 cycles
 Optimization completed.
    -- Stationary point found.
 Normal termination of Gaussian 16 at Sun Jun 20 02:18:18 2021.

 ----------------------------------------------------------------------
 #P Geom=AllCheck Guess=TCheck SCRF=Check GenChk UB3LYP/Jul-CC-pVDZ Fre
 q
 ----------------------------------------------------------------------

 Structure from the checkpoint file:  "checkpoint.chk"
 -----
 title
 -----
 Charge =  0 Multiplicity = 6

 SCF Done:  E(UB3LYP) =  -3531.40063610     A.U. after    2 cycles

  Exact polarizability: 301.690  -3.347 316.470 -28.444  -3.592 274.612
 Approx polarizability: 442.764 -16.382 506.400 -47.395   1.735 438.234

                      1                      2                      3
                      A                      A                      A
 Frequencies --     22.0589                25.6703                29.6035
 Red. masses --      5.4463                 6.4573                 6.7108
 Frc consts  --      0.0016                 0.0025                 0.0035
 IR Inten    --      1.2423                 1.4580                 0.4459

                      4                      5                      6
                      A                      A                      A
 Frequencies --     41.5368                57.0342                65.0833
 Red. masses --      4.7814                 4.1852                 4.9336
 Frc consts  --      0.0049                 0.0080                 0.0123
 IR Inten    --      1.4035                 1.2438                 0.5056

                      7                      8                      9
                      A                      A                      A
 Frequencies --     67.8830                76.3430                77.2695
 Red. masses --      5.4940                 3.5499                 5.5111
 Frc consts  --      0.0149                 0.0122                 0.0194
 IR Inten    --      0.4357                 1.6380                 0.6579

                     10                     11                     12
                      A                      A                      A
 Frequencies --     86.8640               101.2518               108.9406
 Red. masses --      5.7318                 6.0759                 8.2647
 Frc consts  --      0.0255                 0.0367                 0.0578
 IR Inten    --      0.4740                 0.6675                 0.3394

                     13                     14                     15
                      A                      A                      A
 Frequencies --    110.9652               115.4628               133.3832
 Red. masses --      7.6681                 3.7968                 8.6151
 Frc consts  --      0.0556                 0.0298                 0.0903
 IR Inten    --      1.6985                 3.5252                 1.6122

                     16                     17                     18
                      A                      A                      A
 Frequencies --    138.2245               153.2818               165.1122
 Red. masses --      4.4035                 3.3845                 3.3397
 Frc consts  --      0.0496                 0.0469                 0.0536
 IR Inten    --     26.6826                 3.7639                 1.0092

                     19                     20                     21
                      A                      A                      A
 Frequencies --    180.8462               196.3359               216.3145
 Red. masses --      3.2467                 1.7531                 2.8432
 Frc consts  --      0.0626                 0.0398                 0.0784
 IR Inten    --      0.6918                10.0069                 3.4896

                     22                     23                     24
                      A                      A                      A
 Frequencies --    223.3746               247.9996               255.8385
 Red. masses --      1.8990                 3.9242                 1.4879
 Frc consts  --      0.0558                 0.1422                 0.0574
 IR Inten    --     15.5093                 7.2178                 2.0591

                     25                     26                     27
                      A                      A                      A
 Frequencies --    275.6862               298.7024               300.5692
 Red. masses --      3.0802                 4.7553                 3.3898
 Frc consts  --      0.1379                 0.2500                 0.1804
 IR Inten    --      1.8632                 3.2606                 4.5123

                     28                     29                     30
                      A                      A                      A
 Frequencies --    315.1547               324.2331               340.3450
 Red. masses --      1.4722                14.4948                 3.2109
 Frc consts  --      0.0862                 0.8978                 0.2191
 IR Inten    --      4.1078                40.7888                22.4950

                     31                     32                     33
                      A                      A                      A
 Frequencies --    344.8384               370.4467               388.9627
 Red. masses --     22.5612                 5.2311                 8.7869
 Frc consts  --      1.5807                 0.4230                 0.7833
 IR Inten    --     57.6019                14.5657                41.2195

                     34                     35                     36
                      A                      A                      A
 Frequencies --    397.7390               415.5470               419.4559
 Red. masses --      9.8678                 2.9589                 4.1335
 Frc consts  --      0.9197                 0.3010                 0.4285
 IR Inten    --     50.3012                 0.6728                 6.1806

                     37                     38                     39
                      A                      A                      A
 Frequencies --    452.4404               484.2656               508.5894
 Red. masses --      3.4079                 2.8630                 2.2845
 Frc consts  --      0.4110                 0.3956                 0.3482
 IR Inten    --      3.4944                 2.6936                 2.4390

                     40                     41                     42
                      A                      A                      A
 Frequencies --    554.2423               593.8522               628.0588
 Red. masses --      3.7117                 2.6829                 6.3093
 Frc consts  --      0.6718                 0.5574                 1.4663
 IR Inten    --     27.0604                 3.0762                 0.4821

                     43                     44                     45
                      A                      A                      A
 Frequencies --    649.2883               678.9876               705.0683
 Red. masses --      5.3548                 3.4922                 3.1243
 Frc consts  --      1.3300                 0.9486                 0.9151
 IR Inten    --     16.7800                17.9799                50.6076

                     46                     47                     48
                      A                      A                      A
 Frequencies --    708.9968               741.5160               753.9641
 Red. masses --      2.0010                 1.4522                 2.6839
 Frc consts  --      0.5926                 0.4704                 0.8989
 IR Inten    --     15.9701                26.1380                17.7364

                     49                     50                     51
                      A                      A                      A
 Frequencies --    776.2641               794.8437               806.7111
 Red. masses --      3.0601                 2.4834                 1.1281
 Frc consts  --      1.0864                 0.9244                 0.4325
 IR Inten    --     21.4274                 2.0790                 0.2875

                     52                     53                     54
                      A                      A                      A
 Frequencies --    813.4832               837.9377               843.5781
 Red. masses --      3.7200                 3.6097                 1.2526
 Frc consts  --      1.4504                 1.4933                 0.5252
 IR Inten    --     44.7411                12.0233                 1.7653

                     55                     56                     57
                      A                      A                      A
 Frequencies --    861.2003               875.5876               916.3982
 Red. masses --      2.8960                 2.5794                 1.8361
 Frc consts  --      1.2655                 1.1651                 0.9085
 IR Inten    --      3.0717                19.8104                22.3855

                     58                     59                     60
                      A                      A                      A
 Frequencies --    928.8603               959.2884               980.3061
 Red. masses --      1.6466                 2.1200                 1.4037
 Frc consts  --      0.8370                 1.1494                 0.7948
 IR Inten    --      3.8470                14.0940                 1.2322

                     61                     62                     63
                      A                      A                      A
 Frequencies --    984.3508               997.3128              1002.7922
 Red. masses --      2.7296                 3.0621                 1.7906
 Frc consts  --      1.5583                 1.7944                 1.0609
 IR Inten    --      2.6644                 2.3275                 0.2471

                     64                     65                     66
                      A                      A                      A
 Frequencies --   1004.4383              1016.5474              1020.8320
 Red. masses --      3.0204                 1.3453                 2.0214
 Frc consts  --      1.7954                 0.8191                 1.2411
 IR Inten    --      3.8994                 0.2364                 3.3986

                     67                     68                     69
                      A                      A                      A
 Frequencies --   1039.6028              1051.9686              1065.9220
 Red. masses --      2.8477                 2.4171                 1.9355
 Frc consts  --      1.8133                 1.5760                 1.2956
 IR Inten    --     46.1087                13.6538                 8.6477

                     70                     71                     72
                      A                      A                      A
 Frequencies --   1086.3881              1088.7404              1107.8668
 Red. masses --      2.4349                 3.0953                 1.6642
 Frc consts  --      1.6932                 2.1617                 1.2035
 IR Inten    --    134.2686                84.3489                13.7169

                     73                     74                     75
                      A                      A                      A
 Frequencies --   1132.0705              1148.7610              1168.8284
 Red. masses --      2.1721                 2.1582                 1.5519
 Frc consts  --      1.6401                 1.6780                 1.2491
 IR Inten    --      9.3642                37.9718                 2.8243

                     76                     77                     78
                      A                      A                      A
 Frequencies --   1172.2528              1175.3860              1204.2245
 Red. masses --      1.6333                 1.3281                 1.7812
 Frc consts  --      1.3224                 1.0810                 1.5219
 IR Inten    --     14.1893                11.2452                78.3336

                     79                     80                     81
                      A                      A                      A
 Frequencies --   1207.1034              1214.8331              1221.2311
 Red. masses --      1.2158                 2.0970                 1.9177
 Frc consts  --      1.0438                 1.8234                 1.6851
 IR Inten    --     10.7570               108.0452                43.4034

                     82                     83                     84
                      A                      A                      A
 Frequencies --   1252.0826              1262.1577              1281.6657
 Red. masses --      1.7544                 1.4026                 1.1259
 Frc consts  --      1.6205                 1.3165                 1.0897
 IR Inten    --     87.8117                42.6422                 5.1473

                     85                     86                     87
                      A                      A                      A
 Frequencies --   1284.4914              1296.0738              1310.2424
 Red. masses --      1.4420                 1.4179                 1.2996
 Frc consts  --      1.4018                 1.4033                 1.3145
 IR Inten    --     66.4102                26.7815                 2.8517

                     88                     89                     90
                      A                      A                      A
 Frequencies --   1311.6027              1331.5564              1340.1629
 Red. masses --      1.2118                 1.7750                 1.3365
 Frc consts  --      1.2282                 1.8542                 1.4143
 IR Inten    --     69.0300                14.1545                16.0978

                     91                     92                     93
                      A                      A                      A
 Frequencies --   1355.5365              1357.4002              1368.2903
 Red. masses --      1.3438                 2.6629                 1.3945
 Frc consts  --      1.4548                 2.8908                 1.5383
 IR Inten    --     40.8537                 2.7948                24.8410

                     94                     95                     96
                      A                      A                      A
 Frequencies --   1382.6516              1396.4792              1417.9903
 Red. masses --      1.3624                 1.5700                 1.5288
 Frc consts  --      1.5346                 1.8039                 1.8112
 IR Inten    --     35.3191                55.0946                 7.7833

                     97                     98                     99
                      A                      A                      A
 Frequencies --   1424.5106              1455.7165              1468.8183
 Red. masses --      1.1303                 1.6336                 2.2350
 Frc consts  --      1.3514                 2.0396                 2.8410
 IR Inten    --      5.1049                48.2245                 8.0035

                    100                    101                    102
                      A                      A                      A
 Frequencies --   1474.7004              1482.6819              1487.2997
 Red. masses --      1.0397                 1.1059                 1.0518
 Frc consts  --      1.3322                 1.4324                 1.3708
 IR Inten    --      4.7076                 3.8827                 1.5674

                    103                    104                    105
                      A                      A                      A
 Frequencies --   1492.6324              1499.0420              1507.1736
 Red. masses --      1.2162                 1.1516                 1.3330
 Frc consts  --      1.5965                 1.5247                 1.7840
 IR Inten    --     12.3957                17.6970                36.5205

                    106                    107                    108
                      A                      A                      A
 Frequencies --   1507.9752              1519.4943              1624.4577
 Red. masses --      1.1109                 2.0989                 5.7127
 Frc consts  --      1.4884                 2.8552                 8.8820
 IR Inten    --     11.1462                10.0247                 0.5091

                    109                    110                    111
                      A                      A                      A
 Frequencies --   1644.0484              1767.5167              2603.6519
 Red. masses --      5.8107                11.8008                 1.0709
 Frc consts  --      9.2535                21.7214                 4.2772
 IR Inten    --      0.0591               211.5174               885.3431

                    112                    113                    114
                      A                      A                      A
 Frequencies --   2916.9075              3039.2674              3041.8394
 Red. masses --      1.0611                 1.0352                 1.0673
 Frc consts  --      5.3191                 5.6341                 5.8187
 IR Inten    --     78.0599                15.6537                15.1786

                    115                    116                    117
                      A                      A                      A
 Frequencies --   3056.9852              3074.8929              3077.9648
 Red. masses --      1.0583                 1.0620                 1.0823
 Frc consts  --      5.8271                 5.9161                 6.0414
 IR Inten    --     17.1802                14.4510                10.7994

                    118                    119                    120
                      A                      A                      A
 Frequencies --   3082.6457              3090.6573              3099.6449
 Red. masses --      1.0683                 1.0640                 1.0907
 Frc consts  --      5.9810                 5.9882                 6.1740
 IR Inten    --      1.0546                 3.9089                 4.7568

                    121                    122                    123
                      A                      A                      A
 Frequencies --   3100.5791              3111.3322              3115.8826
 Red. masses --      1.1072                 1.0925                 1.1014
 Frc consts  --      6.2715                 6.2312                 6.3001
 IR Inten    --      4.1538                 7.0627                20.5911

                    124                    125                    126
                      A                      A                      A
 Frequencies --   3128.3964              3128.8726              3162.7119
 Red. masses --      1.1043                 1.1053                 1.1057
 Frc consts  --      6.3679                 6.3754                 6.5165
 IR Inten    --      6.5059                36.4726                 8.4813

                    127                    128                    129
                      A                      A                      A
 Frequencies --   3165.4020              3175.6955              3184.3706
 Red. masses --      1.0844                 1.0880                 1.0930
 Frc consts  --      6.4017                 6.4649                 6.5299
 IR Inten    --      2.4298                 5.1145                22.3779

                    130                    131                    132
                      A                      A                      A
 Frequencies --   3194.9838              3199.2630              3219.4358
 Red. masses --      1.0980                 1.1016                 1.0924
 Frc consts  --      6.6038                 6.6433                 6.6712
 IR Inten    --     15.0076                 0.5851                 2.6286

 - Thermochemistry -
 -------------------
 Temperature   298.150 Kelvin.  Pressure   1.00000 Atm.
 Atom     1 has atomic number  6 and mass  12.00000

 Molecular mass:   434.99839 amu.
 Principal axes and moments of inertia in atomic units:
                           1         2         3
     Eigenvalues --  8893.19235********************
           X            0.99528   0.09640  -0.01131
           Y           -0.09616   0.99517   0.01980
           Z            0.01316  -0.01862   0.99974
 This molecule is an asymmetric top.
 Rotational symmetry number  1.
 Warning -- assumption of classical behavior for rotation
           may cause significant error
 Rotational temperatures (Kelvin)      0.00974     0.00742     0.00670
 Rotational constants (GHZ):           0.20294     0.15464     0.13957
 Zero-point vibrational energy     941038.6 (Joules/Mol)
                                  224.91363 (Kcal/Mol)
 Warning -- explicit consideration of  41 degrees of freedom as
           vibrations may cause significant error
 Vibrational temperatures:     31.74    36.93    42.59    59.76    82.06
          (Kelvin)             93.64    97.67   109.84   111.17   124.98
                              145.68   156.74   159.65   166.13   191.91
                              198.87   220.54   237.56   260.20   282.48
                              311.23   321.39   356.82   368.09   396.65
                              429.77   432.45   453.44   466.50   489.68
                              496.15   532.99   559.63   572.26   597.88
                              603.50   650.96   696.75   731.75   797.43
                              854.42   903.64   934.18   976.91  1014.44
                             1020.09  1066.88  1084.79  1116.87  1143.60
                             1160.68  1170.42  1205.61  1213.72  1239.08
                             1259.78  1318.49  1336.42  1380.20  1410.44
                             1416.26  1434.91  1442.79  1445.16  1462.58
                             1468.75  1495.76  1513.55  1533.62  1563.07
                             1566.45  1593.97  1628.80  1652.81  1681.68
                             1686.61  1691.12  1732.61  1736.75  1747.87
                             1757.08  1801.47  1815.96  1844.03  1848.10
                             1864.76  1885.15  1887.10  1915.81  1928.20
                             1950.31  1953.00  1968.66  1989.33  2009.22
                             2040.17  2049.55  2094.45  2113.30  2121.76
                             2133.25  2139.89  2147.57  2156.79  2168.49
                             2169.64  2186.21  2337.23  2365.42  2543.06
                             3746.07  4196.78  4372.83  4376.53  4398.32
                             4424.09  4428.50  4435.24  4446.77  4459.70
                             4461.04  4476.51  4483.06  4501.06  4501.75
                             4550.44  4554.31  4569.12  4581.60  4596.87
                             4603.03  4632.05

 Zero-point correction=                           0.358423 (Hartree/Particle)
 Thermal correction to Energy=                    0.385933
 Thermal correction to Enthalpy=                  0.386878
 Thermal correction to Gibbs Free Energy=         0.296182
 Sum of electronic and zero-point Energies=          -3531.042213
 Sum of electronic and thermal Energies=             -3531.014703
 Sum of electronic and thermal Enthalpies=           -3531.013759
 Sum of electronic and thermal Free Energies=        -3531.104454

                     E (Thermal)             CV                S
                      KCal/Mol        Cal/Mol-Kelvin    Cal/Mol-Kelvin
 Total                  242.177             98.448            190.884
 Electronic               0.000              0.000              3.561
 Translational            0.889              2.981             44.100
 Rotational               0.889              2.981             35.550
 Vibrational            240.399             92.487            107.673
 Vibration     1          0.593              1.985              6.440
 Vibration     2          0.593              1.985              6.139
 Vibration     3          0.593              1.984              5.856
 Vibration     4          0.594              1.981              5.184
 Vibration     5          0.596              1.975              4.557
 Vibration     6          0.597              1.971              4.297
 Vibration     7          0.598              1.970              4.214
 Vibration     8          0.599              1.965              3.983
 Vibration     9          0.599              1.964              3.959
 Vibration    10          0.601              1.958              3.729
 Vibration    11          0.604              1.948              3.430
 Vibration    12          0.606              1.942              3.288
 Vibration    13          0.607              1.940              3.252
 Vibration    14          0.608              1.937              3.175
 Vibration    15          0.613              1.920              2.897
 Vibration    16          0.614              1.915              2.828
 Vibration    17          0.619              1.899              2.631
 Vibration    18          0.624              1.885              2.490
 Vibration    19          0.630              1.866              2.320
 Vibration    20          0.636              1.845              2.167
 Vibration    21          0.645              1.816              1.990
 Vibration    22          0.649              1.805              1.932
 Vibration    23          0.662              1.766              1.745
 Vibration    24          0.666              1.753              1.690
 Vibration    25          0.677              1.718              1.560
 Vibration    26          0.692              1.676              1.424
 Vibration    27          0.693              1.673              1.414
 Vibration    28          0.703              1.645              1.335
 Vibration    29          0.709              1.627              1.289
 Vibration    30          0.720              1.595              1.211
 Vibration    31          0.723              1.586              1.190
 Vibration    32          0.742              1.533              1.078
 Vibration    33          0.757              1.494              1.004
 Vibration    34          0.764              1.475              0.971
 Vibration    35          0.779              1.436              0.907
 Vibration    36          0.782              1.428              0.894
 Vibration    37          0.811              1.355              0.788
 Vibration    38          0.840              1.285              0.699
 Vibration    39          0.864              1.231              0.637
 Vibration    40          0.910              1.130              0.535
 Vibration    41          0.951              1.045              0.460

                           ! Non-Optimized Parameters !
 Normal termination of Gaussian 16 at Sun Jun 20 05:31:32 2021.

 ----------------------------------------------------------------------
 #p ub3lyp jul-cc-pvdz pop=cm5 scrf=(pcm,solvent=dichloroethane) guess=
 read geom=allcheck
 ----------------------------------------------------------------------

 Structure from the checkpoint file:  "checkpoint.chk"
 -----
 title
 -----
 Charge =  0 Multiplicity = 6

 SCF Done:  E(UB3LYP) =  -3531.43081215     A.U. after   17 cycles
 Normal termination of Gaussian 16 at Sun Jun 20 05:51:01 2021.
 Gaussian 16:  ES64L-G16RevA.03 25-Dec-2016

 ----------------------------------------------------------------------
 #p ub3lyp jul-cc-pvdz pop=cm5 scrf=(pcm,solvent=water) guess=read geom
 =allcheck
 ----------------------------------------------------------------------

 Structure from the checkpoint file:  "checkpoint.chk"
 -----
 title
 -----
 Charge =  0 Multiplicity = 6

                         Standard orientation:
 ---------------------------------------------------------------------
 Center     Atomic      Atomic             Coordinates (Angstroms)
 Number     Number       Type             X           Y           Z
 ---------------------------------------------------------------------
      1          6           0       -1.682220    1.757751    1.859280
      2          6           0       -1.194608    0.689261    1.090416
      3          6           0       -1.463563   -0.617003    1.525893
      4          6           0       -2.186512   -0.846392    2.698229
      5          6           0       -2.663029    0.225144    3.458118
      6          6           0       -2.408689    1.530041    3.032001
      7          6           0       -0.424915    0.889348   -0.237009
      8          6           0       -1.465553    1.053904   -1.429856
      9          6           0       -1.856777    2.531309   -1.394506
     10          6           0       -0.587575    3.293343   -0.954381
     11          6           0        0.319291    2.191624   -0.221503
     12          6           0        1.583984    2.313186   -0.970586
     13          6           0        1.856156    1.675644   -2.242938
     14          8           0        0.422879   -0.189392   -0.492117
     15         26           0        1.849694   -1.091540    0.279595
     16         17           0        3.414678   -1.152900   -1.375266
     17          6           0        2.652892    3.111669   -0.346744
     18         17           0        1.322660   -3.121720    0.973750
     19         17           0        2.652682    0.263388    1.892103
     20          1           0       -1.089165   -1.461974    0.952439
     21          1           0       -2.367138   -1.872174    3.022470
     22          1           0       -3.223266    0.045234    4.376743
     23          1           0       -2.771337    2.378682    3.613925
     24          1           0       -1.506743    2.792847    1.566033
     25          1           0       -0.914006    0.803938   -2.345270
     26          6           0       -2.664533    0.121396   -1.374252
     27          1           0       -2.228049    2.887092   -2.363461
     28          1           0       -2.663292    2.672923   -0.665646
     29          1           0       -0.076970    3.733448   -1.823570
     30          1           0       -0.784705    4.119604   -0.261574
     31          1           0        0.513101    2.507290    0.808059
     32          1           0        2.259295    3.935685    0.262942
     33          1           0        3.106199    2.399966    0.380713
     34          1           0        3.424344    3.450258   -1.045403
     35          1           0        2.528700    2.264298   -2.878938
     36          1           0        2.451456    0.752430   -1.953308
     37          1           0        0.984514    1.295672   -2.776984
     38          8           0       -2.326579   -1.125424   -1.740509
     39          8           0       -3.786557    0.461777   -1.060158
     40          6           0       -3.379447   -2.126911   -1.677448
     41          6           0       -2.769672   -3.454479   -2.079586
     42          1           0       -3.776390   -2.142160   -0.653576
     43          1           0       -4.190877   -1.817003   -2.350377
     44          1           0       -3.540516   -4.237383   -2.035154
     45          1           0       -2.376545   -3.413656   -3.104841
     46          1           0       -1.950327   -3.732730   -1.403176
 ---------------------------------------------------------------------

 SCF Done:  E(UB3LYP) =  -3531.43656951     A.U. after   14 cycles

 The electronic state is 6-A.
 Alpha  occ. eigenvalues -- -256.19518-101.51820-101.51818-101.51773 -30.18916
 Alpha  occ. eigenvalues --  -26.04297 -26.04162 -26.03984 -19.20156 -19.15457
 Alpha  occ. eigenvalues --  -19.15124 -10.32719 -10.32529 -10.27996 -10.24744
 Alpha  occ. eigenvalues --  -10.23420 -10.22883 -10.22403 -10.22028 -10.21755
 Alpha  occ. eigenvalues --  -10.21072 -10.20379 -10.20266 -10.20054 -10.19949
 Alpha  occ. eigenvalues --  -10.19900 -10.19660 -10.18661  -9.43526  -9.43516
 Alpha  occ. eigenvalues --   -9.43513  -7.19381  -7.19380  -7.19366  -7.19086
 Alpha  occ. eigenvalues --   -7.19076  -7.19064  -7.19046  -7.19042  -7.19042
 Alpha  occ. eigenvalues --   -3.66642  -2.44280  -2.44011  -2.43697  -1.11971
 Alpha  occ. eigenvalues --   -1.03488  -1.02700  -0.90229  -0.87055  -0.84660
 Alpha  occ. eigenvalues --   -0.79753  -0.79165  -0.79053  -0.78944  -0.77264
 Alpha  occ. eigenvalues --   -0.76183  -0.75622  -0.74749  -0.72458  -0.66834
 Alpha  occ. eigenvalues --   -0.64030  -0.62059  -0.61055  -0.59948  -0.57555
 Alpha  occ. eigenvalues --   -0.56556  -0.55003  -0.53236  -0.51381  -0.50787
 Alpha  occ. eigenvalues --   -0.49945  -0.49248  -0.48498  -0.48275  -0.48098
 Alpha  occ. eigenvalues --   -0.47161  -0.46990  -0.46768  -0.46488  -0.45920
 Alpha  occ. eigenvalues --   -0.44960  -0.44715  -0.43797  -0.43187  -0.42825
 Alpha  occ. eigenvalues --   -0.42655  -0.42288  -0.41633  -0.41011  -0.40358
 Alpha  occ. eigenvalues --   -0.39973  -0.39079  -0.37763  -0.37598  -0.37512
 Alpha  occ. eigenvalues --   -0.37130  -0.36435  -0.35936  -0.35811  -0.35326
 Alpha  occ. eigenvalues --   -0.35148  -0.34106  -0.33696  -0.31712  -0.31524
 Alpha  occ. eigenvalues --   -0.30831  -0.30605  -0.30397  -0.30357  -0.29671
 Alpha  occ. eigenvalues --   -0.29444  -0.28701  -0.27871  -0.26562  -0.26120
 Alpha virt. eigenvalues --   -0.13313  -0.02840  -0.02706  -0.01577  -0.01338
 Alpha virt. eigenvalues --   -0.00287  -0.00090   0.00095   0.01454   0.01605
 Alpha virt. eigenvalues --    0.01677   0.01800   0.02318   0.03181   0.03762

  Beta  occ. eigenvalues -- -256.19332-101.51675-101.51657-101.51614 -30.10006
  Beta  occ. eigenvalues --  -25.96812 -25.96744 -25.96606 -19.20156 -19.15120
  Beta  occ. eigenvalues --  -19.14569 -10.32720 -10.32525 -10.27980 -10.24744
  Beta  occ. eigenvalues --  -10.23402 -10.22883 -10.22402 -10.22027 -10.21726
  Beta  occ. eigenvalues --  -10.21051 -10.20375 -10.20265 -10.20052 -10.19949
  Beta  occ. eigenvalues --  -10.19900 -10.19663 -10.18661  -9.43385  -9.43360
  Beta  occ. eigenvalues --   -9.43353  -7.19113  -7.19109  -7.19093  -7.18919
  Beta  occ. eigenvalues --   -7.18862  -7.18855  -7.18847  -7.18839  -7.18839
  Beta  occ. eigenvalues --   -3.45866  -2.22232  -2.22160  -2.21919  -1.11967
  Beta  occ. eigenvalues --   -1.03483  -1.01013  -0.90016  -0.86993  -0.84574
  Beta  occ. eigenvalues --   -0.79061  -0.78731  -0.78063  -0.77942  -0.77143
  Beta  occ. eigenvalues --   -0.76148  -0.75609  -0.74724  -0.72293  -0.66745
  Beta  occ. eigenvalues --   -0.63965  -0.62000  -0.61004  -0.59835  -0.57456
  Beta  occ. eigenvalues --   -0.56174  -0.54914  -0.51860  -0.51281  -0.50730
  Beta  occ. eigenvalues --   -0.49840  -0.48947  -0.48218  -0.48149  -0.47390
  Beta  occ. eigenvalues --   -0.45979  -0.44750  -0.44224  -0.43225  -0.42945
  Beta  occ. eigenvalues --   -0.42776  -0.42300  -0.41693  -0.41045  -0.40381
  Beta  occ. eigenvalues --   -0.39962  -0.38877  -0.37749  -0.37595  -0.37520
  Beta  occ. eigenvalues --   -0.37375  -0.36397  -0.36322  -0.35890  -0.35404
  Beta  occ. eigenvalues --   -0.35289  -0.35186  -0.35152  -0.32797  -0.32598
  Beta  occ. eigenvalues --   -0.32200  -0.31854  -0.31626  -0.31258  -0.29557
  Beta  occ. eigenvalues --   -0.29466  -0.28763  -0.28551  -0.26569  -0.26104
  Beta virt. eigenvalues --   -0.13717  -0.13393  -0.13165  -0.12374  -0.11777
  Beta virt. eigenvalues --   -0.10973  -0.02797  -0.02675  -0.01476  -0.01284
  Beta virt. eigenvalues --   -0.00244  -0.00050   0.00124   0.01480   0.01619

 Mulliken charges and spin densities:
               1          2
     1  C   -0.318831  -0.000260
     2  C    2.658800   0.013231
     3  C   -0.647832   0.000535
     4  C    0.077045   0.007436
     5  C    0.205325   0.001143
     6  C   -0.175658   0.001243
     7  C   -1.446814  -0.018024
     8  C    0.478685   0.016233
     9  C    0.608017   0.002945
    10  C    0.476710  -0.001475
    11  C    1.685743   0.006241
    12  C   -1.091887   0.007148
    13  C    0.030139  -0.004961
    14  O   -0.552917   0.307842
    15  Fe   0.608305   4.048065
    16  Cl  -0.578828   0.187058
    17  C    0.355502  -0.002066
    18  Cl  -0.511062   0.222210
    19  Cl  -0.565301   0.206748
    20  H   -0.246983  -0.000932
    21  H   -0.168514  -0.000046
    22  H   -0.164351   0.000000
    23  H   -0.161065   0.000133
    24  H   -0.231211   0.000013
    25  H   -0.199539  -0.000387
    26  C    0.916210  -0.002562
    27  H   -0.142660   0.000646
    28  H   -0.056071   0.000064
    29  H   -0.099039   0.000231
    30  H   -0.088934  -0.000001
    31  H   -0.205414   0.000044
    32  H    0.051250   0.000167
    33  H    0.133103   0.000472
    34  H    0.004505   0.000017
    35  H    0.018005  -0.000059
    36  H    0.216509   0.001225
    37  H    0.053676   0.000096
    38  O   -0.713084  -0.002144
    39  O   -0.652431   0.001438
    40  C    0.442155   0.000043
    41  C    0.051735   0.000315
    42  H   -0.039810   0.000013
    43  H   -0.050910   0.000007
    44  H   -0.004699   0.000003
    45  H    0.020665  -0.000006
    46  H    0.021759  -0.000083
 Sum of Mulliken charges =  -0.00000   5.00000

 Dipole moment (field-independent basis, Debye):
    X=             -2.9178    Y=             13.7123    Z=             -5.5885  Tot=             15.0921
 Quadrupole moment (field-independent basis, Debye-Ang):
   XX=           -197.4345   YY=           -150.6772   ZZ=           -169.5968
   XY=             32.2699   XZ=            -10.4912   YZ=             -5.5630

 Normal termination of Gaussian 16 at Sun Jun 20 06:07:06 2021.
