 Gaussian 16, Revision A.03,

 -----------------------------------------------------------
 #p opt=modredundant freq=noraman ub3lyp jul-cc-pvdz pop=cm5
 -----------------------------------------------------------

 -----
 title
 -----
 Symbolic Z-matrix:
 Charge =  0 Multiplicity = 6

 SCF Done:  E(UB3LYP) =  -3531.40607116     A.U. after   25 cycles
 SCF Done:  E(UB3LYP) =  -3531.40622002     A.U. after   18 cycles
 SCF Done:  E(UB3LYP) =  -3531.40586686     A.U. after   17 cycles
 SCF Done:  E(UB3LYP) =  -3531.40657067     A.U. after   16 cycles
 SCF Done:  E(UB3LYP) =  -3531.40654404     A.U. after   17 cycles
 SCF Done:  E(UB3LYP) =  -3531.40660205     A.U. after   16 cycles
 SCF Done:  E(UB3LYP) =  -3531.40666224     A.U. after   14 cycles
 SCF Done:  E(UB3LYP) =  -3531.40666685     A.U. after   14 cycles
 SCF Done:  E(UB3LYP) =  -3531.40667053     A.U. after   14 cycles
 SCF Done:  E(UB3LYP) =  -3531.40667167     A.U. after   13 cycles
 SCF Done:  E(UB3LYP) =  -3531.40667256     A.U. after   12 cycles
 SCF Done:  E(UB3LYP) =  -3531.40667346     A.U. after   11 cycles
 SCF Done:  E(UB3LYP) =  -3531.40667449     A.U. after   12 cycles
 SCF Done:  E(UB3LYP) =  -3531.40667536     A.U. after   12 cycles
 SCF Done:  E(UB3LYP) =  -3531.40667572     A.U. after   12 cycles
 SCF Done:  E(UB3LYP) =  -3531.40667582     A.U. after    9 cycles
 Optimization completed.
    -- Stationary point found.
 Normal termination of Gaussian 16 at Sun Jun 20 04:13:37 2021.

 ----------------------------------------------------------------------
 #P Geom=AllCheck Guess=TCheck SCRF=Check GenChk UB3LYP/Jul-CC-pVDZ Fre
 q
 ----------------------------------------------------------------------

 Structure from the checkpoint file:  "checkpoint.chk"
 -----
 title
 -----
 Charge =  0 Multiplicity = 6

 SCF Done:  E(UB3LYP) =  -3531.40667582     A.U. after    3 cycles

  Exact polarizability: 288.110  -1.119 310.131  23.243  10.146 281.189
 Approx polarizability: 421.610  -2.137 492.832  42.834  13.674 444.686

 ******    1 imaginary frequencies (negative Signs) ******

                      1                      2                      3
                      A                      A                      A
 Frequencies --   -222.9451                25.7198                28.6929
 Red. masses --      6.6395                 6.8345                 5.1372
 Frc consts  --      0.1944                 0.0027                 0.0025
 IR Inten    --    162.5251                 0.4345                 1.5215

                      4                      5                      6
                      A                      A                      A
 Frequencies --     30.5633                49.9920                60.3565
 Red. masses --      7.7070                 5.1845                 3.8030
 Frc consts  --      0.0042                 0.0076                 0.0082
 IR Inten    --      0.7533                 2.6478                 0.7145

                      7                      8                      9
                      A                      A                      A
 Frequencies --     68.1417                69.5121                76.5585
 Red. masses --      3.1820                 4.3201                 6.4220
 Frc consts  --      0.0087                 0.0123                 0.0222
 IR Inten    --      0.3801                 0.9932                 1.1672

                     10                     11                     12
                      A                      A                      A
 Frequencies --     84.7016                93.1739               102.9895
 Red. masses --      8.4362                 9.3808                 6.7228
 Frc consts  --      0.0357                 0.0480                 0.0420
 IR Inten    --      1.6713                 0.7690                 0.9829

                     13                     14                     15
                      A                      A                      A
 Frequencies --    111.6593               118.5161               119.9139
 Red. masses --      9.0003                 3.6378                 6.9222
 Frc consts  --      0.0661                 0.0301                 0.0586
 IR Inten    --      0.9516                 3.7264                12.8162

                     16                     17                     18
                      A                      A                      A
 Frequencies --    131.1788               142.1475               158.4816
 Red. masses --      9.1908                 3.5621                 2.5946
 Frc consts  --      0.0932                 0.0424                 0.0384
 IR Inten    --      3.8229                 0.9146                 4.9365

                     19                     20                     21
                      A                      A                      A
 Frequencies --    167.8864               186.8210               192.4989
 Red. masses --      1.6775                 1.8281                 2.6497
 Frc consts  --      0.0279                 0.0376                 0.0579
 IR Inten    --      5.9941                 2.6281                 2.9557

                     22                     23                     24
                      A                      A                      A
 Frequencies --    211.0909               221.7552               246.5837
 Red. masses --      1.7976                 2.7831                 3.1972
 Frc consts  --      0.0472                 0.0806                 0.1145
 IR Inten    --      9.0760                14.8779                 3.1295

                     25                     26                     27
                      A                      A                      A
 Frequencies --    249.1582               262.6440               287.9557
 Red. masses --      2.2683                 2.0245                 3.5538
 Frc consts  --      0.0830                 0.0823                 0.1736
 IR Inten    --      0.9601                 0.9953                 4.0291

                     28                     29                     30
                      A                      A                      A
 Frequencies --    302.6693               333.2452               342.6478
 Red. masses --      2.8958                15.3204                 4.3228
 Frc consts  --      0.1563                 1.0024                 0.2990
 IR Inten    --      1.0802                34.1616                 8.3180

                     31                     32                     33
                      A                      A                      A
 Frequencies --    371.0040               372.7715               377.0113
 Red. masses --     11.3693                 3.6284                 5.4378
 Frc consts  --      0.9220                 0.2971                 0.4554
 IR Inten    --     58.5456                 4.0169                44.1709

                     34                     35                     36
                      A                      A                      A
 Frequencies --    390.1913               392.7334               410.5746
 Red. masses --     16.9524                 4.4174                 3.4960
 Frc consts  --      1.5207                 0.4014                 0.3472
 IR Inten    --     92.3275                 8.5249                 4.8350

                     37                     38                     39
                      A                      A                      A
 Frequencies --    412.9020               461.4470               508.1302
 Red. masses --      3.0736                 3.6970                 2.8146
 Frc consts  --      0.3087                 0.4638                 0.4282
 IR Inten    --      3.8845                 2.5466                 0.9066

                     40                     41                     42
                      A                      A                      A
 Frequencies --    546.4728               578.5809               626.4552
 Red. masses --      3.7669                 2.5353                 5.8455
 Frc consts  --      0.6628                 0.5000                 1.3516
 IR Inten    --     26.1362                 0.9472                 3.4385

                     43                     44                     45
                      A                      A                      A
 Frequencies --    636.7050               676.1935               697.1881
 Red. masses --      4.6424                 3.4388                 4.9210
 Frc consts  --      1.1088                 0.9264                 1.4093
 IR Inten    --     22.6551                10.7541                23.8005

                     46                     47                     48
                      A                      A                      A
 Frequencies --    707.5066               754.1732               781.7856
 Red. masses --      1.5461                 2.8804                 3.5737
 Frc consts  --      0.4560                 0.9653                 1.2869
 IR Inten    --     42.3733                22.8450                14.1367

                     49                     50                     51
                      A                      A                      A
 Frequencies --    788.8999               800.9504               811.0109
 Red. masses --      3.1575                 2.1143                 1.5941
 Frc consts  --      1.1578                 0.7991                 0.6177
 IR Inten    --      4.8961                16.0507                 4.5808

                     52                     53                     54
                      A                      A                      A
 Frequencies --    838.7438               844.5567               847.0217
 Red. masses --      1.7806                 1.2584                 1.3821
 Frc consts  --      0.7380                 0.5288                 0.5842
 IR Inten    --      9.7260                 3.6913                 9.7852

                     55                     56                     57
                      A                      A                      A
 Frequencies --    872.4176               919.4432               929.6523
 Red. masses --      2.6279                 1.6319                 2.1761
 Frc consts  --      1.1784                 0.8128                 1.1081
 IR Inten    --     10.0105                 9.2362                 1.8087

                     58                     59                     60
                      A                      A                      A
 Frequencies --    939.7214               967.9570               980.5602
 Red. masses --      2.0772                 2.1795                 1.3540
 Frc consts  --      1.0808                 1.2031                 0.7670
 IR Inten    --      8.7899                72.7098                 0.6723

                     61                     62                     63
                      A                      A                      A
 Frequencies --    993.1428               996.8774              1001.6598
 Red. masses --      1.4914                 4.8800                 1.4290
 Frc consts  --      0.8667                 2.8573                 0.8447
 IR Inten    --      1.9906                47.1606                27.6824

                     64                     65                     66
                      A                      A                      A
 Frequencies --   1005.6347              1007.4100              1022.2554
 Red. masses --      4.9156                 2.6390                 2.7261
 Frc consts  --      2.9289                 1.5780                 1.6785
 IR Inten    --      2.5079                67.3812                37.9784

                     67                     68                     69
                      A                      A                      A
 Frequencies --   1038.7410              1043.1681              1057.2628
 Red. masses --      2.7474                 2.5367                 2.0349
 Frc consts  --      1.7466                 1.6264                 1.3401
 IR Inten    --     27.5857                40.1588                 0.6368

                     70                     71                     72
                      A                      A                      A
 Frequencies --   1068.4912              1098.3079              1106.5010
 Red. masses --      2.0606                 2.4352                 1.6346
 Frc consts  --      1.3860                 1.7308                 1.1791
 IR Inten    --     34.5490                23.3538                 5.3362

                     73                     74                     75
                      A                      A                      A
 Frequencies --   1133.4636              1154.4228              1169.1093
 Red. masses --      2.1681                 1.7895                 1.5674
 Frc consts  --      1.6412                 1.4051                 1.2622
 IR Inten    --      6.4605                25.6590                 5.0735

                     76                     77                     78
                      A                      A                      A
 Frequencies --   1174.7770              1184.7841              1204.8840
 Red. masses --      1.0898                 2.7370                 1.3512
 Frc consts  --      0.8862                 2.2636                 1.1558
 IR Inten    --      0.0303                30.0503                 3.8870

                     79                     80                     81
                      A                      A                      A
 Frequencies --   1210.9093              1212.5977              1224.9236
 Red. masses --      1.7243                 1.4318                 2.0781
 Frc consts  --      1.4897                 1.2404                 1.8371
 IR Inten    --     84.7368                 5.6090               140.4743

                     82                     83                     84
                      A                      A                      A
 Frequencies --   1263.0619              1271.8269              1282.6843
 Red. masses --      1.7601                 1.6125                 1.1153
 Frc consts  --      1.6544                 1.5367                 1.0812
 IR Inten    --     32.0159                26.7297                 2.2129

                     85                     86                     87
                      A                      A                      A
 Frequencies --   1287.2787              1300.9574              1318.4710
 Red. masses --      1.7667                 1.5513                 1.5297
 Frc consts  --      1.7248                 1.5469                 1.5668
 IR Inten    --     77.5332                12.1830                28.8669

                     88                     89                     90
                      A                      A                      A
 Frequencies --   1333.7106              1346.0946              1356.2894
 Red. masses --      1.8849                 1.7158                 1.4697
 Frc consts  --      1.9754                 1.8318                 1.5929
 IR Inten    --     16.2436                 1.8032                40.4001

                     91                     92                     93
                      A                      A                      A
 Frequencies --   1360.1648              1366.3676              1371.4271
 Red. masses --      1.8411                 1.2479                 1.3738
 Frc consts  --      2.0068                 1.3726                 1.5224
 IR Inten    --     11.1489                58.9864                 4.9606

                     94                     95                     96
                      A                      A                      A
 Frequencies --   1397.0526              1409.9808              1418.5135
 Red. masses --      1.6212                 1.2886                 1.5611
 Frc consts  --      1.8643                 1.5094                 1.8508
 IR Inten    --     52.8259                17.9063                11.3361

                     97                     98                     99
                      A                      A                      A
 Frequencies --   1429.2427              1449.2160              1469.6806
 Red. masses --      1.2070                 1.0917                 2.2813
 Frc consts  --      1.4527                 1.3509                 2.9032
 IR Inten    --      9.3705                 1.2774                 8.4363

                    100                    101                    102
                      A                      A                      A
 Frequencies --   1474.3410              1484.4184              1488.3642
 Red. masses --      1.0388                 1.2981                 1.0959
 Frc consts  --      1.3304                 1.6852                 1.4303
 IR Inten    --      3.7833                 7.7068                 6.7719

                    103                    104                    105
                      A                      A                      A
 Frequencies --   1488.7838              1496.4689              1507.4875
 Red. masses --      1.0546                 1.1091                 1.0872
 Frc consts  --      1.3772                 1.4634                 1.4556
 IR Inten    --      0.3148                14.7367                 4.9535

                    106                    107                    108
                      A                      A                      A
 Frequencies --   1508.4368              1523.1520              1626.1054
 Red. masses --      1.1024                 2.1977                 5.6949
 Frc consts  --      1.4779                 3.0040                 8.8722
 IR Inten    --      4.8659                 4.8295                 0.8939

                    109                    110                    111
                      A                      A                      A
 Frequencies --   1646.8785              1771.5859              2976.0225
 Red. masses --      5.7688                11.7133                 1.0534
 Frc consts  --      9.2185                21.6597                 5.4968
 IR Inten    --      0.3410               215.5502                 9.6621

                    112                    113                    114
                      A                      A                      A
 Frequencies --   3000.6332              3038.5646              3056.1803
 Red. masses --      1.0446                 1.0354                 1.0931
 Frc consts  --      5.5417                 5.6326                 6.0155
 IR Inten    --     15.7078                21.1276                19.4346

                    115                    116                    117
                      A                      A                      A
 Frequencies --   3057.7277              3060.1135              3072.5218
 Red. masses --      1.0582                 1.0614                 1.0620
 Frc consts  --      5.8294                 5.8562                 5.9069
 IR Inten    --     15.2337                24.1019                21.2094

                    118                    119                    120
                      A                      A                      A
 Frequencies --   3077.8256              3082.8305              3088.3622
 Red. masses --      1.0844                 1.0884                 1.0764
 Frc consts  --      6.0524                 6.0943                 6.0487
 IR Inten    --      9.1840                 4.3203                 7.5324

                    121                    122                    123
                      A                      A                      A
 Frequencies --   3101.0167              3101.3649              3114.7234
 Red. masses --      1.1012                 1.1068                 1.1023
 Frc consts  --      6.2391                 6.2722                 6.3005
 IR Inten    --     10.2052                 8.1774                20.1713

                    124                    125                    126
                      A                      A                      A
 Frequencies --   3122.8867              3132.2388              3162.3084
 Red. masses --      1.1046                 1.1047                 1.1055
 Frc consts  --      6.3471                 6.3855                 6.5135
 IR Inten    --     21.2409                18.6159                 2.3864

                    127                    128                    129
                      A                      A                      A
 Frequencies --   3164.3993              3174.9590              3175.0012
 Red. masses --      1.0849                 1.0898                 1.0964
 Frc consts  --      6.4009                 6.4724                 6.5119
 IR Inten    --      4.3815                 6.4082                 3.3011

                    130                    131                    132
                      A                      A                      A
 Frequencies --   3184.0563              3194.8308              3204.4926
 Red. masses --      1.0926                 1.0966                 1.0948
 Frc consts  --      6.5264                 6.5948                 6.6238
 IR Inten    --     18.6563                11.1293                 5.4699

 - Thermochemistry -
 -------------------
 Temperature   298.150 Kelvin.  Pressure   1.00000 Atm.
 Atom     1 has atomic number  6 and mass  12.00000

 Molecular mass:   434.99839 amu.
 Principal axes and moments of inertia in atomic units:
                           1         2         3
     Eigenvalues --  8963.99000********************
           X            0.99740   0.06996   0.01746
           Y           -0.07005   0.99754   0.00417
           Z           -0.01712  -0.00538   0.99984
 This molecule is an asymmetric top.
 Rotational symmetry number  1.
 Warning -- assumption of classical behavior for rotation
           may cause significant error
 Rotational temperatures (Kelvin)      0.00966     0.00756     0.00690
 Rotational constants (GHZ):           0.20133     0.15757     0.14372
    1 imaginary frequencies ignored.
 Zero-point vibrational energy     942779.6 (Joules/Mol)
                                  225.32974 (Kcal/Mol)
 Warning -- explicit consideration of  40 degrees of freedom as
           vibrations may cause significant error
 Vibrational temperatures:     37.01    41.28    43.97    71.93    86.84
          (Kelvin)             98.04   100.01   110.15   121.87   134.06
                              148.18   160.65   170.52   172.53   188.74
                              204.52   228.02   241.55   268.79   276.96
                              303.71   319.06   354.78   358.48   377.89
                              414.30   435.47   479.47   492.99   533.79
                              536.34   542.44   561.40   565.06   590.73
                              594.07   663.92   731.09   786.25   832.45
                              901.33   916.08   972.89  1003.10  1017.94
                             1085.09  1124.82  1135.05  1152.39  1166.86
                             1206.77  1215.13  1218.68  1255.21  1322.87
                             1337.56  1352.05  1392.67  1410.81  1428.91
                             1434.28  1441.16  1446.88  1449.44  1470.80
                             1494.52  1500.89  1521.17  1537.32  1580.22
                             1592.01  1630.80  1660.96  1682.09  1690.24
                             1704.64  1733.56  1742.23  1744.66  1762.39
                             1817.26  1829.88  1845.50  1852.11  1871.79
                             1896.99  1918.91  1936.73  1951.40  1956.97
                             1965.90  1973.18  2010.05  2028.65  2040.92
                             2056.36  2085.10  2114.54  2121.25  2135.75
                             2141.42  2142.03  2153.08  2168.94  2170.30
                             2191.48  2339.60  2369.49  2548.92  4281.83
                             4317.24  4371.82  4397.16  4399.39  4402.82
                             4420.67  4428.30  4435.51  4443.46  4461.67
                             4462.17  4481.39  4493.14  4506.59  4549.86
                             4552.86  4568.06  4568.12  4581.15  4596.65
                             4610.55

 Zero-point correction=                           0.359086 (Hartree/Particle)
 Thermal correction to Energy=                    0.386150
 Thermal correction to Enthalpy=                  0.387094
 Thermal correction to Gibbs Free Energy=         0.297794
 Sum of electronic and zero-point Energies=          -3531.047590
 Sum of electronic and thermal Energies=             -3531.020526
 Sum of electronic and thermal Enthalpies=           -3531.019582
 Sum of electronic and thermal Free Energies=        -3531.108882

                     E (Thermal)             CV                S
                      KCal/Mol        Cal/Mol-Kelvin    Cal/Mol-Kelvin
 Total                  242.313             96.754            187.948
 Electronic               0.000              0.000              3.561
 Translational            0.889              2.981             44.100
 Rotational               0.889              2.981             35.510
 Vibrational            240.535             90.792            104.778
 Vibration     1          0.593              1.985              6.135
 Vibration     2          0.593              1.984              5.918
 Vibration     3          0.594              1.984              5.793
 Vibration     4          0.595              1.978              4.818
 Vibration     5          0.597              1.973              4.445
 Vibration     6          0.598              1.969              4.206
 Vibration     7          0.598              1.969              4.167
 Vibration     8          0.599              1.965              3.977
 Vibration     9          0.601              1.960              3.779
 Vibration    10          0.602              1.954              3.592
 Vibration    11          0.605              1.947              3.397
 Vibration    12          0.607              1.940              3.240
 Vibration    13          0.609              1.934              3.124
 Vibration    14          0.609              1.933              3.102
 Vibration    15          0.612              1.922              2.929
 Vibration    16          0.616              1.911              2.775
 Vibration    17          0.621              1.893              2.568
 Vibration    18          0.625              1.882              2.459
 Vibration    19          0.632              1.858              2.259
 Vibration    20          0.634              1.850              2.204
 Vibration    21          0.643              1.824              2.034
 Vibration    22          0.648              1.808              1.945
 Vibration    23          0.661              1.768              1.755
 Vibration    24          0.662              1.764              1.737
 Vibration    25          0.670              1.741              1.644
 Vibration    26          0.685              1.696              1.486
 Vibration    27          0.694              1.669              1.402
 Vibration    28          0.715              1.609              1.244
 Vibration    29          0.722              1.590              1.200
 Vibration    30          0.743              1.532              1.076
 Vibration    31          0.744              1.528              1.068
 Vibration    32          0.748              1.519              1.051
 Vibration    33          0.758              1.491              0.999
 Vibration    34          0.760              1.486              0.990
 Vibration    35          0.775              1.447              0.925
 Vibration    36          0.777              1.442              0.916
 Vibration    37          0.819              1.336              0.762
 Vibration    38          0.863              1.232              0.638
 Vibration    39          0.902              1.147              0.552
 Vibration    40          0.935              1.078              0.488

                           ! Non-Optimized Parameters !
 Normal termination of Gaussian 16 at Sun Jun 20 08:36:21 2021.

 ----------------------------------------------------------------------
 #p ub3lyp jul-cc-pvdz pop=cm5 scrf=(pcm,solvent=dichloroethane) guess=
 read geom=allcheck
 ----------------------------------------------------------------------

 Structure from the checkpoint file:  "checkpoint.chk"
 -----
 title
 -----
 Charge =  0 Multiplicity = 6

 SCF Done:  E(UB3LYP) =  -3531.43329584     A.U. after   19 cycles
 Normal termination of Gaussian 16 at Sun Jun 20 09:04:25 2021.
 Gaussian 16:  ES64L-G16RevA.03 25-Dec-2016

 ----------------------------------------------------------------------
 #p ub3lyp jul-cc-pvdz pop=cm5 scrf=(pcm,solvent=water) guess=read geom
 =allcheck
 ----------------------------------------------------------------------

 Structure from the checkpoint file:  "checkpoint.chk"
 -----
 title
 -----
 Charge =  0 Multiplicity = 6

                         Standard orientation:
 ---------------------------------------------------------------------
 Center     Atomic      Atomic             Coordinates (Angstroms)
 Number     Number       Type             X           Y           Z
 ---------------------------------------------------------------------
      1          6           0        2.055962   -1.787758    1.720985
      2          6           0        1.329699   -0.788180    1.057174
      3          6           0        1.298214    0.497132    1.617354
      4          6           0        1.956046    0.767982    2.818296
      5          6           0        2.670963   -0.236859    3.476127
      6          6           0        2.722674   -1.516129    2.919757
      7          6           0        0.637342   -1.055723   -0.279036
      8          6           0        1.587822   -0.729502   -1.504997
      9          6           0        2.328988   -2.046753   -1.752911
     10          6           0        1.276846   -3.144851   -1.476351
     11          6           0        0.250530   -2.486638   -0.508965
     12          6           0       -1.176465   -2.368579   -1.026208
     13          6           0       -1.515085   -2.138625   -2.443945
     14          8           0       -0.607378   -0.332907   -0.416144
     15         26           0       -1.971885    0.769674    0.332095
     16         17           0       -3.657129    0.477815   -1.120302
     17          6           0       -2.264258   -2.795624   -0.127143
     18         17           0       -1.387771    2.897945    0.467262
     19         17           0       -2.526701   -0.082464    2.310593
     20          1           0        0.752295    1.298492    1.122752
     21          1           0        1.901737    1.771267    3.242804
     22          1           0        3.182539   -0.024386    4.415893
     23          1           0        3.279539   -2.310645    3.418571
     24          1           0        2.121242   -2.797291    1.313383
     25          1           0        0.917538   -0.488206   -2.339903
     26          6           0        2.517847    0.458527   -1.320838
     27          1           0        2.742754   -2.103339   -2.767552
     28          1           0        3.173688   -2.121620   -1.057101
     29          1           0        0.794916   -3.473860   -2.406632
     30          1           0        1.720587   -4.040963   -1.024801
     31          1           0        0.197022   -3.032989    0.439264
     32          1           0       -2.208556   -3.903545   -0.124825
     33          1           0       -2.096488   -2.469704    0.907217
     34          1           0       -3.256110   -2.490235   -0.475442
     35          1           0       -1.954889   -3.074390   -2.835558
     36          1           0       -2.314977   -1.382535   -2.490778
     37          1           0       -0.669590   -1.847435   -3.070706
     38          8           0        1.883026    1.612701   -1.586801
     39          8           0        3.684536    0.376713   -0.998598
     40          6           0        2.657842    2.833861   -1.419353
     41          6           0        1.791968    3.991269   -1.872816
     42          1           0        2.939681    2.913929   -0.360546
     43          1           0        3.579539    2.739652   -2.009041
     44          1           0        2.344768    4.932160   -1.737144
     45          1           0        1.531177    3.894293   -2.936045
     46          1           0        0.864736    4.040432   -1.287126
 ---------------------------------------------------------------------

 SCF Done:  E(UB3LYP) =  -3531.43836278     A.U. after   14 cycles

 The electronic state is 6-A.
 Alpha  occ. eigenvalues -- -256.20386-101.52243-101.52070-101.52043 -30.19788
 Alpha  occ. eigenvalues --  -26.05075 -26.05056 -26.04928 -19.20239 -19.17263
 Alpha  occ. eigenvalues --  -19.15155 -10.33077 -10.32741 -10.28384 -10.24725
 Alpha  occ. eigenvalues --  -10.22602 -10.21989 -10.21959 -10.21667 -10.21286
 Alpha  occ. eigenvalues --  -10.20612 -10.20401 -10.20180 -10.20110 -10.20045
 Alpha  occ. eigenvalues --  -10.19968 -10.19776 -10.18530  -9.43970  -9.43791
 Alpha  occ. eigenvalues --   -9.43756  -7.19830  -7.19662  -7.19627  -7.19519
 Alpha  occ. eigenvalues --   -7.19508  -7.19338  -7.19326  -7.19298  -7.19291
 Alpha  occ. eigenvalues --   -3.67477  -2.44963  -2.44863  -2.44646  -1.11975
 Alpha  occ. eigenvalues --   -1.03528  -1.02754  -0.88680  -0.87189  -0.84623
 Alpha  occ. eigenvalues --   -0.80154  -0.79460  -0.79304  -0.78899  -0.77500
 Alpha  occ. eigenvalues --   -0.76097  -0.75440  -0.74412  -0.72199  -0.66459
 Alpha  occ. eigenvalues --   -0.63979  -0.62067  -0.60986  -0.59742  -0.57144
 Alpha  occ. eigenvalues --   -0.56395  -0.54873  -0.53221  -0.51348  -0.50424
 Alpha  occ. eigenvalues --   -0.49868  -0.49572  -0.48702  -0.47857  -0.47744
 Alpha  occ. eigenvalues --   -0.47662  -0.47419  -0.47036  -0.46784  -0.46178
 Alpha  occ. eigenvalues --   -0.45387  -0.44498  -0.44312  -0.43299  -0.42963
 Alpha  occ. eigenvalues --   -0.42677  -0.41757  -0.41247  -0.40689  -0.40521
 Alpha  occ. eigenvalues --   -0.39878  -0.38524  -0.38109  -0.37448  -0.37372
 Alpha  occ. eigenvalues --   -0.36871  -0.36031  -0.35904  -0.35728  -0.35633
 Alpha  occ. eigenvalues --   -0.34651  -0.34310  -0.34025  -0.32271  -0.31640
 Alpha  occ. eigenvalues --   -0.31032  -0.30963  -0.30736  -0.30677  -0.30033
 Alpha  occ. eigenvalues --   -0.29587  -0.29440  -0.28677  -0.26735  -0.26291
 Alpha virt. eigenvalues --   -0.12467  -0.03264  -0.02798  -0.01499  -0.01316
 Alpha virt. eigenvalues --   -0.00213  -0.00072   0.00095   0.01438   0.01671
 Alpha virt. eigenvalues --    0.01726   0.01817   0.02418   0.03241   0.03797

  Beta  occ. eigenvalues -- -256.20201-101.52069-101.51893-101.51874 -30.10855
  Beta  occ. eigenvalues --  -25.97626 -25.97564 -25.97530 -19.20239 -19.16586
  Beta  occ. eigenvalues --  -19.15152 -10.33081 -10.32741 -10.28352 -10.24725
  Beta  occ. eigenvalues --  -10.22586 -10.21985 -10.21959 -10.21647 -10.21276
  Beta  occ. eigenvalues --  -10.20608 -10.20399 -10.20180 -10.20109 -10.20044
  Beta  occ. eigenvalues --  -10.19969 -10.19774 -10.18529  -9.43798  -9.43617
  Beta  occ. eigenvalues --   -9.43589  -7.19545  -7.19360  -7.19332  -7.19282
  Beta  occ. eigenvalues --   -7.19275  -7.19103  -7.19097  -7.19080  -7.19071
  Beta  occ. eigenvalues --   -3.46650  -2.22971  -2.22876  -2.22780  -1.11973
  Beta  occ. eigenvalues --   -1.03524  -1.01495  -0.88395  -0.87178  -0.84573
  Beta  occ. eigenvalues --   -0.79045  -0.78900  -0.78234  -0.78103  -0.77419
  Beta  occ. eigenvalues --   -0.76084  -0.75412  -0.74403  -0.72025  -0.66391
  Beta  occ. eigenvalues --   -0.63938  -0.62034  -0.60953  -0.59590  -0.57111
  Beta  occ. eigenvalues --   -0.55884  -0.54819  -0.52188  -0.51235  -0.50372
  Beta  occ. eigenvalues --   -0.49681  -0.49171  -0.47841  -0.47492  -0.46882
  Beta  occ. eigenvalues --   -0.46151  -0.44623  -0.44364  -0.43336  -0.43003
  Beta  occ. eigenvalues --   -0.42797  -0.41712  -0.41182  -0.40699  -0.40536
  Beta  occ. eigenvalues --   -0.39867  -0.38400  -0.37959  -0.37619  -0.37365
  Beta  occ. eigenvalues --   -0.36861  -0.36354  -0.35927  -0.35846  -0.35776
  Beta  occ. eigenvalues --   -0.35602  -0.35452  -0.34634  -0.33187  -0.33033
  Beta  occ. eigenvalues --   -0.32591  -0.32201  -0.31915  -0.31610  -0.30173
  Beta  occ. eigenvalues --   -0.29636  -0.29599  -0.28684  -0.26731  -0.26254
  Beta virt. eigenvalues --   -0.14538  -0.13973  -0.13281  -0.12957  -0.12153
  Beta virt. eigenvalues --   -0.11556  -0.03186  -0.02772  -0.01398  -0.01276
  Beta virt. eigenvalues --   -0.00154  -0.00044   0.00122   0.01467   0.01690

 Mulliken charges and spin densities:
               1          2
     1  C   -0.373527   0.002779
     2  C    3.575001  -0.001037
     3  C   -0.516440  -0.010609
     4  C    0.034204   0.003147
     5  C    0.200038   0.000391
     6  C   -0.137505   0.001270
     7  C   -3.030099   0.013045
     8  C    0.474688   0.005541
     9  C    0.601255   0.001644
    10  C    0.668302   0.002084
    11  C    1.186191   0.009233
    12  C   -0.826201  -0.002768
    13  C    0.248055  -0.003969
    14  O   -0.337722   0.219834
    15  Fe   0.663372   4.049883
    16  Cl  -0.536543   0.229727
    17  C    0.448561   0.002593
    18  Cl  -0.480972   0.241579
    19  Cl  -0.510482   0.233085
    20  H   -0.291931   0.000485
    21  H   -0.168060  -0.000035
    22  H   -0.162405   0.000019
    23  H   -0.159463   0.000089
    24  H   -0.200800   0.000016
    25  H   -0.203580   0.000123
    26  C    0.911275   0.002922
    27  H   -0.147778   0.000597
    28  H   -0.062638   0.000037
    29  H   -0.087637  -0.000015
    30  H   -0.102175   0.000308
    31  H   -0.185081   0.000430
    32  H    0.070304  -0.000924
    33  H    0.091954  -0.000383
    34  H    0.033105  -0.000523
    35  H    0.081827   0.001121
    36  H    0.098023  -0.000820
    37  H    0.067811  -0.000030
    38  O   -0.717679  -0.001029
    39  O   -0.656548   0.000975
    40  C    0.424016  -0.001055
    41  C    0.057526   0.000691
    42  H   -0.038815   0.000006
    43  H   -0.049240   0.000007
    44  H   -0.005081   0.000045
    45  H    0.021470  -0.000015
    46  H    0.031429  -0.000493
 Sum of Mulliken charges =  -0.00000   5.00000

 Dipole moment (field-independent basis, Debye):
    X=              4.2588    Y=            -12.1156    Z=             -5.8075  Tot=             14.0944
 Quadrupole moment (field-independent basis, Debye-Ang):
   XX=           -204.6359   YY=           -144.3288   ZZ=           -168.0710
   XY=             19.8352   XZ=             10.8966   YZ=              8.6988

 Normal termination of Gaussian 16 at Sun Jun 20 09:25:19 2021.
