 Gaussian 16, Revision A.03,

 -----------------------------------------------------------
 #p opt=modredundant freq=noraman ub3lyp jul-cc-pvdz pop=cm5
 -----------------------------------------------------------

 -----
 title
 -----
 Symbolic Z-matrix:
 Charge =  0 Multiplicity = 6

 SCF Done:  E(UB3LYP) =  -3531.40697454     A.U. after   26 cycles
 SCF Done:  E(UB3LYP) =  -3531.40699715     A.U. after   18 cycles
 SCF Done:  E(UB3LYP) =  -3531.40656792     A.U. after   17 cycles
 SCF Done:  E(UB3LYP) =  -3531.40680789     A.U. after   15 cycles
 SCF Done:  E(UB3LYP) =  -3531.40735209     A.U. after   12 cycles
 SCF Done:  E(UB3LYP) =  -3531.40754110     A.U. after   14 cycles
 SCF Done:  E(UB3LYP) =  -3531.40753031     A.U. after   15 cycles
 SCF Done:  E(UB3LYP) =  -3531.40757659     A.U. after   15 cycles
 SCF Done:  E(UB3LYP) =  -3531.40758542     A.U. after   13 cycles
 SCF Done:  E(UB3LYP) =  -3531.40758718     A.U. after   12 cycles
 SCF Done:  E(UB3LYP) =  -3531.40758792     A.U. after   12 cycles
 SCF Done:  E(UB3LYP) =  -3531.40758854     A.U. after   12 cycles
 SCF Done:  E(UB3LYP) =  -3531.40758866     A.U. after   10 cycles
 SCF Done:  E(UB3LYP) =  -3531.40758871     A.U. after   10 cycles
 Optimization completed.
    -- Stationary point found.
 Normal termination of Gaussian 16 at Sun Jun 20 02:18:32 2021.

 ----------------------------------------------------------------------
 #P Geom=AllCheck Guess=TCheck SCRF=Check GenChk UB3LYP/Jul-CC-pVDZ Fre
 q
 ----------------------------------------------------------------------

 Structure from the checkpoint file:  "checkpoint.chk"
 -----
 title
 -----
 Charge =  0 Multiplicity = 6

 SCF Done:  E(UB3LYP) =  -3531.40758871     A.U. after    1 cycles

  Exact polarizability: 291.570  -1.165 307.474  23.393  10.438 284.288
 Approx polarizability: 428.357  -3.996 486.106  43.288  16.093 449.401

 ******    1 imaginary frequencies (negative Signs) ******

                      1                      2                      3
                      A                      A                      A
 Frequencies --   -351.5359                23.3120                27.5166
 Red. masses --     10.0705                 7.9898                 4.7676
 Frc consts  --      0.7332                 0.0026                 0.0021
 IR Inten    --    191.6632                 0.0980                 1.3196

                      4                      5                      6
                      A                      A                      A
 Frequencies --     32.6292                48.8525                52.3729
 Red. masses --      6.2232                 6.0267                 4.0556
 Frc consts  --      0.0039                 0.0085                 0.0066
 IR Inten    --      0.5565                 1.8889                 1.0652

                      7                      8                      9
                      A                      A                      A
 Frequencies --     64.1609                69.2914                77.5413
 Red. masses --      3.0521                 3.8058                 7.4883
 Frc consts  --      0.0074                 0.0108                 0.0265
 IR Inten    --      0.2376                 0.9484                 0.8446

                     10                     11                     12
                      A                      A                      A
 Frequencies --     83.2903                92.9895               104.2621
 Red. masses --     10.1941                11.3256                 7.5302
 Frc consts  --      0.0417                 0.0577                 0.0482
 IR Inten    --      0.6712                 0.5674                 0.7275

                     13                     14                     15
                      A                      A                      A
 Frequencies --    113.7297               119.1148               124.9012
 Red. masses --     12.4542                 5.3523                 4.9761
 Frc consts  --      0.0949                 0.0447                 0.0457
 IR Inten    --      1.5239                 4.8954                 5.5294

                     16                     17                     18
                      A                      A                      A
 Frequencies --    130.1649               146.9417               166.1406
 Red. masses --      6.1304                 3.6220                 2.4246
 Frc consts  --      0.0612                 0.0461                 0.0394
 IR Inten    --      2.0790                 1.2958                 3.2032

                     19                     20                     21
                      A                      A                      A
 Frequencies --    175.2566               177.7927               200.2502
 Red. masses --      1.2962                 2.8239                 2.6141
 Frc consts  --      0.0235                 0.0526                 0.0618
 IR Inten    --      2.6712                 2.3283                 0.2944

                     22                     23                     24
                      A                      A                      A
 Frequencies --    218.9137               222.6204               232.2681
 Red. masses --      1.9914                 2.1149                 3.2557
 Frc consts  --      0.0562                 0.0618                 0.1035
 IR Inten    --     13.8393                 2.1785                 6.0105

                     25                     26                     27
                      A                      A                      A
 Frequencies --    247.3159               258.8395               285.8758
 Red. masses --      2.6318                 1.8222                 3.5204
 Frc consts  --      0.0948                 0.0719                 0.1695
 IR Inten    --      1.2157                 1.3941                 6.4099

                     28                     29                     30
                      A                      A                      A
 Frequencies --    310.6837               337.7773               343.5168
 Red. masses --      2.9061                11.6508                 4.3975
 Frc consts  --      0.1653                 0.7832                 0.3057
 IR Inten    --      0.5138                27.9821                 7.9592

                     31                     32                     33
                      A                      A                      A
 Frequencies --    346.9567               376.5442               384.9536
 Red. masses --      4.4299                23.6232                 5.0247
 Frc consts  --      0.3142                 1.9734                 0.4387
 IR Inten    --     13.3437                61.1281                37.3732

                     34                     35                     36
                      A                      A                      A
 Frequencies --    387.9586               392.4042               403.5614
 Red. masses --      3.6616                18.5874                 3.6626
 Frc consts  --      0.3247                 1.6863                 0.3514
 IR Inten    --     20.3675                72.7348                 6.3529

                     37                     38                     39
                      A                      A                      A
 Frequencies --    410.8290               464.6502               510.2607
 Red. masses --      2.9517                 3.4939                 3.0451
 Frc consts  --      0.2935                 0.4444                 0.4671
 IR Inten    --      0.9864                 3.8641                 3.4418

                     40                     41                     42
                      A                      A                      A
 Frequencies --    526.9090               543.9711               621.3902
 Red. masses --      2.7530                 3.1418                 4.4278
 Frc consts  --      0.4503                 0.5478                 1.0073
 IR Inten    --      7.7341                23.4810                15.7542

                     43                     44                     45
                      A                      A                      A
 Frequencies --    629.5975               657.5150               676.8191
 Red. masses --      5.7180                 2.8730                 5.5753
 Frc consts  --      1.3354                 0.7318                 1.5048
 IR Inten    --      8.4329                 1.9579                26.7982

                     46                     47                     48
                      A                      A                      A
 Frequencies --    706.6595               732.3837               757.0853
 Red. masses --      1.6028                 4.1993                 3.2147
 Frc consts  --      0.4716                 1.3271                 1.0856
 IR Inten    --     39.1408                39.8312                 6.5115

                     49                     50                     51
                      A                      A                      A
 Frequencies --    780.0311               790.6029               807.0720
 Red. masses --      3.5753                 3.0866                 1.1395
 Frc consts  --      1.2817                 1.1367                 0.4373
 IR Inten    --     14.4949                 4.0569                 1.0665

                     52                     53                     54
                      A                      A                      A
 Frequencies --    843.5453               845.6914               852.9523
 Red. masses --      1.3574                 1.5078                 1.7860
 Frc consts  --      0.5691                 0.6353                 0.7655
 IR Inten    --      4.1665                 4.7064                14.1874

                     55                     56                     57
                      A                      A                      A
 Frequencies --    868.1683               872.4475               927.9086
 Red. masses --      3.4360                 2.5213                 1.5184
 Frc consts  --      1.5258                 1.1307                 0.7703
 IR Inten    --     19.0950                 8.2851                 7.8991

                     58                     59                     60
                      A                      A                      A
 Frequencies --    930.5667               944.6433               972.7890
 Red. masses --      2.4271                 2.0588                 2.3089
 Frc consts  --      1.2383                 1.0824                 1.2873
 IR Inten    --      1.9962                26.5162                59.4801

                     61                     62                     63
                      A                      A                      A
 Frequencies --    980.6490               999.3519              1001.3934
 Red. masses --      1.3560                 3.8823                 1.3579
 Frc consts  --      0.7683                 2.2844                 0.8023
 IR Inten    --      0.2352                51.2668                 1.2192

                     64                     65                     66
                      A                      A                      A
 Frequencies --   1003.1817              1004.7260              1015.8182
 Red. masses --      1.4480                 4.4910                 2.3984
 Frc consts  --      0.8586                 2.6711                 1.4581
 IR Inten    --      2.0914                 9.9456                58.3201

                     67                     68                     69
                      A                      A                      A
 Frequencies --   1033.8598              1045.9839              1048.6741
 Red. masses --      2.3455                 3.0446                 2.3594
 Frc consts  --      1.4771                 1.9626                 1.5287
 IR Inten    --     39.3201                26.4225                48.3805

                     70                     71                     72
                      A                      A                      A
 Frequencies --   1059.4400              1083.0727              1105.8216
 Red. masses --      2.0308                 2.0690                 2.0139
 Frc consts  --      1.3430                 1.4300                 1.4510
 IR Inten    --     17.7074                38.2777                 4.6010

                     73                     74                     75
                      A                      A                      A
 Frequencies --   1115.9164              1133.1962              1137.4965
 Red. masses --      1.8721                 2.1696                 1.5154
 Frc consts  --      1.3735                 1.6415                 1.1553
 IR Inten    --     10.3103                 6.8125                22.1043

                     76                     77                     78
                      A                      A                      A
 Frequencies --   1161.8430              1169.9699              1175.0588
 Red. masses --      1.6788                 1.5670                 1.0851
 Frc consts  --      1.3352                 1.2637                 0.8827
 IR Inten    --     35.9997                 1.5957                 0.0488

                     79                     80                     81
                      A                      A                      A
 Frequencies --   1197.8532              1208.4752              1227.1243
 Red. masses --      1.9728                 1.1510                 1.9074
 Frc consts  --      1.6678                 0.9904                 1.6923
 IR Inten    --    115.9567                 4.9015               130.2805

                     82                     83                     84
                      A                      A                      A
 Frequencies --   1247.6522              1258.8348              1283.1928
 Red. masses --      1.9646                 1.9278                 1.1061
 Frc consts  --      1.8018                 1.7999                 1.0731
 IR Inten    --     41.5377                46.6939                 1.5079

                     85                     86                     87
                      A                      A                      A
 Frequencies --   1298.0861              1312.0575              1315.6874
 Red. masses --      1.5341                 2.1318                 1.3343
 Frc consts  --      1.5230                 2.1622                 1.3608
 IR Inten    --     59.1901                20.1615                 4.4280

                     88                     89                     90
                      A                      A                      A
 Frequencies --   1323.2727              1335.0224              1358.9046
 Red. masses --      1.6847                 2.0868                 2.2453
 Frc consts  --      1.7380                 2.1913                 2.4429
 IR Inten    --     49.8050                29.5869                 0.0881

                     91                     92                     93
                      A                      A                      A
 Frequencies --   1366.4046              1368.9805              1381.3075
 Red. masses --      1.3643                 1.2607                 1.2098
 Frc consts  --      1.5008                 1.3920                 1.3600
 IR Inten    --     19.6752                42.0465                52.8532

                     94                     95                     96
                      A                      A                      A
 Frequencies --   1391.0385              1408.2809              1416.7020
 Red. masses --      1.5574                 1.3422                 1.4934
 Frc consts  --      1.7756                 1.5684                 1.7660
 IR Inten    --     57.6998                16.8308                 6.3548

                     97                     98                     99
                      A                      A                      A
 Frequencies --   1434.1276              1456.0455              1467.4797
 Red. masses --      1.1865                 1.1623                 2.1844
 Frc consts  --      1.4378                 1.4519                 2.7716
 IR Inten    --      3.6543                 1.4874                 8.9113

                    100                    101                    102
                      A                      A                      A
 Frequencies --   1473.9293              1477.1181              1487.2220
 Red. masses --      1.0389                 1.2264                 1.0871
 Frc consts  --      1.3298                 1.5766                 1.4166
 IR Inten    --      3.6964                 4.0110                 4.9192

                    103                    104                    105
                      A                      A                      A
 Frequencies --   1488.6921              1498.9775              1507.4056
 Red. masses --      1.0533                 1.1012                 1.0835
 Frc consts  --      1.3754                 1.4579                 1.4505
 IR Inten    --      0.6460                13.8801                 6.0279

                    106                    107                    108
                      A                      A                      A
 Frequencies --   1510.6035              1522.3497              1624.1819
 Red. masses --      1.0985                 2.2141                 5.6075
 Frc consts  --      1.4769                 3.0233                 8.7155
 IR Inten    --      2.6548                 3.5142                 0.6189

                    109                    110                    111
                      A                      A                      A
 Frequencies --   1645.9250              1771.6458              2986.0078
 Red. masses --      5.7800                11.6294                 1.0534
 Frc consts  --      9.2257                21.5062                 5.5339
 IR Inten    --      0.0689               216.3963                 5.0092

                    112                    113                    114
                      A                      A                      A
 Frequencies --   3001.9706              3039.1549              3058.7988
 Red. masses --      1.0517                 1.0356                 1.0583
 Frc consts  --      5.5843                 5.6355                 5.8342
 IR Inten    --      8.7978                21.8538                13.8499

                    115                    116                    117
                      A                      A                      A
 Frequencies --   3059.6878              3068.1725              3077.6369
 Red. masses --      1.0604                 1.0620                 1.0847
 Frc consts  --      5.8486                 5.8903                 6.0532
 IR Inten    --     22.6409                24.3907                 8.9718

                    118                    119                    120
                      A                      A                      A
 Frequencies --   3093.6265              3095.5373              3102.8174
 Red. masses --      1.0863                 1.0998                 1.1064
 Frc consts  --      6.1255                 6.2091                 6.2757
 IR Inten    --     20.4768                 1.6235                 8.4537

                    121                    122                    123
                      A                      A                      A
 Frequencies --   3105.8715              3115.0710              3117.6245
 Red. masses --      1.0756                 1.1026                 1.1028
 Frc consts  --      6.1130                 6.3040                 6.3151
 IR Inten    --      1.4535                19.4887                14.1715

                    124                    125                    126
                      A                      A                      A
 Frequencies --   3125.7715              3134.1336              3167.0699
 Red. masses --      1.0894                 1.1044                 1.1063
 Frc consts  --      6.2710                 6.3918                 6.5381
 IR Inten    --     14.0982                18.3752                 0.4453

                    127                    128                    129
                      A                      A                      A
 Frequencies --   3168.0269              3170.3084              3178.0390
 Red. masses --      1.0850                 1.1023                 1.0880
 Frc consts  --      6.4158                 6.5276                 6.4743
 IR Inten    --      1.0122                 4.6059                 6.0056

                    130                    131                    132
                      A                      A                      A
 Frequencies --   3186.6004              3195.2140              3202.5072
 Red. masses --      1.0925                 1.0960                 1.0959
 Frc consts  --      6.5361                 6.5924                 6.6220
 IR Inten    --     19.7938                 7.5427                 7.4934

 - Thermochemistry -
 -------------------
 Temperature   298.150 Kelvin.  Pressure   1.00000 Atm.
 Atom     1 has atomic number  6 and mass  12.00000

 Molecular mass:   434.99839 amu.
 Principal axes and moments of inertia in atomic units:
                           1         2         3
     Eigenvalues --  9068.26956********************
           X            0.99709   0.07459   0.01590
           Y           -0.07477   0.99714   0.01099
           Z           -0.01503  -0.01215   0.99981
 This molecule is an asymmetric top.
 Rotational symmetry number  1.
 Warning -- assumption of classical behavior for rotation
           may cause significant error
 Rotational temperatures (Kelvin)      0.00955     0.00754     0.00685
 Rotational constants (GHZ):           0.19902     0.15706     0.14267
    1 imaginary frequencies ignored.
 Zero-point vibrational energy     940533.2 (Joules/Mol)
                                  224.79283 (Kcal/Mol)
 Warning -- explicit consideration of  40 degrees of freedom as
           vibrations may cause significant error
 Vibrational temperatures:     33.54    39.59    46.95    70.29    75.35
          (Kelvin)             92.31    99.69   111.56   119.84   133.79
                              150.01   163.63   171.38   179.70   187.28
                              211.42   239.04   252.16   255.80   288.12
                              314.97   320.30   334.18   355.83   372.41
                              411.31   447.00   485.99   494.24   499.19
                              541.76   553.86   558.19   564.58   580.63
                              591.09   668.53   734.15   758.10   782.65
                              894.04   905.85   946.02   973.79  1016.73
                             1053.74  1089.28  1122.29  1137.50  1161.20
                             1213.67  1216.76  1227.21  1249.10  1255.26
                             1335.05  1338.88  1359.13  1399.63  1410.94
                             1437.84  1440.78  1443.35  1445.58  1461.54
                             1487.49  1504.94  1508.81  1524.30  1558.30
                             1591.03  1605.55  1630.42  1636.60  1671.63
                             1683.33  1690.65  1723.44  1738.73  1765.56
                             1795.09  1811.18  1846.23  1867.66  1887.76
                             1892.98  1903.89  1920.80  1955.16  1965.95
                             1969.66  1987.39  2001.39  2026.20  2038.32
                             2063.39  2094.92  2111.38  2120.66  2125.24
                             2139.78  2141.90  2156.69  2168.82  2173.42
                             2190.32  2336.84  2368.12  2549.00  4296.20
                             4319.17  4372.67  4400.93  4402.21  4414.42
                             4428.03  4451.04  4453.79  4464.26  4468.66
                             4481.89  4485.57  4497.29  4509.32  4556.71
                             4558.08  4561.37  4572.49  4584.81  4597.20
                             4607.69

 Zero-point correction=                           0.358230 (Hartree/Particle)
 Thermal correction to Energy=                    0.385417
 Thermal correction to Enthalpy=                  0.386361
 Thermal correction to Gibbs Free Energy=         0.296719
 Sum of electronic and zero-point Energies=          -3531.049359
 Sum of electronic and thermal Energies=             -3531.022171
 Sum of electronic and thermal Enthalpies=           -3531.021227
 Sum of electronic and thermal Free Energies=        -3531.110870

                     E (Thermal)             CV                S
                      KCal/Mol        Cal/Mol-Kelvin    Cal/Mol-Kelvin
 Total                  241.853             97.383            188.669
 Electronic               0.000              0.000              3.561
 Translational            0.889              2.981             44.100
 Rotational               0.889              2.981             35.532
 Vibrational            240.076             91.421            105.477
 Vibration     1          0.593              1.985              6.330
 Vibration     2          0.593              1.984              6.001
 Vibration     3          0.594              1.983              5.663
 Vibration     4          0.595              1.978              4.863
 Vibration     5          0.596              1.977              4.726
 Vibration     6          0.597              1.971              4.325
 Vibration     7          0.598              1.969              4.173
 Vibration     8          0.599              1.964              3.952
 Vibration     9          0.600              1.961              3.812
 Vibration    10          0.602              1.954              3.596
 Vibration    11          0.605              1.946              3.373
 Vibration    12          0.607              1.938              3.204
 Vibration    13          0.609              1.933              3.115
 Vibration    14          0.610              1.928              3.023
 Vibration    15          0.612              1.923              2.944
 Vibration    16          0.617              1.906              2.711
 Vibration    17          0.624              1.884              2.479
 Vibration    18          0.627              1.873              2.378
 Vibration    19          0.628              1.870              2.351
 Vibration    20          0.638              1.840              2.131
 Vibration    21          0.647              1.812              1.968
 Vibration    22          0.648              1.807              1.938
 Vibration    23          0.653              1.792              1.861
 Vibration    24          0.661              1.767              1.750
 Vibration    25          0.668              1.748              1.670
 Vibration    26          0.684              1.700              1.498
 Vibration    27          0.700              1.653              1.359
 Vibration    28          0.718              1.600              1.223
 Vibration    29          0.722              1.588              1.196
 Vibration    30          0.725              1.581              1.180
 Vibration    31          0.747              1.520              1.053
 Vibration    32          0.754              1.502              1.020
 Vibration    33          0.756              1.496              1.008
 Vibration    34          0.760              1.486              0.991
 Vibration    35          0.769              1.462              0.950
 Vibration    36          0.775              1.447              0.924
 Vibration    37          0.822              1.328              0.753
 Vibration    38          0.865              1.227              0.633
 Vibration    39          0.882              1.190              0.594
 Vibration    40          0.899              1.153              0.557

                           ! Non-Optimized Parameters !
 Normal termination of Gaussian 16 at Sun Jun 20 05:59:08 2021.

 ----------------------------------------------------------------------
 #p ub3lyp jul-cc-pvdz pop=cm5 scrf=(pcm,solvent=dichloroethane) guess=
 read geom=allcheck
 ----------------------------------------------------------------------

 Structure from the checkpoint file:  "checkpoint.chk"
 -----
 title
 -----
 Charge =  0 Multiplicity = 6

 SCF Done:  E(UB3LYP) =  -3531.43234738     A.U. after   17 cycles
 Normal termination of Gaussian 16 at Sun Jun 20 06:19:44 2021.
 Gaussian 16:  ES64L-G16RevA.03 25-Dec-2016

 ----------------------------------------------------------------------
 #p ub3lyp jul-cc-pvdz pop=cm5 scrf=(pcm,solvent=water) guess=read geom
 =allcheck
 ----------------------------------------------------------------------

 Structure from the checkpoint file:  "checkpoint.chk"
 -----
 title
 -----
 Charge =  0 Multiplicity = 6

                         Standard orientation:
 ---------------------------------------------------------------------
 Center     Atomic      Atomic             Coordinates (Angstroms)
 Number     Number       Type             X           Y           Z
 ---------------------------------------------------------------------
      1          6           0        2.088072   -1.893180    1.604525
      2          6           0        1.301533   -0.873189    1.047614
      3          6           0        1.191425    0.340077    1.743758
      4          6           0        1.832150    0.518555    2.971290
      5          6           0        2.603792   -0.507652    3.522535
      6          6           0        2.733769   -1.713820    2.830854
      7          6           0        0.645769   -1.028161   -0.310994
      8          6           0        1.560746   -0.623911   -1.520656
      9          6           0        2.292684   -1.909229   -1.927747
     10          6           0        1.230639   -3.028382   -1.860885
     11          6           0        0.271902   -2.633907   -0.725481
     12          6           0       -1.183330   -2.375130   -1.023767
     13          6           0       -1.684940   -2.125893   -2.393733
     14          8           0       -0.661933   -0.434703   -0.413116
     15         26           0       -1.968983    0.781546    0.313260
     16         17           0       -3.694870    0.549693   -1.089048
     17          6           0       -2.170337   -2.781476    0.002383
     18         17           0       -1.263898    2.875028    0.371545
     19         17           0       -2.543299    0.041634    2.324538
     20          1           0        0.609720    1.163070    1.332429
     21          1           0        1.720119    1.466628    3.498806
     22          1           0        3.100165   -0.368309    4.483916
     23          1           0        3.337202   -2.522789    3.245046
     24          1           0        2.215241   -2.843493    1.086220
     25          1           0        0.876183   -0.297020   -2.313984
     26          6           0        2.519572    0.525587   -1.240624
     27          1           0        2.747634   -1.819627   -2.922785
     28          1           0        3.109553   -2.096146   -1.218937
     29          1           0        0.705410   -3.113661   -2.821146
     30          1           0        1.685297   -4.008715   -1.667603
     31          1           0        0.352372   -3.275601    0.155979
     32          1           0       -2.298331   -3.872881   -0.140550
     33          1           0       -1.799265   -2.625901    1.020968
     34          1           0       -3.144265   -2.299211   -0.132034
     35          1           0       -2.005054   -3.107174   -2.792515
     36          1           0       -2.569877   -1.477997   -2.362677
     37          1           0       -0.931071   -1.712739   -3.068437
     38          8           0        1.934344    1.710277   -1.481787
     39          8           0        3.665313    0.389487   -0.866404
     40          6           0        2.739504    2.896734   -1.226463
     41          6           0        1.956612    4.097243   -1.716888
     42          1           0        2.939824    2.942710   -0.147274
     43          1           0        3.699926    2.778389   -1.745413
     44          1           0        2.533022    5.011917   -1.515820
     45          1           0        1.776345    4.033617   -2.799201
     46          1           0        0.989404    4.170640   -1.203206
 ---------------------------------------------------------------------

 SCF Done:  E(UB3LYP) =  -3531.43700894     A.U. after   14 cycles

 The electronic state is 6-A.
 Alpha  occ. eigenvalues -- -256.20588-101.52403-101.52207-101.52129 -30.19977
 Alpha  occ. eigenvalues --  -26.05261 -26.05250 -26.05121 -19.20295 -19.17725
 Alpha  occ. eigenvalues --  -19.15181 -10.32818 -10.32554 -10.29569 -10.24730
 Alpha  occ. eigenvalues --  -10.23011 -10.21831 -10.21579 -10.21511 -10.21499
 Alpha  occ. eigenvalues --  -10.20482 -10.20352 -10.20244 -10.20227 -10.20181
 Alpha  occ. eigenvalues --  -10.20136 -10.19877 -10.18531  -9.44127  -9.43926
 Alpha  occ. eigenvalues --   -9.43855  -7.19990  -7.19797  -7.19728  -7.19679
 Alpha  occ. eigenvalues --   -7.19666  -7.19472  -7.19460  -7.19403  -7.19388
 Alpha  occ. eigenvalues --   -3.67653  -2.45136  -2.45044  -2.44818  -1.12020
 Alpha  occ. eigenvalues --   -1.03575  -1.02973  -0.87804  -0.87160  -0.84257
 Alpha  occ. eigenvalues --   -0.80319  -0.79605  -0.79433  -0.78729  -0.77642
 Alpha  occ. eigenvalues --   -0.76076  -0.75098  -0.74029  -0.71486  -0.66457
 Alpha  occ. eigenvalues --   -0.64076  -0.62066  -0.61073  -0.59443  -0.56910
 Alpha  occ. eigenvalues --   -0.56253  -0.54512  -0.52743  -0.51332  -0.50266
 Alpha  occ. eigenvalues --   -0.50034  -0.49656  -0.48937  -0.48007  -0.47837
 Alpha  occ. eigenvalues --   -0.47710  -0.47514  -0.47040  -0.46499  -0.46280
 Alpha  occ. eigenvalues --   -0.45261  -0.44578  -0.44120  -0.43237  -0.42972
 Alpha  occ. eigenvalues --   -0.42487  -0.41731  -0.40812  -0.40376  -0.40197
 Alpha  occ. eigenvalues --   -0.39801  -0.38671  -0.38293  -0.37609  -0.37311
 Alpha  occ. eigenvalues --   -0.36880  -0.36356  -0.36069  -0.35904  -0.35691
 Alpha  occ. eigenvalues --   -0.34579  -0.34365  -0.33865  -0.32381  -0.31758
 Alpha  occ. eigenvalues --   -0.31128  -0.31061  -0.30857  -0.30582  -0.30016
 Alpha  occ. eigenvalues --   -0.29710  -0.29442  -0.28664  -0.26792  -0.26210
 Alpha virt. eigenvalues --   -0.11429  -0.03309  -0.02895  -0.01490  -0.01288
 Alpha virt. eigenvalues --   -0.00191  -0.00066   0.00105   0.01441   0.01638
 Alpha virt. eigenvalues --    0.01742   0.01836   0.02438   0.03260   0.03829

  Beta  occ. eigenvalues -- -256.20403-101.52223-101.52032-101.51947 -30.11053
  Beta  occ. eigenvalues --  -25.97822 -25.97756 -25.97738 -19.20295 -19.17116
  Beta  occ. eigenvalues --  -19.15178 -10.32818 -10.32558 -10.29541 -10.24730
  Beta  occ. eigenvalues --  -10.22986 -10.21816 -10.21578 -10.21506 -10.21490
  Beta  occ. eigenvalues --  -10.20479 -10.20350 -10.20243 -10.20226 -10.20181
  Beta  occ. eigenvalues --  -10.20135 -10.19875 -10.18529  -9.43951  -9.43754
  Beta  occ. eigenvalues --   -9.43677  -7.19698  -7.19496  -7.19435  -7.19423
  Beta  occ. eigenvalues --   -7.19422  -7.19243  -7.19232  -7.19158  -7.19154
  Beta  occ. eigenvalues --   -3.46842  -2.23180  -2.23041  -2.22982  -1.12018
  Beta  occ. eigenvalues --   -1.03570  -1.01797  -0.87622  -0.87133  -0.84209
  Beta  occ. eigenvalues --   -0.79165  -0.78748  -0.78348  -0.78193  -0.77570
  Beta  occ. eigenvalues --   -0.76067  -0.75067  -0.74019  -0.71314  -0.66376
  Beta  occ. eigenvalues --   -0.64036  -0.62040  -0.61041  -0.59228  -0.56849
  Beta  occ. eigenvalues --   -0.55772  -0.54440  -0.51845  -0.51260  -0.50117
  Beta  occ. eigenvalues --   -0.49861  -0.48979  -0.48048  -0.47499  -0.46474
  Beta  occ. eigenvalues --   -0.46304  -0.44688  -0.44124  -0.43297  -0.43000
  Beta  occ. eigenvalues --   -0.42565  -0.41680  -0.40827  -0.40314  -0.40149
  Beta  occ. eigenvalues --   -0.39776  -0.38459  -0.38121  -0.37794  -0.37282
  Beta  occ. eigenvalues --   -0.36840  -0.36763  -0.36032  -0.35986  -0.35859
  Beta  occ. eigenvalues --   -0.35756  -0.35523  -0.34471  -0.33226  -0.33195
  Beta  occ. eigenvalues --   -0.32664  -0.32242  -0.31878  -0.31479  -0.30294
  Beta  occ. eigenvalues --   -0.29756  -0.29709  -0.28603  -0.26784  -0.26169
  Beta virt. eigenvalues --   -0.14644  -0.14180  -0.13455  -0.13063  -0.12432
  Beta virt. eigenvalues --   -0.10784  -0.03239  -0.02866  -0.01393  -0.01245
  Beta virt. eigenvalues --   -0.00131  -0.00041   0.00131   0.01467   0.01661

 Mulliken charges and spin densities:
               1          2
     1  C   -0.302901   0.004842
     2  C    3.374959  -0.005486
     3  C   -0.381124  -0.012194
     4  C    0.033063   0.000004
     5  C    0.211932  -0.000325
     6  C   -0.145691   0.001108
     7  C   -2.684297   0.025492
     8  C    0.363651   0.002872
     9  C    0.508082   0.001948
    10  C    0.558101   0.000651
    11  C    1.026586   0.013924
    12  C   -0.770718   0.000468
    13  C    0.352956  -0.004605
    14  O   -0.307633   0.190280
    15  Fe   0.625828   4.047891
    16  Cl  -0.524746   0.237734
    17  C    0.416504   0.001849
    18  Cl  -0.474666   0.247944
    19  Cl  -0.486724   0.240161
    20  H   -0.318879   0.001055
    21  H   -0.162773  -0.000002
    22  H   -0.162204   0.000034
    23  H   -0.157396   0.000090
    24  H   -0.211627   0.000030
    25  H   -0.201727   0.000061
    26  C    0.958449   0.004025
    27  H   -0.143535   0.000490
    28  H   -0.050636   0.000027
    29  H   -0.084743   0.000010
    30  H   -0.106113   0.000518
    31  H   -0.215948   0.000762
    32  H    0.055666  -0.000516
    33  H    0.068587  -0.000675
    34  H    0.038891  -0.000408
    35  H    0.081189   0.001629
    36  H    0.065982  -0.000767
    37  H    0.058510  -0.000153
    38  O   -0.692664  -0.000653
    39  O   -0.650026   0.000896
    40  C    0.423260  -0.001294
    41  C    0.057308   0.000811
    42  H   -0.041687  -0.000002
    43  H   -0.047799  -0.000002
    44  H   -0.005013   0.000064
    45  H    0.022366  -0.000015
    46  H    0.029399  -0.000568
 Sum of Mulliken charges =  -0.00000   5.00000

 Dipole moment (field-independent basis, Debye):
    X=              4.5600    Y=            -11.4066    Z=             -5.6616  Tot=             13.5262
 Quadrupole moment (field-independent basis, Debye-Ang):
   XX=           -203.4284   YY=           -146.1052   ZZ=           -167.4801
   XY=             18.7977   XZ=              9.8523   YZ=              8.6299

 Normal termination of Gaussian 16 at Sun Jun 20 06:36:37 2021.
