 Gaussian 16, Revision A.03,

 -----------------------------------------------------------
 #p opt=modredundant freq=noraman ub3lyp jul-cc-pvdz pop=cm5
 -----------------------------------------------------------

 -----
 title
 -----
 Symbolic Z-matrix:
 Charge =  0 Multiplicity = 6

 SCF Done:  E(UB3LYP) =  -3531.44884051     A.U. after   24 cycles
 SCF Done:  E(UB3LYP) =  -3531.44872274     A.U. after   18 cycles
 SCF Done:  E(UB3LYP) =  -3531.44711436     A.U. after   17 cycles
 SCF Done:  E(UB3LYP) =  -3531.44710967     A.U. after   16 cycles
 SCF Done:  E(UB3LYP) =  -3531.44908886     A.U. after   11 cycles
 SCF Done:  E(UB3LYP) =  -3531.44890962     A.U. after   18 cycles
 SCF Done:  E(UB3LYP) =  -3531.44945382     A.U. after   16 cycles
 SCF Done:  E(UB3LYP) =  -3531.44947565     A.U. after   14 cycles
 SCF Done:  E(UB3LYP) =  -3531.44946174     A.U. after   14 cycles
 SCF Done:  E(UB3LYP) =  -3531.44949496     A.U. after   14 cycles
 SCF Done:  E(UB3LYP) =  -3531.44951144     A.U. after   10 cycles
 SCF Done:  E(UB3LYP) =  -3531.44951116     A.U. after   10 cycles
 SCF Done:  E(UB3LYP) =  -3531.44951086     A.U. after   10 cycles
 SCF Done:  E(UB3LYP) =  -3531.44951054     A.U. after   10 cycles
 SCF Done:  E(UB3LYP) =  -3531.44951030     A.U. after   10 cycles
 SCF Done:  E(UB3LYP) =  -3531.44951024     A.U. after    9 cycles
 SCF Done:  E(UB3LYP) =  -3531.44951026     A.U. after    9 cycles
 Optimization completed.
    -- Stationary point found.
 Normal termination of Gaussian 16 at Sun Jun 20 15:40:18 2021.

 ----------------------------------------------------------------------
 #P Geom=AllCheck Guess=TCheck SCRF=Check GenChk UB3LYP/Jul-CC-pVDZ Fre
 q
 ----------------------------------------------------------------------

 Structure from the checkpoint file:  "checkpoint.chk"
 -----
 title
 -----
 Charge =  0 Multiplicity = 6

 SCF Done:  E(UB3LYP) =  -3531.44951026     A.U. after    2 cycles

  Exact polarizability: 306.109   9.533 307.590  26.378   1.930 304.288
 Approx polarizability: 469.821  45.245 475.025  54.069  -5.674 488.581

 ******    1 imaginary frequencies (negative Signs) ******

                      1                      2                      3
                      A                      A                      A
 Frequencies --     -7.3714                16.3316                23.6174
 Red. masses --      6.1074                 7.2371                 7.7689
 Frc consts  --      0.0002                 0.0011                 0.0026
 IR Inten    --      0.3581                 0.6141                 0.4273

                      4                      5                      6
                      A                      A                      A
 Frequencies --     33.1414                42.4137                53.1074
 Red. masses --      4.7722                 7.0225                 4.6524
 Frc consts  --      0.0031                 0.0074                 0.0077
 IR Inten    --      1.0716                 1.2289                 0.9356

                      7                      8                      9
                      A                      A                      A
 Frequencies --     62.7803                66.6198                76.3628
 Red. masses --      3.1762                 4.0891                 4.7958
 Frc consts  --      0.0074                 0.0107                 0.0165
 IR Inten    --      0.2629                 1.0389                 0.8108

                     10                     11                     12
                      A                      A                      A
 Frequencies --     80.5761                85.4154                97.6927
 Red. masses --      9.0338                 7.7841                 3.5600
 Frc consts  --      0.0346                 0.0335                 0.0200
 IR Inten    --      0.3703                 1.6073                 0.5298

                     13                     14                     15
                      A                      A                      A
 Frequencies --    101.3171               110.4253               110.9469
 Red. masses --      3.9857                 3.6454                 3.2148
 Frc consts  --      0.0241                 0.0262                 0.0233
 IR Inten    --      2.0368                 0.0653                 0.2386

                     16                     17                     18
                      A                      A                      A
 Frequencies --    117.3496               121.0803               137.0306
 Red. masses --      4.3844                10.9799                 1.6719
 Frc consts  --      0.0356                 0.0948                 0.0185
 IR Inten    --      0.6833                 1.9788                 1.2877

                     19                     20                     21
                      A                      A                      A
 Frequencies --    149.0514               157.0313               180.1043
 Red. masses --      3.3721                 6.9711                 4.0325
 Frc consts  --      0.0441                 0.1013                 0.0771
 IR Inten    --      3.2106                12.4757                 9.1056

                     22                     23                     24
                      A                      A                      A
 Frequencies --    205.8636               207.5732               212.2708
 Red. masses --      1.2290                 3.3901                 3.0780
 Frc consts  --      0.0307                 0.0861                 0.0817
 IR Inten    --      6.4711                 0.9581                 2.0407

                     25                     26                     27
                      A                      A                      A
 Frequencies --    258.2627               264.0785               282.6198
 Red. masses --      1.4887                 3.3173                 4.0852
 Frc consts  --      0.0585                 0.1363                 0.1923
 IR Inten    --      1.6886                24.5691                 1.6294

                     28                     29                     30
                      A                      A                      A
 Frequencies --    310.2487               314.3392               342.7830
 Red. masses --      7.9312                 2.4245                20.2348
 Frc consts  --      0.4498                 0.1411                 1.4008
 IR Inten    --     12.5663                 0.9667                33.2891

                     31                     32                     33
                      A                      A                      A
 Frequencies --    352.8875               379.2871               390.0580
 Red. masses --      5.7778                 3.7518                 2.8598
 Frc consts  --      0.4239                 0.3180                 0.2564
 IR Inten    --     24.3006                 2.2290                 8.3313

                     34                     35                     36
                      A                      A                      A
 Frequencies --    398.9914               406.9792               414.5053
 Red. masses --     23.7708                27.8505                 3.0691
 Frc consts  --      2.2296                 2.7179                 0.3107
 IR Inten    --     72.3524                77.6312                 4.0309

                     37                     38                     39
                      A                      A                      A
 Frequencies --    421.9681               445.2954               474.0912
 Red. masses --      3.6979                 2.8307                 3.2622
 Frc consts  --      0.3879                 0.3307                 0.4320
 IR Inten    --     26.1277                 7.5773                 0.7461

                     40                     41                     42
                      A                      A                      A
 Frequencies --    494.2123               512.9256               542.0376
 Red. masses --      2.5249                 2.8125                 4.1638
 Frc consts  --      0.3633                 0.4360                 0.7208
 IR Inten    --     10.8418                 1.4465                17.4480

                     43                     44                     45
                      A                      A                      A
 Frequencies --    580.0164               624.0670               654.1667
 Red. masses --      4.7717                 6.3899                 4.5803
 Frc consts  --      0.9458                 1.4662                 1.1549
 IR Inten    --     57.9607                 2.5878                50.6718

                     46                     47                     48
                      A                      A                      A
 Frequencies --    696.7830               698.2102               752.3275
 Red. masses --      4.6233                 1.7287                 4.3437
 Frc consts  --      1.3225                 0.4965                 1.4485
 IR Inten    --      2.2999                62.1530                 5.1344

                     49                     50                     51
                      A                      A                      A
 Frequencies --    773.8132               787.3258               805.1697
 Red. masses --      2.3038                 2.2485                 1.1401
 Frc consts  --      0.8128                 0.8212                 0.4355
 IR Inten    --     29.4201                 3.1204                 1.6047

                     52                     53                     54
                      A                      A                      A
 Frequencies --    832.0907               844.6962               853.8767
 Red. masses --      4.6695                 1.4703                 1.2492
 Frc consts  --      1.9048                 0.6181                 0.5366
 IR Inten    --      8.7789                19.8626                 0.9436

                     55                     56                     57
                      A                      A                      A
 Frequencies --    865.1525               899.8393               908.3636
 Red. masses --      2.7887                 2.1380                 2.1264
 Frc consts  --      1.2298                 1.0200                 1.0337
 IR Inten    --     27.6713                 0.5902                15.8591

                     58                     59                     60
                      A                      A                      A
 Frequencies --    960.2377               962.0112               974.8684
 Red. masses --      1.4654                 1.4659                 3.0049
 Frc consts  --      0.7961                 0.7993                 1.6826
 IR Inten    --      2.7738                 3.0831                20.5955

                     61                     62                     63
                      A                      A                      A
 Frequencies --    990.7983               994.8262               999.3958
 Red. masses --      2.0361                 1.4793                 1.7277
 Frc consts  --      1.1777                 0.8626                 1.0167
 IR Inten    --     35.8950                 6.8586                 5.0260

                     64                     65                     66
                      A                      A                      A
 Frequencies --   1003.7538              1014.3632              1019.8188
 Red. masses --      2.7395                 1.3559                 2.0747
 Frc consts  --      1.6262                 0.8220                 1.2713
 IR Inten    --      0.1957                 0.9613                 0.2126

                     67                     68                     69
                      A                      A                      A
 Frequencies --   1036.4859              1047.2405              1077.5092
 Red. masses --      2.6089                 2.4071                 2.1304
 Frc consts  --      1.6513                 1.5554                 1.4573
 IR Inten    --     41.9174                 2.7971                 1.4176

                     70                     71                     72
                      A                      A                      A
 Frequencies --   1094.4582              1099.5595              1117.1045
 Red. masses --      1.7318                 2.1686                 1.5841
 Frc consts  --      1.2222                 1.5448                 1.1647
 IR Inten    --      0.8395                15.0663                 6.9577

                     73                     74                     75
                      A                      A                      A
 Frequencies --   1133.1411              1138.9367              1165.0421
 Red. masses --      2.1724                 2.1741                 1.6758
 Frc consts  --      1.6435                 1.6616                 1.3402
 IR Inten    --     15.6899                 8.9208                84.2681

                     76                     77                     78
                      A                      A                      A
 Frequencies --   1170.0252              1179.3679              1204.9688
 Red. masses --      1.6055                 1.0861                 1.5656
 Frc consts  --      1.2949                 0.8900                 1.3393
 IR Inten    --     21.2125                 1.1861                54.2192

                     79                     80                     81
                      A                      A                      A
 Frequencies --   1210.0210              1228.0923              1254.0959
 Red. masses --      1.2699                 1.9952                 1.9735
 Frc consts  --      1.0955                 1.7729                 1.8287
 IR Inten    --     53.8670               157.4643                25.8594

                     82                     83                     84
                      A                      A                      A
 Frequencies --   1275.2375              1284.4483              1323.9528
 Red. masses --      2.1053                 1.1363                 1.3903
 Frc consts  --      2.0172                 1.1045                 1.4359
 IR Inten    --    175.2824                 5.9545                 6.2512

                     85                     86                     87
                      A                      A                      A
 Frequencies --   1327.4958              1337.8433              1343.3647
 Red. masses --      1.7567                 1.5127                 1.7102
 Frc consts  --      1.8240                 1.5952                 1.8184
 IR Inten    --    122.3420                24.1225                21.6573

                     88                     89                     90
                      A                      A                      A
 Frequencies --   1367.5898              1371.6055              1379.1028
 Red. masses --      1.9899                 1.8895                 1.3243
 Frc consts  --      2.1927                 2.0944                 1.4840
 IR Inten    --      4.0451                10.9965                 6.7481

                     91                     92                     93
                      A                      A                      A
 Frequencies --   1381.0743              1405.6019              1409.1965
 Red. masses --      1.3734                 1.4177                 1.3088
 Frc consts  --      1.5434                 1.6503                 1.5314
 IR Inten    --     19.6098                 7.3365                16.0913

                     94                     95                     96
                      A                      A                      A
 Frequencies --   1415.7262              1460.9402              1466.1305
 Red. masses --      1.4028                 1.0673                 1.2578
 Frc consts  --      1.6565                 1.3422                 1.5929
 IR Inten    --     13.0224                 5.3011                 9.8207

                     97                     98                     99
                      A                      A                      A
 Frequencies --   1467.1553              1474.1772              1479.8853
 Red. masses --      1.7403                 1.0386                 1.0777
 Frc consts  --      2.2071                 1.3298                 1.3906
 IR Inten    --     25.0642                 5.0766                 1.8391

                    100                    101                    102
                      A                      A                      A
 Frequencies --   1482.3439              1486.3552              1487.8835
 Red. masses --      1.0513                 1.0555                 1.0999
 Frc consts  --      1.3611                 1.3739                 1.4347
 IR Inten    --     17.5335                 2.3946                 6.9253

                    103                    104                    105
                      A                      A                      A
 Frequencies --   1490.1517              1504.7787              1518.6745
 Red. masses --      1.0901                 1.0831                 2.1481
 Frc consts  --      1.4262                 1.4450                 2.9190
 IR Inten    --      9.7291                 6.4690                 7.6074

                    106                    107                    108
                      A                      A                      A
 Frequencies --   1558.0879              1620.2804              1641.5855
 Red. masses --      6.8682                 5.4812                 5.6599
 Frc consts  --      9.8237                 8.4782                 8.9864
 IR Inten    --    662.5211                42.5226                39.2115

                    109                    110                    111
                      A                      A                      A
 Frequencies --   1709.6960              1768.8319              3015.1345
 Red. masses --      6.3459                11.4848                 1.0382
 Frc consts  --     10.9290                21.1712                 5.5607
 IR Inten    --     82.0475               214.5747                13.2779

                    112                    113                    114
                      A                      A                      A
 Frequencies --   3026.1878              3028.6822              3042.0645
 Red. masses --      1.0454                 1.0611                 1.0356
 Frc consts  --      5.6403                 5.7349                 5.6463
 IR Inten    --     15.3738                28.2014                15.3800

                    115                    116                    117
                      A                      A                      A
 Frequencies --   3062.1653              3067.0508              3071.2789
 Red. masses --      1.0582                 1.0647                 1.0978
 Frc consts  --      5.8461                 5.9011                 6.1012
 IR Inten    --     13.4511                26.2127                 2.9586

                    118                    119                    120
                      A                      A                      A
 Frequencies --   3078.3593              3080.6620              3085.1196
 Red. masses --      1.0974                 1.0849                 1.0959
 Frc consts  --      6.1270                 6.0665                 6.1456
 IR Inten    --     23.2126                 1.5130                 4.8982

                    121                    122                    123
                      A                      A                      A
 Frequencies --   3108.7530              3118.3226              3118.7606
 Red. masses --      1.1072                 1.1011                 1.1020
 Frc consts  --      6.3046                 6.3086                 6.3152
 IR Inten    --      7.2940                 8.4261                16.4305

                    124                    125                    126
                      A                      A                      A
 Frequencies --   3122.3626              3129.9058              3137.6209
 Red. masses --      1.0978                 1.0893                 1.1053
 Frc consts  --      6.3059                 6.2875                 6.4109
 IR Inten    --      4.4879                26.7845                16.6728

                    127                    128                    129
                      A                      A                      A
 Frequencies --   3139.6450              3175.5991              3189.3787
 Red. masses --      1.0970                 1.0864                 1.0911
 Frc consts  --      6.3709                 6.4547                 6.5394
 IR Inten    --     24.5870                 1.0533                 7.2001

                    130                    131                    132
                      A                      A                      A
 Frequencies --   3197.8253              3218.8532              3228.2229
 Red. masses --      1.0963                 1.0938                 1.0932
 Frc consts  --      6.6055                 6.6769                 6.7122
 IR Inten    --      8.4252                 5.2450                 6.7027

 - Thermochemistry -
 -------------------
 Temperature   298.150 Kelvin.  Pressure   1.00000 Atm.
 Atom     1 has atomic number  6 and mass  12.00000

 Molecular mass:   434.99839 amu.
 Principal axes and moments of inertia in atomic units:
                           1         2         3
     Eigenvalues --  ******************************
           X            0.98908  -0.14731   0.00310
           Y            0.14718   0.98873   0.02753
           Z           -0.00712  -0.02677   0.99962
 This molecule is an asymmetric top.
 Rotational symmetry number  1.
 Warning -- assumption of classical behavior for rotation
           may cause significant error
 Rotational temperatures (Kelvin)      0.00866     0.00775     0.00657
 Rotational constants (GHZ):           0.18040     0.16151     0.13695
    1 imaginary frequencies ignored.
 Zero-point vibrational energy     943774.9 (Joules/Mol)
                                  225.56762 (Kcal/Mol)
 Warning -- explicit consideration of  42 degrees of freedom as
           vibrations may cause significant error
 Vibrational temperatures:     23.50    33.98    47.68    61.02    76.41
          (Kelvin)             90.33    95.85   109.87   115.93   122.89
                              140.56   145.77   158.88   159.63   168.84
                              174.21   197.16   214.45   225.93   259.13
                              296.19   298.65   305.41   371.58   379.95
                              406.63   446.38   452.26   493.19   507.73
                              545.71   561.21   574.06   585.55   596.38
                              607.12   640.68   682.11   711.06   737.99
                              779.87   834.51   897.89   941.20  1002.52
                             1004.57  1082.43  1113.34  1132.79  1158.46
                             1197.19  1215.33  1228.54  1244.76  1294.67
                             1306.93  1381.57  1384.12  1402.62  1425.54
                             1431.33  1437.91  1444.18  1459.44  1467.29
                             1491.27  1506.75  1550.30  1574.68  1582.02
                             1607.26  1630.34  1638.68  1676.24  1683.41
                             1696.85  1733.68  1740.95  1766.95  1804.36
                             1834.78  1848.03  1904.87  1909.97  1924.86
                             1932.80  1967.66  1973.43  1984.22  1987.06
                             2022.35  2027.52  2036.91  2101.97  2109.43
                             2110.91  2121.01  2129.22  2132.76  2138.53
                             2140.73  2144.00  2165.04  2185.03  2241.74
                             2331.22  2361.88  2459.87  2544.95  4338.11
                             4354.01  4357.60  4376.85  4405.77  4412.80
                             4418.89  4429.07  4432.39  4438.80  4472.80
                             4486.57  4487.20  4492.38  4503.24  4514.34
                             4517.25  4568.98  4588.80  4600.96  4631.21
                             4644.69

 Zero-point correction=                           0.359465 (Hartree/Particle)
 Thermal correction to Energy=                    0.387206
 Thermal correction to Enthalpy=                  0.388150
 Thermal correction to Gibbs Free Energy=         0.296197
 Sum of electronic and zero-point Energies=          -3531.090045
 Sum of electronic and thermal Energies=             -3531.062304
 Sum of electronic and thermal Enthalpies=           -3531.061360
 Sum of electronic and thermal Free Energies=        -3531.153314

                     E (Thermal)             CV                S
                      KCal/Mol        Cal/Mol-Kelvin    Cal/Mol-Kelvin
 Total                  242.975             97.778            193.532
 Electronic               0.000              0.000              3.561
 Translational            0.889              2.981             44.100
 Rotational               0.889              2.981             35.642
 Vibrational            241.198             91.817            110.230
 Vibration     1          0.593              1.986              7.037
 Vibration     2          0.593              1.985              6.304
 Vibration     3          0.594              1.983              5.632
 Vibration     4          0.595              1.980              5.143
 Vibration     5          0.596              1.976              4.698
 Vibration     6          0.597              1.972              4.368
 Vibration     7          0.598              1.970              4.251
 Vibration     8          0.599              1.965              3.982
 Vibration     9          0.600              1.962              3.877
 Vibration    10          0.601              1.959              3.762
 Vibration    11          0.603              1.951              3.500
 Vibration    12          0.604              1.948              3.429
 Vibration    13          0.606              1.941              3.261
 Vibration    14          0.607              1.940              3.252
 Vibration    15          0.608              1.935              3.144
 Vibration    16          0.609              1.932              3.083
 Vibration    17          0.614              1.916              2.845
 Vibration    18          0.618              1.904              2.684
 Vibration    19          0.621              1.895              2.585
 Vibration    20          0.629              1.867              2.327
 Vibration    21          0.640              1.832              2.080
 Vibration    22          0.641              1.829              2.065
 Vibration    23          0.643              1.822              2.024
 Vibration    24          0.667              1.749              1.673
 Vibration    25          0.671              1.739              1.635
 Vibration    26          0.682              1.706              1.518
 Vibration    27          0.699              1.654              1.361
 Vibration    28          0.702              1.646              1.339
 Vibration    29          0.722              1.590              1.199
 Vibration    30          0.729              1.569              1.153
 Vibration    31          0.749              1.514              1.042
 Vibration    32          0.758              1.491              1.000
 Vibration    33          0.765              1.472              0.966
 Vibration    34          0.772              1.455              0.937
 Vibration    35          0.778              1.439              0.911
 Vibration    36          0.784              1.422              0.885
 Vibration    37          0.805              1.371              0.810
 Vibration    38          0.831              1.308              0.726
 Vibration    39          0.850              1.263              0.673
 Vibration    40          0.868              1.221              0.627
 Vibration    41          0.897              1.157              0.561
 Vibration    42          0.937              1.075              0.485

                           ! Non-Optimized Parameters !
 Normal termination of Gaussian 16 at Sun Jun 20 19:21:23 2021.

 ----------------------------------------------------------------------
 #p ub3lyp jul-cc-pvdz pop=cm5 scrf=(pcm,solvent=dichloroethane) guess=
 read geom=allcheck
 ----------------------------------------------------------------------

 Structure from the checkpoint file:  "checkpoint.chk"
 -----
 title
 -----
 Charge =  0 Multiplicity = 6

 SCF Done:  E(UB3LYP) =  -3531.46664395     A.U. after   18 cycles
 Normal termination of Gaussian 16 at Sun Jun 20 19:41:03 2021.
 Gaussian 16:  ES64L-G16RevA.03 25-Dec-2016

 ----------------------------------------------------------------------
 #p ub3lyp jul-cc-pvdz pop=cm5 scrf=(pcm,solvent=water) guess=read geom
 =allcheck
 ----------------------------------------------------------------------

 Structure from the checkpoint file:  "checkpoint.chk"
 -----
 title
 -----
 Charge =  0 Multiplicity = 6

                         Standard orientation:
 ---------------------------------------------------------------------
 Center     Atomic      Atomic             Coordinates (Angstroms)
 Number     Number       Type             X           Y           Z
 ---------------------------------------------------------------------
      1          6           0        2.781093    0.591078    1.314467
      2          6           0        1.661483   -0.193506    0.964271
      3          6           0        1.230662   -1.204008    1.851735
      4          6           0        1.909936   -1.433904    3.043668
      5          6           0        3.021792   -0.651380    3.379389
      6          6           0        3.448738    0.363802    2.517048
      7          6           0        0.888544    0.042120   -0.270322
      8          6           0        1.304920    1.050285   -1.350395
      9          6           0        2.664060    0.805511   -2.024716
     10          6           0        2.661146   -0.553049   -2.742273
     11          6           0        2.322363   -1.667076   -1.791117
     12          6           0        1.249551   -2.485147   -1.818520
     13          6           0        0.136575   -2.411909   -2.826279
     14          8           0       -0.256620   -0.457022   -0.394387
     15         26           0       -2.112353   -0.544706    0.307989
     16         17           0       -3.411545    0.010269   -1.373118
     17          6           0        1.100050   -3.588839   -0.805721
     18         17           0       -2.152754    0.879336    1.985463
     19         17           0       -2.402087   -2.632447    0.964083
     20          1           0        0.362638   -1.810035    1.600923
     21          1           0        1.566720   -2.218888    3.717989
     22          1           0        3.550355   -0.828309    4.317548
     23          1           0        4.302566    0.987202    2.784201
     24          1           0        3.113708    1.404710    0.675337
     25          1           0        0.512028    0.959841   -2.103965
     26          6           0        1.182301    2.481993   -0.792450
     27          1           0        2.844530    1.620818   -2.738661
     28          1           0        3.479594    0.850689   -1.294240
     29          1           0        1.957584   -0.519642   -3.584672
     30          1           0        3.660233   -0.724503   -3.173677
     31          1           0        3.070043   -1.850185   -1.013088
     32          1           0        1.916524   -3.590019   -0.072567
     33          1           0        0.139216   -3.508605   -0.274417
     34          1           0        1.091889   -4.567802   -1.311804
     35          1           0        0.033601   -3.380119   -3.341245
     36          1           0       -0.824107   -2.225723   -2.322315
     37          1           0        0.277396   -1.635870   -3.585879
     38          8           0       -0.102699    2.826583   -0.674413
     39          8           0        2.122820    3.197459   -0.520124
     40          6           0       -0.383044    4.154372   -0.132353
     41          6           0       -1.882310    4.358819   -0.178080
     42          1           0        0.013225    4.187178    0.891388
     43          1           0        0.163992    4.889166   -0.737452
     44          1           0       -2.121455    5.351059    0.230987
     45          1           0       -2.255252    4.310134   -1.210231
     46          1           0       -2.400438    3.598422    0.420119
 ---------------------------------------------------------------------

 SCF Done:  E(UB3LYP) =  -3531.46979886     A.U. after   14 cycles

 The electronic state is 6-A.
 Alpha  occ. eigenvalues -- -256.21785-101.52999-101.52916-101.52834 -30.21169
 Alpha  occ. eigenvalues --  -26.06635 -26.06306 -26.06265 -19.21160 -19.20042
 Alpha  occ. eigenvalues --  -19.16277 -10.34255 -10.33653 -10.25237 -10.23390
 Alpha  occ. eigenvalues --  -10.22967 -10.22069 -10.22004 -10.21911 -10.21262
 Alpha  occ. eigenvalues --  -10.21251 -10.20752 -10.20410 -10.19459 -10.18741
 Alpha  occ. eigenvalues --  -10.18711 -10.18409 -10.18275  -9.44711  -9.44634
 Alpha  occ. eigenvalues --   -9.44570  -7.20580  -7.20505  -7.20438  -7.20278
 Alpha  occ. eigenvalues --   -7.20245  -7.20191  -7.20172  -7.20117  -7.20114
 Alpha  occ. eigenvalues --   -3.68813  -2.46592  -2.45968  -2.45891  -1.13109
 Alpha  occ. eigenvalues --   -1.10360  -1.04635  -0.88706  -0.84983  -0.82220
 Alpha  occ. eigenvalues --   -0.80957  -0.80216  -0.80153  -0.79085  -0.78635
 Alpha  occ. eigenvalues --   -0.77350  -0.75043  -0.69884  -0.69381  -0.67442
 Alpha  occ. eigenvalues --   -0.64748  -0.63025  -0.61928  -0.60002  -0.57829
 Alpha  occ. eigenvalues --   -0.56546  -0.53826  -0.52880  -0.52092  -0.50929
 Alpha  occ. eigenvalues --   -0.50226  -0.49489  -0.49148  -0.48872  -0.48724
 Alpha  occ. eigenvalues --   -0.48455  -0.47417  -0.47042  -0.46885  -0.45809
 Alpha  occ. eigenvalues --   -0.45345  -0.45072  -0.44305  -0.43261  -0.42825
 Alpha  occ. eigenvalues --   -0.42517  -0.41089  -0.40440  -0.39975  -0.39375
 Alpha  occ. eigenvalues --   -0.38842  -0.38480  -0.37994  -0.37821  -0.37533
 Alpha  occ. eigenvalues --   -0.37247  -0.36958  -0.36649  -0.36382  -0.35228
 Alpha  occ. eigenvalues --   -0.34990  -0.34725  -0.33411  -0.32644  -0.32306
 Alpha  occ. eigenvalues --   -0.31788  -0.31735  -0.31569  -0.31380  -0.30477
 Alpha  occ. eigenvalues --   -0.30283  -0.29926  -0.28799  -0.27989  -0.24828
 Alpha virt. eigenvalues --   -0.11274  -0.03632  -0.02311  -0.01672  -0.00714
 Alpha virt. eigenvalues --   -0.00124  -0.00013   0.00124   0.00660   0.01528
 Alpha virt. eigenvalues --    0.01728   0.01909   0.02297   0.02529   0.03242

  Beta  occ. eigenvalues -- -256.21599-101.52798-101.52722-101.52641 -30.12226
  Beta  occ. eigenvalues --  -25.99036 -25.98920 -25.98890 -19.21160 -19.19700
  Beta  occ. eigenvalues --  -19.16273 -10.34251 -10.33624 -10.25237 -10.23375
  Beta  occ. eigenvalues --  -10.22955 -10.22065 -10.21997 -10.21908 -10.21263
  Beta  occ. eigenvalues --  -10.21252 -10.20739 -10.20408 -10.19459 -10.18740
  Beta  occ. eigenvalues --  -10.18700 -10.18410 -10.18275  -9.44514  -9.44444
  Beta  occ. eigenvalues --   -9.44380  -7.20261  -7.20187  -7.20126  -7.19994
  Beta  occ. eigenvalues --   -7.19977  -7.19926  -7.19913  -7.19855  -7.19849
  Beta  occ. eigenvalues --   -3.47955  -2.24266  -2.24144  -2.24095  -1.13100
  Beta  occ. eigenvalues --   -1.09707  -1.04629  -0.88673  -0.84933  -0.82176
  Beta  occ. eigenvalues --   -0.79687  -0.79058  -0.78844  -0.78796  -0.78615
  Beta  occ. eigenvalues --   -0.77343  -0.75006  -0.69870  -0.69271  -0.67335
  Beta  occ. eigenvalues --   -0.64717  -0.63000  -0.61690  -0.59648  -0.57669
  Beta  occ. eigenvalues --   -0.55895  -0.53418  -0.52738  -0.51971  -0.50701
  Beta  occ. eigenvalues --   -0.49904  -0.49240  -0.47441  -0.46960  -0.46432
  Beta  occ. eigenvalues --   -0.45393  -0.45281  -0.44299  -0.43278  -0.42817
  Beta  occ. eigenvalues --   -0.42522  -0.41107  -0.40426  -0.39965  -0.39301
  Beta  occ. eigenvalues --   -0.38842  -0.38612  -0.38377  -0.37851  -0.37531
  Beta  occ. eigenvalues --   -0.37264  -0.36965  -0.36594  -0.36583  -0.36523
  Beta  occ. eigenvalues --   -0.36371  -0.35152  -0.33913  -0.33709  -0.33549
  Beta  occ. eigenvalues --   -0.33029  -0.32825  -0.32413  -0.31713  -0.30843
  Beta  occ. eigenvalues --   -0.30138  -0.30045  -0.28873  -0.27977  -0.24737
  Beta virt. eigenvalues --   -0.15862  -0.15354  -0.14368  -0.14012  -0.13923
  Beta virt. eigenvalues --   -0.10334  -0.03603  -0.02279  -0.01541  -0.00644
  Beta virt. eigenvalues --   -0.00082   0.00025   0.00174   0.00795   0.01554

 Mulliken charges and spin densities:
               1          2
     1  C   -0.141335   0.003981
     2  C    3.206432  -0.001560
     3  C   -0.684239  -0.006151
     4  C    0.099826   0.001245
     5  C    0.271091   0.007056
     6  C   -0.155040  -0.000987
     7  C   -1.829889  -0.008124
     8  C    0.268367   0.012454
     9  C    0.566168   0.002306
    10  C    0.579825  -0.000383
    11  C    0.184988   0.005893
    12  C   -0.013186   0.012922
    13  C    0.127273  -0.001466
    14  O   -0.296517   0.098348
    15  Fe   0.744765   4.073461
    16  Cl  -0.486905   0.264662
    17  C    0.151672  -0.002077
    18  Cl  -0.453336   0.267500
    19  Cl  -0.460338   0.261909
    20  H   -0.279818   0.000181
    21  H   -0.160374   0.000014
    22  H   -0.144317  -0.000095
    23  H   -0.154341   0.000096
    24  H   -0.188492  -0.000089
    25  H   -0.149292  -0.000513
    26  C    0.774135   0.004525
    27  H   -0.135507   0.000501
    28  H   -0.043214   0.000020
    29  H   -0.092046   0.000012
    30  H   -0.117673   0.000653
    31  H   -0.243759  -0.000348
    32  H   -0.015620   0.000072
    33  H    0.059070   0.000600
    34  H   -0.023465   0.000527
    35  H   -0.016680   0.000492
    36  H    0.021222   0.000757
    37  H   -0.009220   0.000023
    38  O   -0.660843   0.001150
    39  O   -0.550524   0.001537
    40  C    0.431520  -0.000188
    41  C    0.039768  -0.000552
    42  H   -0.031784   0.000017
    43  H   -0.038009   0.000001
    44  H   -0.004223   0.000041
    45  H    0.025633   0.000049
    46  H    0.028231  -0.000472
 Sum of Mulliken charges =  -0.00000   5.00000

 Dipole moment (field-independent basis, Debye):
    X=              9.7038    Y=              0.9251    Z=             -0.9531  Tot=              9.7943
 Quadrupole moment (field-independent basis, Debye-Ang):
   XX=           -188.1171   YY=           -171.2345   ZZ=           -165.0718
   XY=            -13.2531   XZ=              7.3374   YZ=             -1.3749

 Normal termination of Gaussian 16 at Sun Jun 20 19:56:25 2021.
