 Gaussian 16, Revision A.03,

 -----------------------------------------------------------
 #p opt=modredundant freq=noraman ub3lyp jul-cc-pvdz pop=cm5
 -----------------------------------------------------------

 -----
 title
 -----
 Symbolic Z-matrix:
 Charge =  0 Multiplicity = 6

 SCF Done:  E(UB3LYP) =  -3531.42139156     A.U. after   26 cycles
 SCF Done:  E(UB3LYP) =  -3531.42164783     A.U. after   19 cycles
 SCF Done:  E(UB3LYP) =  -3531.40857136     A.U. after   24 cycles
 SCF Done:  E(UB3LYP) =  -3531.41662267     A.U. after   19 cycles
 SCF Done:  E(UB3LYP) =  -3531.42191548     A.U. after   15 cycles
 SCF Done:  E(UB3LYP) =  -3531.42191443     A.U. after   18 cycles
 SCF Done:  E(UB3LYP) =  -3531.42217020     A.U. after   17 cycles
 SCF Done:  E(UB3LYP) =  -3531.42223356     A.U. after   15 cycles
 SCF Done:  E(UB3LYP) =  -3531.42222390     A.U. after   14 cycles
 SCF Done:  E(UB3LYP) =  -3531.42218253     A.U. after   17 cycles
 SCF Done:  E(UB3LYP) =  -3531.42227389     A.U. after   11 cycles
 SCF Done:  E(UB3LYP) =  -3531.42227476     A.U. after   12 cycles
 SCF Done:  E(UB3LYP) =  -3531.42227534     A.U. after   10 cycles
 SCF Done:  E(UB3LYP) =  -3531.42227569     A.U. after   11 cycles
 SCF Done:  E(UB3LYP) =  -3531.42227578     A.U. after   10 cycles
 SCF Done:  E(UB3LYP) =  -3531.42227580     A.U. after   10 cycles
 SCF Done:  E(UB3LYP) =  -3531.42227574     A.U. after   10 cycles
 Optimization completed.
    -- Stationary point found.
 Normal termination of Gaussian 16 at Sun Jun 20 04:38:01 2021.

 ----------------------------------------------------------------------
 #P Geom=AllCheck Guess=TCheck SCRF=Check GenChk UB3LYP/Jul-CC-pVDZ Fre
 q
 ----------------------------------------------------------------------

 Structure from the checkpoint file:  "checkpoint.chk"
 -----
 title
 -----
 Charge =  0 Multiplicity = 6

 SCF Done:  E(UB3LYP) =  -3531.42227574     A.U. after    2 cycles

  Exact polarizability: 321.178  10.195 302.674  17.549   8.605 296.924
 Approx polarizability: 498.189  19.550 469.697  16.729  16.964 484.409

 ******    1 imaginary frequencies (negative Signs) ******

                      1                      2                      3
                      A                      A                      A
 Frequencies --   -168.3101                 9.0708                18.4587
 Red. masses --      8.8730                 8.8696                 7.3073
 Frc consts  --      0.1481                 0.0004                 0.0015
 IR Inten    --    301.5274                 0.4961                 0.7192

                      4                      5                      6
                      A                      A                      A
 Frequencies --     22.4445                27.5819                32.5508
 Red. masses --      5.3601                 6.7503                 4.0311
 Frc consts  --      0.0016                 0.0030                 0.0025
 IR Inten    --      1.3349                 0.9916                 2.1359

                      7                      8                      9
                      A                      A                      A
 Frequencies --     56.5623                67.6494                69.3580
 Red. masses --      4.1507                 3.4147                 4.2480
 Frc consts  --      0.0078                 0.0092                 0.0120
 IR Inten    --      4.1793                 1.0047                 0.4293

                     10                     11                     12
                      A                      A                      A
 Frequencies --     80.9578                88.1120                94.2333
 Red. masses --      7.0082                 9.3926                 6.9862
 Frc consts  --      0.0271                 0.0430                 0.0366
 IR Inten    --      0.5248                 1.4884                11.6594

                     13                     14                     15
                      A                      A                      A
 Frequencies --     97.3694               108.2640               111.2853
 Red. masses --      3.8353                 5.4323                 2.5001
 Frc consts  --      0.0214                 0.0375                 0.0182
 IR Inten    --      0.9458                 0.0231                 0.2825

                     16                     17                     18
                      A                      A                      A
 Frequencies --    119.6129               131.7180               134.0738
 Red. masses --     16.9570                 3.2899                 2.3209
 Frc consts  --      0.1429                 0.0336                 0.0246
 IR Inten    --      2.0002                 0.9187                10.7298

                     19                     20                     21
                      A                      A                      A
 Frequencies --    142.1866               149.4887               182.0598
 Red. masses --      1.8621                 3.4740                 2.0984
 Frc consts  --      0.0222                 0.0457                 0.0410
 IR Inten    --     20.8096                 1.2852                 1.5168

                     22                     23                     24
                      A                      A                      A
 Frequencies --    187.9218               205.1337               218.5884
 Red. masses --      1.6671                 3.2797                 3.4389
 Frc consts  --      0.0347                 0.0813                 0.0968
 IR Inten    --      3.3584                 6.7670                15.6330

                     25                     26                     27
                      A                      A                      A
 Frequencies --    245.8814               256.4098               271.5720
 Red. masses --      3.6209                 1.6889                 3.3526
 Frc consts  --      0.1290                 0.0654                 0.1457
 IR Inten    --      3.9475                 3.2682                 1.4984

                     28                     29                     30
                      A                      A                      A
 Frequencies --    278.7047               299.7798               340.4180
 Red. masses --      4.0205                 3.8820                23.7560
 Frc consts  --      0.1840                 0.2055                 1.6220
 IR Inten    --     10.9205                 7.7917                57.2590

                     31                     32                     33
                      A                      A                      A
 Frequencies --    349.8182               365.9220               380.4847
 Red. masses --      5.4176                 4.5187                35.5808
 Frc consts  --      0.3906                 0.3565                 3.0349
 IR Inten    --      5.7812                 7.1777                87.7989

                     34                     35                     36
                      A                      A                      A
 Frequencies --    397.4440               399.9573               413.4905
 Red. masses --      3.3356                12.2923                 3.0203
 Frc consts  --      0.3104                 1.1585                 0.3043
 IR Inten    --     25.1117                62.1212                 0.7719

                     37                     38                     39
                      A                      A                      A
 Frequencies --    429.1389               448.2537               494.4776
 Red. masses --      3.8756                 3.9744                 2.3283
 Frc consts  --      0.4205                 0.4705                 0.3354
 IR Inten    --     28.7069                 7.2870                 7.6220

                     40                     41                     42
                      A                      A                      A
 Frequencies --    504.0415               527.4377               534.1185
 Red. masses --      2.6258                 3.6596                 3.2586
 Frc consts  --      0.3930                 0.5998                 0.5477
 IR Inten    --      4.1944                27.5103                 0.6776

                     43                     44                     45
                      A                      A                      A
 Frequencies --    609.3829               625.6405               643.9819
 Red. masses --      5.2337                 6.1736                 3.8317
 Frc consts  --      1.1451                 1.4238                 0.9362
 IR Inten    --     47.6820                 8.8163               112.2248

                     46                     47                     48
                      A                      A                      A
 Frequencies --    696.4513               703.9446               756.8986
 Red. masses --      5.9239                 1.6284                 3.8944
 Frc consts  --      1.6929                 0.4754                 1.3145
 IR Inten    --     17.5443                55.9275                 5.3911

                     49                     50                     51
                      A                      A                      A
 Frequencies --    770.8723               802.2557               812.2046
 Red. masses --      2.3043                 1.4722                 2.4482
 Frc consts  --      0.8068                 0.5583                 0.9515
 IR Inten    --      5.6387                12.4686                22.5309

                     52                     53                     54
                      A                      A                      A
 Frequencies --    828.3173               849.1669               867.1178
 Red. masses --      2.7462                 1.2553                 1.7641
 Frc consts  --      1.1102                 0.5333                 0.7815
 IR Inten    --      3.4391                 2.9390                 7.1239

                     55                     56                     57
                      A                      A                      A
 Frequencies --    872.4030               901.4740               917.4216
 Red. masses --      1.7490                 1.6922                 2.3248
 Frc consts  --      0.7843                 0.8103                 1.1528
 IR Inten    --     13.2157                 0.6840                15.1177

                     58                     59                     60
                      A                      A                      A
 Frequencies --    938.9729               956.4350               987.8670
 Red. masses --      1.4771                 2.5921                 1.3917
 Frc consts  --      0.7673                 1.3970                 0.8002
 IR Inten    --      6.5479                20.2727                 5.3813

                     61                     62                     63
                      A                      A                      A
 Frequencies --    988.8118               999.9781              1003.7033
 Red. masses --      1.9793                 1.9961                 1.7373
 Frc consts  --      1.1402                 1.1760                 1.0312
 IR Inten    --     69.5627                 1.9125                 1.6720

                     64                     65                     66
                      A                      A                      A
 Frequencies --   1004.9173              1006.4014              1009.6644
 Red. masses --      1.7299                 2.0383                 1.6183
 Frc consts  --      1.0293                 1.2163                 0.9720
 IR Inten    --      2.8356                 0.9009                47.2811

                     67                     68                     69
                      A                      A                      A
 Frequencies --   1040.0437              1047.8696              1066.1094
 Red. masses --      2.9178                 2.3331                 2.1523
 Frc consts  --      1.8596                 1.5094                 1.4413
 IR Inten    --     38.5192                 4.0609                 2.7329

                     70                     71                     72
                      A                      A                      A
 Frequencies --   1077.9730              1100.4206              1111.0840
 Red. masses --      1.7838                 1.6538                 1.5816
 Frc consts  --      1.2213                 1.1799                 1.1504
 IR Inten    --      4.1438                 7.4669                10.4510

                     73                     74                     75
                      A                      A                      A
 Frequencies --   1130.7127              1133.6874              1161.7643
 Red. masses --      2.5382                 2.2405                 1.8349
 Frc consts  --      1.9119                 1.6966                 1.4592
 IR Inten    --      7.4499                16.6836                25.0344

                     76                     77                     78
                      A                      A                      A
 Frequencies --   1168.0876              1175.5041              1196.8227
 Red. masses --      1.5616                 1.0867                 1.7393
 Frc consts  --      1.2554                 0.8848                 1.4678
 IR Inten    --      1.1509                 0.2094                72.7786

                     79                     80                     81
                      A                      A                      A
 Frequencies --   1204.6735              1212.1362              1230.3247
 Red. masses --      1.2559                 2.3275                 2.1062
 Frc consts  --      1.0739                 2.0148                 1.8784
 IR Inten    --     10.0283                24.8367               205.7783

                     82                     83                     84
                      A                      A                      A
 Frequencies --   1258.8332              1282.1707              1293.0649
 Red. masses --      1.8416                 1.1112                 1.6023
 Frc consts  --      1.7194                 1.0763                 1.5784
 IR Inten    --     26.2950                 8.4766               198.5610

                     85                     86                     87
                      A                      A                      A
 Frequencies --   1318.3017              1328.6041              1334.1484
 Red. masses --      1.5161                 1.4776                 1.8965
 Frc consts  --      1.5524                 1.5367                 1.9889
 IR Inten    --     56.9088                32.8037                18.1912

                     88                     89                     90
                      A                      A                      A
 Frequencies --   1352.3098              1360.3733              1366.3628
 Red. masses --      1.3202                 2.7791                 1.4333
 Frc consts  --      1.4225                 3.0302                 1.5766
 IR Inten    --     96.8083                 0.5445                19.1539

                     91                     92                     93
                      A                      A                      A
 Frequencies --   1376.9939              1385.1712              1388.1723
 Red. masses --      1.2091                 1.5188                 1.8647
 Frc consts  --      1.3508                 1.7169                 2.1171
 IR Inten    --     25.6391                67.1280                84.1624

                     94                     95                     96
                      A                      A                      A
 Frequencies --   1409.3183              1417.6059              1446.8356
 Red. masses --      2.1783                 1.4516                 1.0649
 Frc consts  --      2.5491                 1.7188                 1.3135
 IR Inten    --    357.1463                 3.2530                 7.5236

                     97                     98                     99
                      A                      A                      A
 Frequencies --   1455.6274              1464.7115              1473.8875
 Red. masses --      1.0766                 1.2183                 1.8581
 Frc consts  --      1.3441                 1.5399                 2.3782
 IR Inten    --     19.3000                17.2802                71.5770

                    100                    101                    102
                      A                      A                      A
 Frequencies --   1474.1349              1480.3624              1484.1651
 Red. masses --      1.1019                 1.0891                 1.0532
 Frc consts  --      1.4109                 1.4062                 1.3669
 IR Inten    --     16.5084                 3.0244                 8.0236

                    103                    104                    105
                      A                      A                      A
 Frequencies --   1490.6079              1498.9103              1506.1651
 Red. masses --      1.1367                 1.1291                 1.0868
 Frc consts  --      1.4881                 1.4946                 1.4526
 IR Inten    --      2.8363                13.2856                 8.9709

                    106                    107                    108
                      A                      A                      A
 Frequencies --   1517.8870              1587.5186              1622.2670
 Red. masses --      2.0973                 4.2911                 5.6358
 Frc consts  --      2.8470                 6.3718                 8.7388
 IR Inten    --      3.3259               144.7569                 3.6279

                    109                    110                    111
                      A                      A                      A
 Frequencies --   1639.4819              1765.4526              2996.2475
 Red. masses --      5.6235                11.8286                 1.0478
 Frc consts  --      8.9057                21.7218                 5.5421
 IR Inten    --      6.3937               221.8370                10.8932

                    112                    113                    114
                      A                      A                      A
 Frequencies --   3004.6079              3040.7814              3042.4688
 Red. masses --      1.0447                 1.0625                 1.0358
 Frc consts  --      5.5565                 5.7885                 5.6489
 IR Inten    --      6.7274                20.9754                12.5472

                    115                    116                    117
                      A                      A                      A
 Frequencies --   3058.0230              3061.4712              3061.8178
 Red. masses --      1.0582                 1.0635                 1.0927
 Frc consts  --      5.8304                 5.8728                 6.0352
 IR Inten    --     15.4863                13.5607                 1.3910

                    118                    119                    120
                      A                      A                      A
 Frequencies --   3071.6958              3080.7843              3093.3993
 Red. masses --      1.0861                 1.0845                 1.1003
 Frc consts  --      6.0378                 6.0643                 6.2036
 IR Inten    --      4.5266                 2.0060                10.5933

                    121                    122                    123
                      A                      A                      A
 Frequencies --   3103.8086              3113.8766              3118.7990
 Red. masses --      1.1077                 1.1036                 1.1011
 Frc consts  --      6.2876                 6.3045                 6.3104
 IR Inten    --      6.4547                18.2285                21.9971

                    124                    125                    126
                      A                      A                      A
 Frequencies --   3134.9412              3146.7723              3148.9031
 Red. masses --      1.1048                 1.1002                 1.1000
 Frc consts  --      6.3975                 6.4188                 6.4262
 IR Inten    --     23.2561                 3.6793                10.5161

                    127                    128                    129
                      A                      A                      A
 Frequencies --   3158.5633              3172.0633              3183.5799
 Red. masses --      1.0866                 1.0856                 1.0903
 Frc consts  --      6.3872                 6.4358                 6.5105
 IR Inten    --      9.8443                 0.2565                 7.2799

                    130                    131                    132
                      A                      A                      A
 Frequencies --   3194.0587              3205.0775              3221.1427
 Red. masses --      1.0954                 1.0945                 1.0925
 Frc consts  --      6.5844                 6.6245                 6.6788
 IR Inten    --     12.8125                 2.9475                 4.2458

 - Thermochemistry -
 -------------------
 Temperature   298.150 Kelvin.  Pressure   1.00000 Atm.
 Atom     1 has atomic number  6 and mass  12.00000

 Molecular mass:   434.99839 amu.
 Principal axes and moments of inertia in atomic units:
                           1         2         3
     Eigenvalues --  9109.77315********************
           X            0.99639   0.08371   0.01414
           Y           -0.08396   0.99632   0.01740
           Z           -0.01263  -0.01852   0.99975
 This molecule is an asymmetric top.
 Rotational symmetry number  1.
 Warning -- assumption of classical behavior for rotation
           may cause significant error
 Rotational temperatures (Kelvin)      0.00951     0.00735     0.00643
 Rotational constants (GHZ):           0.19811     0.15320     0.13406
    1 imaginary frequencies ignored.
 Zero-point vibrational energy     939641.9 (Joules/Mol)
                                  224.57980 (Kcal/Mol)
 Warning -- explicit consideration of  42 degrees of freedom as
           vibrations may cause significant error
 Vibrational temperatures:     13.05    26.56    32.29    39.68    46.83
          (Kelvin)             81.38    97.33    99.79   116.48   126.77
                              135.58   140.09   155.77   160.11   172.10
                              189.51   192.90   204.57   215.08   261.94
                              270.38   295.14   314.50   353.77   368.92
                              390.73   400.99   431.32   489.79   503.31
                              526.48   547.43   571.83   575.45   594.92
                              617.44   644.94   711.44   725.20   758.87
                              768.48   876.77   900.16   926.55  1002.04
                             1012.82  1089.01  1109.11  1154.27  1168.58
                             1191.76  1221.76  1247.59  1255.19  1297.02
                             1319.97  1350.97  1376.10  1421.32  1422.68
                             1438.75  1444.11  1445.85  1447.99  1452.68
                             1496.39  1507.65  1533.89  1550.96  1583.26
                             1598.60  1626.84  1631.12  1671.52  1680.62
                             1691.29  1721.96  1733.26  1743.99  1770.16
                             1811.18  1844.76  1860.43  1896.74  1911.56
                             1919.54  1945.67  1957.27  1965.89  1981.19
                             1992.95  1997.27  2027.69  2039.62  2081.67
                             2094.32  2107.39  2120.60  2120.95  2129.91
                             2135.38  2144.65  2156.60  2167.04  2183.90
                             2284.09  2334.08  2358.85  2540.09  4310.93
                             4322.96  4375.01  4377.43  4399.81  4404.77
                             4405.27  4419.49  4432.56  4450.71  4465.69
                             4480.17  4487.26  4510.48  4527.50  4530.57
                             4544.47  4563.89  4580.46  4595.54  4611.39
                             4634.51

 Zero-point correction=                           0.357891 (Hartree/Particle)
 Thermal correction to Energy=                    0.385917
 Thermal correction to Enthalpy=                  0.386861
 Thermal correction to Gibbs Free Energy=         0.292383
 Sum of electronic and zero-point Energies=          -3531.064385
 Sum of electronic and thermal Energies=             -3531.036359
 Sum of electronic and thermal Enthalpies=           -3531.035414
 Sum of electronic and thermal Free Energies=        -3531.129893

                     E (Thermal)             CV                S
                      KCal/Mol        Cal/Mol-Kelvin    Cal/Mol-Kelvin
 Total                  242.167             98.040            198.846
 Electronic               0.000              0.000              3.561
 Translational            0.889              2.981             44.100
 Rotational               0.889              2.981             35.623
 Vibrational            240.389             92.078            115.563
 Vibration     1          0.593              1.987              8.205
 Vibration     2          0.593              1.986              6.793
 Vibration     3          0.593              1.985              6.405
 Vibration     4          0.593              1.984              5.996
 Vibration     5          0.594              1.983              5.668
 Vibration     6          0.596              1.975              4.574
 Vibration     7          0.598              1.970              4.221
 Vibration     8          0.598              1.969              4.171
 Vibration     9          0.600              1.962              3.868
 Vibration    10          0.601              1.958              3.702
 Vibration    11          0.603              1.953              3.570
 Vibration    12          0.603              1.951              3.506
 Vibration    13          0.606              1.943              3.300
 Vibration    14          0.607              1.940              3.246
 Vibration    15          0.609              1.933              3.107
 Vibration    16          0.612              1.922              2.921
 Vibration    17          0.613              1.919              2.887
 Vibration    18          0.616              1.911              2.774
 Vibration    19          0.618              1.903              2.679
 Vibration    20          0.630              1.864              2.307
 Vibration    21          0.633              1.856              2.248
 Vibration    22          0.640              1.833              2.087
 Vibration    23          0.646              1.813              1.971
 Vibration    24          0.660              1.770              1.760
 Vibration    25          0.666              1.752              1.686
 Vibration    26          0.675              1.726              1.586
 Vibration    27          0.679              1.713              1.542
 Vibration    28          0.692              1.674              1.418
 Vibration    29          0.720              1.595              1.210
 Vibration    30          0.727              1.576              1.167
 Vibration    31          0.739              1.542              1.097
 Vibration    32          0.750              1.512              1.037
 Vibration    33          0.764              1.476              0.972
 Vibration    34          0.766              1.470              0.963
 Vibration    35          0.777              1.441              0.914
 Vibration    36          0.790              1.407              0.861
 Vibration    37          0.807              1.365              0.801
 Vibration    38          0.850              1.262              0.672
 Vibration    39          0.859              1.241              0.648
 Vibration    40          0.882              1.189              0.593
 Vibration    41          0.889              1.175              0.578
 Vibration    42          0.968              1.012              0.434

                           ! Non-Optimized Parameters !
 Normal termination of Gaussian 16 at Sun Jun 20 07:45:06 2021.

 ----------------------------------------------------------------------
 #p ub3lyp jul-cc-pvdz pop=cm5 scrf=(pcm,solvent=dichloroethane) guess=
 read geom=allcheck
 ----------------------------------------------------------------------

 Structure from the checkpoint file:  "checkpoint.chk"
 -----
 title
 -----
 Charge =  0 Multiplicity = 6

 SCF Done:  E(UB3LYP) =  -3531.44321394     A.U. after   19 cycles
 Normal termination of Gaussian 16 at Sun Jun 20 08:06:20 2021.
 Gaussian 16:  ES64L-G16RevA.03 25-Dec-2016

 ----------------------------------------------------------------------
 #p ub3lyp jul-cc-pvdz pop=cm5 scrf=(pcm,solvent=water) guess=read geom
 =allcheck
 ----------------------------------------------------------------------

 Structure from the checkpoint file:  "checkpoint.chk"
 -----
 title
 -----
 Charge =  0 Multiplicity = 6

                         Standard orientation:
 ---------------------------------------------------------------------
 Center     Atomic      Atomic             Coordinates (Angstroms)
 Number     Number       Type             X           Y           Z
 ---------------------------------------------------------------------
      1          6           0        2.703906   -1.356433    0.755600
      2          6           0        1.380268   -0.879701    0.806646
      3          6           0        0.819448   -0.577833    2.058112
      4          6           0        1.562271   -0.749347    3.229018
      5          6           0        2.875305   -1.222734    3.168348
      6          6           0        3.444911   -1.522673    1.925029
      7          6           0        0.564912   -0.658573   -0.448276
      8          6           0        1.288291   -0.154961   -1.761661
      9          6           0        1.619206   -1.286092   -2.732772
     10          6           0        0.457070   -2.267831   -2.595215
     11          6           0        0.331345   -2.531825   -1.108863
     12          6           0       -0.829279   -2.971372   -0.485420
     13          6           0       -2.164513   -2.774810   -1.110455
     14          8           0       -0.584438   -0.088293   -0.290737
     15         26           0       -2.129213    0.931526    0.190719
     16         17           0       -3.332813    1.077303   -1.665279
     17          6           0       -0.796004   -3.508663    0.901303
     18         17           0       -1.478208    2.875078    0.990015
     19         17           0       -3.163633   -0.296692    1.739897
     20          1           0       -0.198300   -0.200003    2.121028
     21          1           0        1.109639   -0.504565    4.190691
     22          1           0        3.455679   -1.353514    4.082943
     23          1           0        4.472497   -1.883352    1.864475
     24          1           0        3.174918   -1.586823   -0.198594
     25          1           0        0.517379    0.483195   -2.211538
     26          6           0        2.477884    0.757038   -1.461717
     27          1           0        1.732299   -0.901195   -3.754218
     28          1           0        2.571453   -1.763080   -2.463854
     29          1           0       -0.464389   -1.830717   -3.002563
     30          1           0        0.646117   -3.207539   -3.135638
     31          1           0        1.250862   -2.913313   -0.663556
     32          1           0        0.218183   -3.622997    1.296937
     33          1           0       -1.377445   -2.835630    1.556486
     34          1           0       -1.315238   -4.480164    0.934117
     35          1           0       -2.207914   -3.223742   -2.113585
     36          1           0       -2.976818   -3.173033   -0.493634
     37          1           0       -2.341068   -1.693055   -1.253085
     38          8           0        2.071766    1.889510   -0.875220
     39          8           0        3.629896    0.500540   -1.745337
     40          6           0        3.104778    2.854596   -0.522653
     41          6           0        2.414198    4.068558    0.063133
     42          1           0        3.786953    2.374001    0.192012
     43          1           0        3.675008    3.091880   -1.430680
     44          1           0        3.172169    4.809612    0.355532
     45          1           0        1.740056    4.530562   -0.670522
     46          1           0        1.824838    3.798959    0.949188
 ---------------------------------------------------------------------

 SCF Done:  E(UB3LYP) =  -3531.44691036     A.U. after   17 cycles

 The electronic state is 6-A.
 Alpha  occ. eigenvalues -- -256.20910-101.52521-101.52286-101.52220 -30.20307
 Alpha  occ. eigenvalues --  -26.05673 -26.05480 -26.05460 -19.20634 -19.17760
 Alpha  occ. eigenvalues --  -19.15666 -10.33414 -10.32502 -10.26763 -10.24998
 Alpha  occ. eigenvalues --  -10.22596 -10.22084 -10.21859 -10.20966 -10.20802
 Alpha  occ. eigenvalues --  -10.20784 -10.20657 -10.20555 -10.20553 -10.20457
 Alpha  occ. eigenvalues --  -10.20358 -10.20080 -10.18700  -9.44255  -9.44018
 Alpha  occ. eigenvalues --   -9.43930  -7.20118  -7.19889  -7.19809  -7.19803
 Alpha  occ. eigenvalues --   -7.19799  -7.19569  -7.19545  -7.19478  -7.19460
 Alpha  occ. eigenvalues --   -3.67998  -2.45617  -2.45245  -2.45168  -1.12527
 Alpha  occ. eigenvalues --   -1.07425  -1.04021  -0.88109  -0.86934  -0.83707
 Alpha  occ. eigenvalues --   -0.80398  -0.79688  -0.79478  -0.78996  -0.78182
 Alpha  occ. eigenvalues --   -0.76488  -0.75127  -0.72581  -0.70887  -0.66787
 Alpha  occ. eigenvalues --   -0.64526  -0.62437  -0.61837  -0.59893  -0.57474
 Alpha  occ. eigenvalues --   -0.56560  -0.54837  -0.53146  -0.51494  -0.50490
 Alpha  occ. eigenvalues --   -0.49982  -0.49486  -0.48787  -0.48394  -0.48091
 Alpha  occ. eigenvalues --   -0.47996  -0.47720  -0.47185  -0.46839  -0.46029
 Alpha  occ. eigenvalues --   -0.45291  -0.44890  -0.44158  -0.43470  -0.42670
 Alpha  occ. eigenvalues --   -0.42427  -0.41551  -0.41099  -0.40770  -0.40091
 Alpha  occ. eigenvalues --   -0.39376  -0.38692  -0.37964  -0.37736  -0.37418
 Alpha  occ. eigenvalues --   -0.37160  -0.36991  -0.36297  -0.36004  -0.35992
 Alpha  occ. eigenvalues --   -0.35111  -0.34522  -0.34273  -0.32078  -0.31608
 Alpha  occ. eigenvalues --   -0.31322  -0.31269  -0.30991  -0.30880  -0.30145
 Alpha  occ. eigenvalues --   -0.29906  -0.29150  -0.28607  -0.27245  -0.26246
 Alpha virt. eigenvalues --   -0.11885  -0.03642  -0.03031  -0.01682  -0.01288
 Alpha virt. eigenvalues --   -0.00205  -0.00018   0.00008   0.01448   0.01604
 Alpha virt. eigenvalues --    0.01795   0.01853   0.02399   0.03545   0.03570

  Beta  occ. eigenvalues -- -256.20726-101.52334-101.52109-101.52043 -30.11360
  Beta  occ. eigenvalues --  -25.98102 -25.98083 -25.98059 -19.20634 -19.17207
  Beta  occ. eigenvalues --  -19.15662 -10.33414 -10.32493 -10.26726 -10.24998
  Beta  occ. eigenvalues --  -10.22575 -10.22062 -10.21832 -10.20967 -10.20805
  Beta  occ. eigenvalues --  -10.20789 -10.20654 -10.20557 -10.20551 -10.20459
  Beta  occ. eigenvalues --  -10.20359 -10.20078 -10.18700  -9.44072  -9.43843
  Beta  occ. eigenvalues --   -9.43756  -7.19818  -7.19589  -7.19548  -7.19544
  Beta  occ. eigenvalues --   -7.19502  -7.19326  -7.19319  -7.19241  -7.19237
  Beta  occ. eigenvalues --   -3.47144  -2.23405  -2.23371  -2.23333  -1.12524
  Beta  occ. eigenvalues --   -1.06352  -1.04017  -0.88031  -0.86880  -0.83638
  Beta  occ. eigenvalues --   -0.79218  -0.78987  -0.78428  -0.78244  -0.78103
  Beta  occ. eigenvalues --   -0.76484  -0.75092  -0.72568  -0.70762  -0.66586
  Beta  occ. eigenvalues --   -0.64445  -0.62405  -0.61673  -0.59467  -0.57247
  Beta  occ. eigenvalues --   -0.56048  -0.54697  -0.52374  -0.51440  -0.50237
  Beta  occ. eigenvalues --   -0.49822  -0.49115  -0.48107  -0.47573  -0.46976
  Beta  occ. eigenvalues --   -0.45855  -0.44984  -0.44139  -0.43503  -0.42668
  Beta  occ. eigenvalues --   -0.42417  -0.41575  -0.41138  -0.40751  -0.40099
  Beta  occ. eigenvalues --   -0.39361  -0.38673  -0.38161  -0.37876  -0.37605
  Beta  occ. eigenvalues --   -0.37149  -0.37036  -0.36351  -0.36156  -0.35975
  Beta  occ. eigenvalues --   -0.35966  -0.35842  -0.34934  -0.33457  -0.33218
  Beta  occ. eigenvalues --   -0.32629  -0.32419  -0.32039  -0.31852  -0.30282
  Beta  occ. eigenvalues --   -0.29797  -0.29046  -0.28511  -0.27250  -0.26146
  Beta virt. eigenvalues --   -0.14995  -0.14457  -0.13703  -0.13319  -0.12744
  Beta virt. eigenvalues --   -0.10951  -0.03609  -0.03003  -0.01604  -0.01221
  Beta virt. eigenvalues --   -0.00161   0.00012   0.00037   0.01462   0.01631

 Mulliken charges and spin densities:
               1          2
     1  C   -0.229556  -0.000704
     2  C    3.394034   0.008490
     3  C   -0.688583  -0.023292
     4  C    0.121443   0.006790
     5  C    0.201949  -0.002214
     6  C   -0.042428   0.003175
     7  C   -2.759434  -0.020772
     8  C    0.668264   0.026672
     9  C    0.614473   0.001403
    10  C    0.756169   0.000217
    11  C    0.458836   0.012004
    12  C   -0.300917   0.024859
    13  C    0.173645  -0.002133
    14  O   -0.353326   0.170330
    15  Fe   0.675246   4.053388
    16  Cl  -0.522012   0.243191
    17  C    0.294424  -0.001787
    18  Cl  -0.464554   0.256130
    19  Cl  -0.501939   0.234287
    20  H   -0.279476   0.003123
    21  H   -0.154083  -0.000026
    22  H   -0.156878   0.000047
    23  H   -0.158817   0.000189
    24  H   -0.172685  -0.000092
    25  H   -0.201324  -0.000549
    26  C    0.825784  -0.000891
    27  H   -0.166879   0.000562
    28  H   -0.035899   0.000016
    29  H   -0.064762   0.000151
    30  H   -0.133920   0.000572
    31  H   -0.223405  -0.000856
    32  H    0.018826   0.000021
    33  H    0.101543   0.001833
    34  H    0.009040   0.001301
    35  H    0.048682   0.001422
    36  H   -0.009806  -0.000160
    37  H    0.103750   0.003061
    38  O   -0.684532  -0.000696
    39  O   -0.613487   0.001203
    40  C    0.439884  -0.000114
    41  C    0.042072  -0.000034
    42  H   -0.029650  -0.000009
    43  H   -0.038380   0.000013
    44  H   -0.005784   0.000008
    45  H    0.023323   0.000040
    46  H    0.021129  -0.000169
 Sum of Mulliken charges =  -0.00000   5.00000

 Dipole moment (field-independent basis, Debye):
    X=              7.7185    Y=            -10.0689    Z=             -1.3253  Tot=             12.7560
 Quadrupole moment (field-independent basis, Debye-Ang):
   XX=           -199.0868   YY=           -155.6777   ZZ=           -169.5370
   XY=             16.2476   XZ=             11.2462   YZ=              2.6783

 Normal termination of Gaussian 16 at Sun Jun 20 08:24:55 2021.
