 Gaussian 16, Revision A.03,

 -----------------------------------------------------------
 #p opt=modredundant freq=noraman ub3lyp jul-cc-pvdz pop=cm5
 -----------------------------------------------------------

 -----
 title
 -----
 Symbolic Z-matrix:
 Charge =  0 Multiplicity = 6

 SCF Done:  E(UB3LYP) =  -3531.44440735     A.U. after   24 cycles
 SCF Done:  E(UB3LYP) =  -3531.44392087     A.U. after   18 cycles
 SCF Done:  E(UB3LYP) =  -3531.44263196     A.U. after   18 cycles
 SCF Done:  E(UB3LYP) =  -3531.44272436     A.U. after   17 cycles
 SCF Done:  E(UB3LYP) =  -3531.44459216     A.U. after   12 cycles
 SCF Done:  E(UB3LYP) =  -3531.44429730     A.U. after   17 cycles
 SCF Done:  E(UB3LYP) =  -3531.44489346     A.U. after   17 cycles
 SCF Done:  E(UB3LYP) =  -3531.44496385     A.U. after   15 cycles
 SCF Done:  E(UB3LYP) =  -3531.44504724     A.U. after   14 cycles
 SCF Done:  E(UB3LYP) =  -3531.44507335     A.U. after   13 cycles
 SCF Done:  E(UB3LYP) =  -3531.44509701     A.U. after   13 cycles
 SCF Done:  E(UB3LYP) =  -3531.44509738     A.U. after   11 cycles
 SCF Done:  E(UB3LYP) =  -3531.44509805     A.U. after   11 cycles
 SCF Done:  E(UB3LYP) =  -3531.44509838     A.U. after   12 cycles
 SCF Done:  E(UB3LYP) =  -3531.44509859     A.U. after   11 cycles
 SCF Done:  E(UB3LYP) =  -3531.44509921     A.U. after   11 cycles
 SCF Done:  E(UB3LYP) =  -3531.44509937     A.U. after    9 cycles
 Optimization completed.
    -- Stationary point found.
 Normal termination of Gaussian 16 at Sun Jun 20 17:31:27 2021.

 ----------------------------------------------------------------------
 #P Geom=AllCheck Guess=TCheck SCRF=Check GenChk UB3LYP/Jul-CC-pVDZ Fre
 q
 ----------------------------------------------------------------------

 Structure from the checkpoint file:  "checkpoint.chk"
 -----
 title
 -----
 Charge =  0 Multiplicity = 6

 SCF Done:  E(UB3LYP) =  -3531.44509937     A.U. after    1 cycles

  Exact polarizability: 309.998   9.593 304.557  26.998   0.081 303.780
 Approx polarizability: 478.388  45.393 471.275  55.851  -9.727 486.740

 ******    1 imaginary frequencies (negative Signs) ******

                      1                      2                      3
                      A                      A                      A
 Frequencies --    -13.7236                18.9238                20.1839
 Red. masses --      5.4585                 7.2529                 9.2851
 Frc consts  --      0.0006                 0.0015                 0.0022
 IR Inten    --      0.2012                 0.4046                 0.3836

                      4                      5                      6
                      A                      A                      A
 Frequencies --     29.7081                43.9022                53.0571
 Red. masses --      4.9037                 6.5930                 4.8429
 Frc consts  --      0.0025                 0.0075                 0.0080
 IR Inten    --      2.1818                 1.5512                 0.8415

                      7                      8                      9
                      A                      A                      A
 Frequencies --     61.2639                67.7928                77.2414
 Red. masses --      3.0484                 3.9975                 4.8656
 Frc consts  --      0.0067                 0.0108                 0.0171
 IR Inten    --      0.1641                 1.1024                 0.8947

                     10                     11                     12
                      A                      A                      A
 Frequencies --     80.8552                89.4056                98.3453
 Red. masses --     10.0038                 7.4346                 2.9017
 Frc consts  --      0.0385                 0.0350                 0.0165
 IR Inten    --      0.1366                 2.1875                 0.8207

                     13                     14                     15
                      A                      A                      A
 Frequencies --    104.4256               108.1337               114.7551
 Red. masses --      2.9205                 3.0405                11.0744
 Frc consts  --      0.0188                 0.0209                 0.0859
 IR Inten    --      1.9539                 0.2763                 0.1639

                     16                     17                     18
                      A                      A                      A
 Frequencies --    119.9094               128.2301               149.1937
 Red. masses --     13.6776                 4.0984                 2.9526
 Frc consts  --      0.1159                 0.0397                 0.0387
 IR Inten    --      1.8738                 1.5419                 3.9272

                     19                     20                     21
                      A                      A                      A
 Frequencies --    154.1054               160.5129               183.9895
 Red. masses --      3.3990                 2.6380                 3.9995
 Frc consts  --      0.0476                 0.0400                 0.0798
 IR Inten    --      7.2532                 3.5934                10.4616

                     22                     23                     24
                      A                      A                      A
 Frequencies --    206.9141               214.2847               215.4280
 Red. masses --      3.2818                 3.0233                 1.1476
 Frc consts  --      0.0828                 0.0818                 0.0314
 IR Inten    --      1.0085                 2.1944                 5.2493

                     25                     26                     27
                      A                      A                      A
 Frequencies --    258.2410               266.7664               282.3727
 Red. masses --      1.5230                 3.4725                 4.1683
 Frc consts  --      0.0598                 0.1456                 0.1958
 IR Inten    --      1.8184                24.2314                 2.6357

                     28                     29                     30
                      A                      A                      A
 Frequencies --    317.7832               329.9608               342.8193
 Red. masses --      2.3469                 9.2517                17.1704
 Frc consts  --      0.1396                 0.5935                 1.1889
 IR Inten    --      0.7807                 3.7123                34.8475

                     31                     32                     33
                      A                      A                      A
 Frequencies --    358.3440               380.1754               392.2166
 Red. masses --      5.9511                 3.9099                 2.8591
 Frc consts  --      0.4502                 0.3330                 0.2591
 IR Inten    --     34.1175                 2.6632                10.4177

                     34                     35                     36
                      A                      A                      A
 Frequencies --    399.1787               406.0683               414.0338
 Red. masses --     18.2730                28.9407                 3.0654
 Frc consts  --      1.7155                 2.8116                 0.3096
 IR Inten    --     67.6231                77.4048                 4.6273

                     37                     38                     39
                      A                      A                      A
 Frequencies --    422.5758               446.1376               472.9276
 Red. masses --      3.6835                 3.0026                 3.2908
 Frc consts  --      0.3875                 0.3521                 0.4336
 IR Inten    --     28.8422                 6.0441                 3.1391

                     40                     41                     42
                      A                      A                      A
 Frequencies --    500.7499               513.7110               547.5845
 Red. masses --      2.5929                 2.7738                 3.9164
 Frc consts  --      0.3831                 0.4313                 0.6919
 IR Inten    --     12.7602                 0.7354                18.0197

                     43                     44                     45
                      A                      A                      A
 Frequencies --    573.5585               623.7036               655.9400
 Red. masses --      4.3960                 6.3937                 4.5492
 Frc consts  --      0.8520                 1.4654                 1.1532
 IR Inten    --     62.3160                 2.4075                53.0619

                     46                     47                     48
                      A                      A                      A
 Frequencies --    696.6427               699.1151               753.0134
 Red. masses --      1.6430                 5.4290                 4.4336
 Frc consts  --      0.4698                 1.5634                 1.4812
 IR Inten    --     49.0369                18.4503                 6.3373

                     49                     50                     51
                      A                      A                      A
 Frequencies --    773.6115               782.8527               804.9491
 Red. masses --      2.3376                 2.2016                 1.1455
 Frc consts  --      0.8243                 0.7950                 0.4373
 IR Inten    --     28.7926                 2.5357                 1.7938

                     52                     53                     54
                      A                      A                      A
 Frequencies --    831.3775               842.1527               853.2007
 Red. masses --      4.3663                 1.5008                 1.2513
 Frc consts  --      1.7781                 0.6271                 0.5367
 IR Inten    --      8.9214                21.2404                 0.6985

                     55                     56                     57
                      A                      A                      A
 Frequencies --    865.0580               896.9847               908.4611
 Red. masses --      2.8198                 2.1459                 2.1574
 Frc consts  --      1.2433                 1.0172                 1.0491
 IR Inten    --     25.9995                 2.5513                15.8777

                     58                     59                     60
                      A                      A                      A
 Frequencies --    959.1480               962.8517               974.6726
 Red. masses --      1.4127                 1.5383                 2.9483
 Frc consts  --      0.7657                 0.8403                 1.6502
 IR Inten    --      1.3690                 4.4394                20.5135

                     61                     62                     63
                      A                      A                      A
 Frequencies --    990.2330               992.7804               999.2565
 Red. masses --      2.0363                 1.4874                 1.8371
 Frc consts  --      1.1764                 0.8637                 1.0808
 IR Inten    --     32.5130                 6.1302                 4.4914

                     64                     65                     66
                      A                      A                      A
 Frequencies --   1003.5841              1014.7079              1016.5783
 Red. masses --      2.5254                 1.3895                 1.9767
 Frc consts  --      1.4986                 0.8429                 1.2036
 IR Inten    --      0.5010                 0.8525                 0.2672

                     67                     68                     69
                      A                      A                      A
 Frequencies --   1036.1474              1046.7309              1077.1089
 Red. masses --      2.6146                 2.4423                 2.1851
 Frc consts  --      1.6539                 1.5766                 1.4936
 IR Inten    --     40.0303                 2.8586                 2.2299

                     70                     71                     72
                      A                      A                      A
 Frequencies --   1094.6743              1096.1777              1116.9654
 Red. masses --      1.8027                 2.1554                 1.5767
 Frc consts  --      1.2727                 1.5259                 1.1590
 IR Inten    --      2.7540                16.0395                 7.2527

                     73                     74                     75
                      A                      A                      A
 Frequencies --   1133.1220              1136.9802              1164.0094
 Red. masses --      2.1691                 2.1408                 1.6723
 Frc consts  --      1.6409                 1.6306                 1.3350
 IR Inten    --     15.3358                11.6942                90.1492

                     76                     77                     78
                      A                      A                      A
 Frequencies --   1169.6504              1179.4475              1205.4993
 Red. masses --      1.5838                 1.0854                 1.5654
 Frc consts  --      1.2767                 0.8896                 1.3403
 IR Inten    --     13.3903                 1.3916                58.1539

                     79                     80                     81
                      A                      A                      A
 Frequencies --   1209.6370              1227.0231              1254.4630
 Red. masses --      1.3040                 1.9266                 1.9593
 Frc consts  --      1.1242                 1.7090                 1.8167
 IR Inten    --     68.7314               139.0382                29.0312

                     82                     83                     84
                      A                      A                      A
 Frequencies --   1277.8602              1285.0967              1322.6468
 Red. masses --      2.0811                 1.1658                 1.3840
 Frc consts  --      2.0022                 1.1344                 1.4265
 IR Inten    --    177.6743                13.3978                 6.0463

                     85                     86                     87
                      A                      A                      A
 Frequencies --   1330.5109              1338.2853              1342.9931
 Red. masses --      1.5970                 1.5869                 1.6865
 Frc consts  --      1.6657                 1.6745                 1.7921
 IR Inten    --    104.4276                37.1675                27.4181

                     88                     89                     90
                      A                      A                      A
 Frequencies --   1366.3854              1371.5482              1377.1108
 Red. masses --      1.6147                 2.4474                 1.3359
 Frc consts  --      1.7762                 2.7126                 1.4927
 IR Inten    --      6.5829                11.3627                 2.7496

                     91                     92                     93
                      A                      A                      A
 Frequencies --   1381.2838              1405.8358              1410.5768
 Red. masses --      1.3748                 1.3842                 1.3274
 Frc consts  --      1.5454                 1.6118                 1.5561
 IR Inten    --     24.2416                 6.2110                17.7586

                     94                     95                     96
                      A                      A                      A
 Frequencies --   1415.7364              1461.1959              1466.0342
 Red. masses --      1.4066                 1.0925                 1.9367
 Frc consts  --      1.6610                 1.3743                 2.4525
 IR Inten    --     13.0573                 9.0202                29.6576

                     97                     98                     99
                      A                      A                      A
 Frequencies --   1467.4923              1474.0112              1480.6759
 Red. masses --      1.1486                 1.0387                 1.0839
 Frc consts  --      1.4574                 1.3296                 1.4001
 IR Inten    --     10.7292                 4.9644                 2.9920

                    100                    101                    102
                      A                      A                      A
 Frequencies --   1481.6629              1486.0128              1488.9464
 Red. masses --      1.0495                 1.0545                 1.0943
 Frc consts  --      1.3575                 1.3719                 1.4293
 IR Inten    --     14.6559                 1.8640                 8.1480

                    103                    104                    105
                      A                      A                      A
 Frequencies --   1492.2760              1504.3801              1518.0077
 Red. masses --      1.0898                 1.0835                 2.1573
 Frc consts  --      1.4299                 1.4447                 2.9289
 IR Inten    --     10.5127                 6.2879                13.5062

                    106                    107                    108
                      A                      A                      A
 Frequencies --   1549.0243              1619.0444              1641.3463
 Red. masses --      6.4289                 5.4113                 5.6413
 Frc consts  --      9.0887                 8.3574                 8.9543
 IR Inten    --    656.2957                32.6940                42.7649

                    109                    110                    111
                      A                      A                      A
 Frequencies --   1709.2653              1768.6742              3016.5399
 Red. masses --      6.3654                11.3996                 1.0391
 Frc consts  --     10.9570                21.0105                 5.5708
 IR Inten    --     74.4719               214.0797                12.3514

                    112                    113                    114
                      A                      A                      A
 Frequencies --   3026.7755              3033.0149              3042.1514
 Red. masses --      1.0449                 1.0651                 1.0356
 Frc consts  --      5.6401                 5.7728                 5.6468
 IR Inten    --     15.3045                32.5348                15.5003

                    115                    116                    117
                      A                      A                      A
 Frequencies --   3062.6645              3065.5666              3074.3418
 Red. masses --      1.0582                 1.0649                 1.0962
 Frc consts  --      5.8479                 5.8965                 6.1045
 IR Inten    --     12.3969                28.6196                 7.7422

                    118                    119                    120
                      A                      A                      A
 Frequencies --   3084.0093              3086.1597              3088.9293
 Red. masses --      1.0940                 1.0870                 1.0925
 Frc consts  --      6.1308                 6.0996                 6.1419
 IR Inten    --      8.8258                 2.2987                 8.0903

                    121                    122                    123
                      A                      A                      A
 Frequencies --   3109.2673              3118.8939              3119.1603
 Red. masses --      1.1069                 1.1022                 1.1013
 Frc consts  --      6.3051                 6.3171                 6.3131
 IR Inten    --      7.3615                14.9896                 8.3894

                    124                    125                    126
                      A                      A                      A
 Frequencies --   3122.3219              3129.4139              3138.1660
 Red. masses --      1.0976                 1.0898                 1.1052
 Frc consts  --      6.3042                 6.2882                 6.4128
 IR Inten    --      3.6370                30.0157                17.5494

                    127                    128                    129
                      A                      A                      A
 Frequencies --   3142.0507              3175.6855              3189.6891
 Red. masses --      1.0982                 1.0864                 1.0912
 Frc consts  --      6.3879                 6.4554                 6.5411
 IR Inten    --     21.8851                 1.0754                 6.9931

                    130                    131                    132
                      A                      A                      A
 Frequencies --   3197.9894              3221.1400              3228.9430
 Red. masses --      1.0964                 1.0936                 1.0933
 Frc consts  --      6.6066                 6.6853                 6.7158
 IR Inten    --      8.6485                 4.1357                 7.9591

 - Thermochemistry -
 -------------------
 Temperature   298.150 Kelvin.  Pressure   1.00000 Atm.
 Atom     1 has atomic number  6 and mass  12.00000

 Molecular mass:   434.99839 amu.
 Principal axes and moments of inertia in atomic units:
                           1         2         3
     Eigenvalues --  9889.82644********************
           X            0.99096  -0.13402   0.00607
           Y            0.13376   0.99051   0.03168
           Z           -0.01026  -0.03058   0.99948
 This molecule is an asymmetric top.
 Rotational symmetry number  1.
 Warning -- assumption of classical behavior for rotation
           may cause significant error
 Rotational temperatures (Kelvin)      0.00876     0.00780     0.00670
 Rotational constants (GHZ):           0.18248     0.16247     0.13953
    1 imaginary frequencies ignored.
 Zero-point vibrational energy     944338.5 (Joules/Mol)
                                  225.70232 (Kcal/Mol)
 Warning -- explicit consideration of  42 degrees of freedom as
           vibrations may cause significant error
 Vibrational temperatures:     27.23    29.04    42.74    63.17    76.34
          (Kelvin)             88.15    97.54   111.13   116.33   128.63
                              141.50   150.25   155.58   165.11   172.52
                              184.49   214.66   221.72   230.94   264.72
                              297.70   308.31   309.95   371.55   383.82
                              406.27   457.22   474.74   493.24   515.58
                              546.99   564.31   574.33   584.24   595.70
                              607.99   641.89   680.44   720.47   739.12
                              787.85   825.22   897.37   943.75  1002.31
                             1005.87  1083.42  1113.05  1126.35  1158.14
                             1196.17  1211.67  1227.57  1244.63  1290.56
                             1307.07  1380.00  1385.33  1402.34  1424.72
                             1428.39  1437.71  1443.93  1459.94  1462.63
                             1490.79  1506.01  1549.72  1574.99  1577.16
                             1607.06  1630.31  1635.86  1674.75  1682.87
                             1696.96  1734.44  1740.40  1765.41  1804.89
                             1838.56  1848.97  1902.99  1914.31  1925.49
                             1932.27  1965.92  1973.35  1981.36  1987.36
                             2022.68  2029.51  2036.93  2102.34  2109.30
                             2111.39  2120.77  2130.36  2131.78  2138.04
                             2142.26  2147.05  2164.47  2184.07  2228.70
                             2329.44  2361.53  2459.25  2544.73  4340.13
                             4354.85  4363.83  4376.98  4406.49  4410.67
                             4423.29  4437.20  4440.30  4444.28  4473.54
                             4487.39  4487.78  4492.32  4502.53  4515.12
                             4520.71  4569.10  4589.25  4601.19  4634.50
                             4645.73

 Zero-point correction=                           0.359680 (Hartree/Particle)
 Thermal correction to Energy=                    0.387290
 Thermal correction to Enthalpy=                  0.388234
 Thermal correction to Gibbs Free Energy=         0.296659
 Sum of electronic and zero-point Energies=          -3531.085420
 Sum of electronic and thermal Energies=             -3531.057810
 Sum of electronic and thermal Enthalpies=           -3531.056866
 Sum of electronic and thermal Free Energies=        -3531.148440

                     E (Thermal)             CV                S
                      KCal/Mol        Cal/Mol-Kelvin    Cal/Mol-Kelvin
 Total                  243.028             97.665            192.735
 Electronic               0.000              0.000              3.561
 Translational            0.889              2.981             44.100
 Rotational               0.889              2.981             35.606
 Vibrational            241.250             91.704            109.468
 Vibration     1          0.593              1.986              6.744
 Vibration     2          0.593              1.986              6.616
 Vibration     3          0.593              1.984              5.849
 Vibration     4          0.595              1.980              5.075
 Vibration     5          0.596              1.976              4.700
 Vibration     6          0.597              1.973              4.416
 Vibration     7          0.598              1.970              4.216
 Vibration     8          0.599              1.964              3.960
 Vibration     9          0.600              1.962              3.870
 Vibration    10          0.602              1.957              3.673
 Vibration    11          0.604              1.950              3.487
 Vibration    12          0.605              1.946              3.370
 Vibration    13          0.606              1.943              3.302
 Vibration    14          0.608              1.937              3.187
 Vibration    15          0.609              1.933              3.102
 Vibration    16          0.611              1.925              2.972
 Vibration    17          0.618              1.904              2.682
 Vibration    18          0.620              1.898              2.621
 Vibration    19          0.622              1.891              2.544
 Vibration    20          0.631              1.862              2.288
 Vibration    21          0.641              1.830              2.071
 Vibration    22          0.644              1.819              2.007
 Vibration    23          0.645              1.818              1.997
 Vibration    24          0.667              1.749              1.674
 Vibration    25          0.672              1.734              1.617
 Vibration    26          0.681              1.706              1.519
 Vibration    27          0.704              1.640              1.321
 Vibration    28          0.713              1.616              1.260
 Vibration    29          0.722              1.590              1.199
 Vibration    30          0.733              1.558              1.129
 Vibration    31          0.750              1.512              1.038
 Vibration    32          0.760              1.487              0.992
 Vibration    33          0.765              1.472              0.966
 Vibration    34          0.771              1.457              0.941
 Vibration    35          0.778              1.440              0.912
 Vibration    36          0.785              1.421              0.883
 Vibration    37          0.805              1.369              0.808
 Vibration    38          0.830              1.310              0.729
 Vibration    39          0.856              1.248              0.656
 Vibration    40          0.869              1.220              0.625
 Vibration    41          0.903              1.145              0.549
 Vibration    42          0.930              1.088              0.497

                           ! Non-Optimized Parameters !
 Normal termination of Gaussian 16 at Sun Jun 20 20:32:09 2021.

 ----------------------------------------------------------------------
 #p ub3lyp jul-cc-pvdz pop=cm5 scrf=(pcm,solvent=dichloroethane) guess=
 read geom=allcheck
 ----------------------------------------------------------------------

 Structure from the checkpoint file:  "checkpoint.chk"
 -----
 title
 -----
 Charge =  0 Multiplicity = 6

 SCF Done:  E(UB3LYP) =  -3531.46210254     A.U. after   17 cycles
 Normal termination of Gaussian 16 at Sun Jun 20 20:51:03 2021.
 Gaussian 16:  ES64L-G16RevA.03 25-Dec-2016

 ----------------------------------------------------------------------
 #p ub3lyp jul-cc-pvdz pop=cm5 scrf=(pcm,solvent=water) guess=read geom
 =allcheck
 ----------------------------------------------------------------------

 Structure from the checkpoint file:  "checkpoint.chk"
 -----
 title
 -----
 Charge =  0 Multiplicity = 6

                         Standard orientation:
 ---------------------------------------------------------------------
 Center     Atomic      Atomic             Coordinates (Angstroms)
 Number     Number       Type             X           Y           Z
 ---------------------------------------------------------------------
      1          6           0        2.850310    0.520105    1.242901
      2          6           0        1.718114   -0.260205    0.922718
      3          6           0        1.325581   -1.289542    1.807572
      4          6           0        2.053883   -1.542062    2.965151
      5          6           0        3.178386   -0.764574    3.269316
      6          6           0        3.568046    0.269023    2.411007
      7          6           0        0.897614   -0.009139   -0.275318
      8          6           0        1.256195    1.033495   -1.343377
      9          6           0        2.588196    0.812153   -2.083494
     10          6           0        2.551113   -0.511678   -2.866624
     11          6           0        2.207512   -1.662040   -1.961168
     12          6           0        1.058572   -2.368263   -1.926702
     13          6           0       -0.093599   -2.185153   -2.875804
     14          8           0       -0.226258   -0.561321   -0.385868
     15         26           0       -2.066457   -0.537041    0.366222
     16         17           0       -3.382352    0.099029   -1.273792
     17          6           0        0.890233   -3.508105   -0.958712
     18         17           0       -1.981099    0.879489    2.049983
     19         17           0       -2.455227   -2.604380    1.032072
     20          1           0        0.446374   -1.889092    1.581918
     21          1           0        1.739615   -2.340284    3.637989
     22          1           0        3.745922   -0.959558    4.180786
     23          1           0        4.431862    0.888070    2.655082
     24          1           0        3.153962    1.347922    0.607744
     25          1           0        0.432166    0.958137   -2.063793
     26          6           0        1.153570    2.450853   -0.747118
     27          1           0        2.746683    1.660334   -2.763762
     28          1           0        3.430805    0.817863   -1.383081
     29          1           0        1.833127   -0.426611   -3.693006
     30          1           0        3.538805   -0.676362   -3.324974
     31          1           0        2.987655   -1.937892   -1.244741
     32          1           0        1.756973   -3.617900   -0.294766
     33          1           0       -0.017528   -3.380871   -0.350149
     34          1           0        0.759050   -4.453224   -1.510251
     35          1           0       -0.191685   -3.083715   -3.506512
     36          1           0       -1.041343   -2.086102   -2.328682
     37          1           0        0.009331   -1.319082   -3.537705
     38          8           0       -0.127313    2.805892   -0.617846
     39          8           0        2.102242    3.149122   -0.458378
     40          6           0       -0.393911    4.119150   -0.035109
     41          6           0       -1.888844    4.350035   -0.094753
     42          1           0       -0.012634    4.109607    0.994751
     43          1           0        0.173801    4.864825   -0.606807
     44          1           0       -2.117884    5.330995    0.346081
     45          1           0       -2.247297    4.344199   -1.133172
     46          1           0       -2.427571    3.577590    0.468635
 ---------------------------------------------------------------------

 SCF Done:  E(UB3LYP) =  -3531.46529610     A.U. after   14 cycles

 The electronic state is 6-A.
 Alpha  occ. eigenvalues -- -256.21713-101.52949-101.52878-101.52816 -30.21089
 Alpha  occ. eigenvalues --  -26.06548 -26.06232 -26.06189 -19.21149 -19.19821
 Alpha  occ. eigenvalues --  -19.16261 -10.34238 -10.33668 -10.25217 -10.23393
 Alpha  occ. eigenvalues --  -10.22979 -10.22114 -10.22098 -10.21987 -10.21292
 Alpha  occ. eigenvalues --  -10.21286 -10.20687 -10.20476 -10.19421 -10.18731
 Alpha  occ. eigenvalues --  -10.18555 -10.18359 -10.18206  -9.44657  -9.44598
 Alpha  occ. eigenvalues --   -9.44548  -7.20527  -7.20468  -7.20416  -7.20224
 Alpha  occ. eigenvalues --   -7.20192  -7.20154  -7.20136  -7.20096  -7.20093
 Alpha  occ. eigenvalues --   -3.68733  -2.46495  -2.45904  -2.45817  -1.13093
 Alpha  occ. eigenvalues --   -1.10279  -1.04622  -0.88739  -0.84954  -0.82223
 Alpha  occ. eigenvalues --   -0.80919  -0.80172  -0.80126  -0.79117  -0.78592
 Alpha  occ. eigenvalues --   -0.77394  -0.74998  -0.69885  -0.69368  -0.67433
 Alpha  occ. eigenvalues --   -0.64777  -0.63041  -0.61805  -0.59992  -0.57802
 Alpha  occ. eigenvalues --   -0.56502  -0.53767  -0.52804  -0.52068  -0.50933
 Alpha  occ. eigenvalues --   -0.50295  -0.49471  -0.49165  -0.48816  -0.48698
 Alpha  occ. eigenvalues --   -0.48397  -0.47398  -0.47136  -0.46846  -0.45844
 Alpha  occ. eigenvalues --   -0.45351  -0.45130  -0.44322  -0.43184  -0.42656
 Alpha  occ. eigenvalues --   -0.42468  -0.40979  -0.40536  -0.39977  -0.39373
 Alpha  occ. eigenvalues --   -0.38864  -0.38459  -0.37981  -0.37815  -0.37492
 Alpha  occ. eigenvalues --   -0.37252  -0.36967  -0.36654  -0.36343  -0.35153
 Alpha  occ. eigenvalues --   -0.34972  -0.34670  -0.33342  -0.32595  -0.32238
 Alpha  occ. eigenvalues --   -0.31759  -0.31693  -0.31550  -0.31346  -0.30442
 Alpha  occ. eigenvalues --   -0.30246  -0.29901  -0.28811  -0.28030  -0.24698
 Alpha virt. eigenvalues --   -0.11438  -0.03633  -0.02313  -0.01640  -0.00733
 Alpha virt. eigenvalues --   -0.00118  -0.00003   0.00107   0.00650   0.01535
 Alpha virt. eigenvalues --    0.01713   0.01929   0.02286   0.02640   0.03278

  Beta  occ. eigenvalues -- -256.21528-101.52749-101.52686-101.52623 -30.12152
  Beta  occ. eigenvalues --  -25.98961 -25.98848 -25.98816 -19.21149 -19.19480
  Beta  occ. eigenvalues --  -19.16257 -10.34235 -10.33637 -10.25217 -10.23380
  Beta  occ. eigenvalues --  -10.22967 -10.22110 -10.22091 -10.21984 -10.21293
  Beta  occ. eigenvalues --  -10.21288 -10.20673 -10.20474 -10.19421 -10.18730
  Beta  occ. eigenvalues --  -10.18538 -10.18359 -10.18207  -9.44461  -9.44409
  Beta  occ. eigenvalues --   -9.44360  -7.20208  -7.20152  -7.20106  -7.19941
  Beta  occ. eigenvalues --   -7.19924  -7.19891  -7.19878  -7.19835  -7.19829
  Beta  occ. eigenvalues --   -3.47890  -2.24200  -2.24084  -2.24030  -1.13084
  Beta  occ. eigenvalues --   -1.09621  -1.04616  -0.88705  -0.84902  -0.82175
  Beta  occ. eigenvalues --   -0.79655  -0.79090  -0.78807  -0.78773  -0.78572
  Beta  occ. eigenvalues --   -0.77386  -0.74961  -0.69867  -0.69258  -0.67334
  Beta  occ. eigenvalues --   -0.64744  -0.63014  -0.61608  -0.59639  -0.57648
  Beta  occ. eigenvalues --   -0.55867  -0.53312  -0.52682  -0.51945  -0.50709
  Beta  occ. eigenvalues --   -0.49890  -0.49222  -0.47555  -0.46942  -0.46684
  Beta  occ. eigenvalues --   -0.45397  -0.45295  -0.44316  -0.43203  -0.42636
  Beta  occ. eigenvalues --   -0.42462  -0.40999  -0.40522  -0.39970  -0.39248
  Beta  occ. eigenvalues --   -0.38878  -0.38614  -0.38363  -0.37872  -0.37486
  Beta  occ. eigenvalues --   -0.37263  -0.36962  -0.36568  -0.36560  -0.36513
  Beta  occ. eigenvalues --   -0.36334  -0.35075  -0.33870  -0.33663  -0.33476
  Beta  occ. eigenvalues --   -0.33004  -0.32770  -0.32396  -0.31640  -0.30836
  Beta  occ. eigenvalues --   -0.30108  -0.30003  -0.28925  -0.28017  -0.24600
  Beta virt. eigenvalues --   -0.15764  -0.15283  -0.14447  -0.13979  -0.13877
  Beta virt. eigenvalues --   -0.10429  -0.03602  -0.02281  -0.01509  -0.00667
  Beta virt. eigenvalues --   -0.00076   0.00039   0.00159   0.00798   0.01560

 Mulliken charges and spin densities:
               1          2
     1  C   -0.126664   0.004017
     2  C    3.188511  -0.002823
     3  C   -0.694522  -0.003914
     4  C    0.114270   0.000844
     5  C    0.277003   0.007574
     6  C   -0.176593  -0.001298
     7  C   -1.856773  -0.008814
     8  C    0.265880   0.012906
     9  C    0.615568   0.003146
    10  C    0.549749  -0.001056
    11  C    0.144232   0.010515
    12  C   -0.003294   0.013750
    13  C    0.179356  -0.001573
    14  O   -0.305274   0.099815
    15  Fe   0.740252   4.069406
    16  Cl  -0.495817   0.262182
    17  C    0.167888  -0.002377
    18  Cl  -0.464102   0.266105
    19  Cl  -0.463068   0.261250
    20  H   -0.257820  -0.000117
    21  H   -0.160333   0.000020
    22  H   -0.143162  -0.000105
    23  H   -0.153760   0.000097
    24  H   -0.188477  -0.000096
    25  H   -0.155181  -0.000742
    26  C    0.793360   0.005559
    27  H   -0.136273   0.000417
    28  H   -0.045934   0.000007
    29  H   -0.089218   0.000002
    30  H   -0.120601   0.000851
    31  H   -0.241619  -0.000494
    32  H   -0.020752   0.000069
    33  H    0.063725   0.000871
    34  H   -0.028970   0.000674
    35  H   -0.017429   0.000650
    36  H    0.019440   0.000939
    37  H   -0.009096  -0.000001
    38  O   -0.666694   0.001516
    39  O   -0.550209   0.001394
    40  C    0.433757   0.000074
    41  C    0.040706  -0.000806
    42  H   -0.031435  -0.000017
    43  H   -0.039365   0.000005
    44  H   -0.004717   0.000050
    45  H    0.025130   0.000058
    46  H    0.028323  -0.000530
 Sum of Mulliken charges =  -0.00000   5.00000

 Dipole moment (field-independent basis, Debye):
    X=              9.6677    Y=              0.8881    Z=             -1.2041  Tot=              9.7828
 Quadrupole moment (field-independent basis, Debye-Ang):
   XX=           -186.8292   YY=           -171.4079   ZZ=           -165.7034
   XY=            -13.2986   XZ=              8.2986   YZ=             -1.6989

 Normal termination of Gaussian 16 at Sun Jun 20 21:08:21 2021.
