 Gaussian 16, Revision A.03,

 -----------------------------------------------------------
 #p opt=modredundant freq=noraman ub3lyp jul-cc-pvdz pop=cm5
 -----------------------------------------------------------

 -----
 title
 -----
 Symbolic Z-matrix:
 Charge =  0 Multiplicity = 6

 SCF Done:  E(UB3LYP) =  -3531.44219576     A.U. after   25 cycles
 SCF Done:  E(UB3LYP) =  -3531.44282153     A.U. after   15 cycles
 SCF Done:  E(UB3LYP) =  -3531.43784576     A.U. after   23 cycles
 SCF Done:  E(UB3LYP) =  -3531.44189552     A.U. after   17 cycles
 SCF Done:  E(UB3LYP) =  -3531.44310601     A.U. after   11 cycles
 SCF Done:  E(UB3LYP) =  -3531.44334365     A.U. after   16 cycles
 SCF Done:  E(UB3LYP) =  -3531.44335169     A.U. after   15 cycles
 SCF Done:  E(UB3LYP) =  -3531.44345302     A.U. after   15 cycles
 SCF Done:  E(UB3LYP) =  -3531.44346099     A.U. after   13 cycles
 SCF Done:  E(UB3LYP) =  -3531.44347454     A.U. after   14 cycles
 SCF Done:  E(UB3LYP) =  -3531.44399520     A.U. after   13 cycles
 SCF Done:  E(UB3LYP) =  -3531.44399565     A.U. after   10 cycles
 SCF Done:  E(UB3LYP) =  -3531.44399614     A.U. after   11 cycles
 SCF Done:  E(UB3LYP) =  -3531.44399665     A.U. after   11 cycles
 SCF Done:  E(UB3LYP) =  -3531.44399719     A.U. after   11 cycles
 SCF Done:  E(UB3LYP) =  -3531.44399756     A.U. after   10 cycles
 SCF Done:  E(UB3LYP) =  -3531.44399774     A.U. after    8 cycles
 Optimization completed.
    -- Stationary point found.
 Normal termination of Gaussian 16 at Sun Jun 20 20:50:35 2021.

 ----------------------------------------------------------------------
 #P Geom=AllCheck Guess=TCheck SCRF=Check GenChk UB3LYP/Jul-CC-pVDZ Fre
 q
 ----------------------------------------------------------------------

 Structure from the checkpoint file:  "checkpoint.chk"
 -----
 title
 -----
 Charge =  0 Multiplicity = 6

 SCF Done:  E(UB3LYP) =  -3531.44399774     A.U. after    2 cycles

  Exact polarizability: 316.149  14.118 310.858  16.024   4.246 297.282
 Approx polarizability: 481.536  48.806 472.139  18.001  -6.918 491.784

 ******    1 imaginary frequencies (negative Signs) ******

                      1                      2                      3
                      A                      A                      A
 Frequencies --    -13.6622                14.3448                22.4460
 Red. masses --      6.4693                 5.6856                 4.6754
 Frc consts  --      0.0007                 0.0007                 0.0014
 IR Inten    --      0.2918                 0.7074                 0.8732

                      4                      5                      6
                      A                      A                      A
 Frequencies --     28.8854                46.8466                50.2828
 Red. masses --      8.1604                 4.3842                 4.7721
 Frc consts  --      0.0040                 0.0057                 0.0071
 IR Inten    --      0.3434                 0.5767                 1.0406

                      7                      8                      9
                      A                      A                      A
 Frequencies --     57.6995                61.6993                78.1993
 Red. masses --      5.0068                 3.4299                 7.7372
 Frc consts  --      0.0098                 0.0077                 0.0279
 IR Inten    --      1.0283                 1.6215                 0.1707

                     10                     11                     12
                      A                      A                      A
 Frequencies --     85.7657                89.2180                98.7923
 Red. masses --      8.7041                 7.9420                 2.7424
 Frc consts  --      0.0377                 0.0372                 0.0158
 IR Inten    --      0.0753                 4.4128                 0.1427

                     13                     14                     15
                      A                      A                      A
 Frequencies --    101.8593               107.5166               117.2482
 Red. masses --      3.8459                 3.8314                 9.3465
 Frc consts  --      0.0235                 0.0261                 0.0757
 IR Inten    --      1.1047                 0.4781                 0.0229

                     16                     17                     18
                      A                      A                      A
 Frequencies --    122.4152               126.4100               143.3721
 Red. masses --      3.2315                 5.6236                 1.6274
 Frc consts  --      0.0285                 0.0529                 0.0197
 IR Inten    --      0.9949                 2.3288                 1.1604

                     19                     20                     21
                      A                      A                      A
 Frequencies --    145.8495               169.5543               183.7388
 Red. masses --      3.8074                 7.3176                 1.2623
 Frc consts  --      0.0477                 0.1239                 0.0251
 IR Inten    --      4.1325                15.9314                 6.3291

                     22                     23                     24
                      A                      A                      A
 Frequencies --    199.2483               205.9183               218.7745
 Red. masses --      4.0451                 2.4036                 2.7731
 Frc consts  --      0.0946                 0.0600                 0.0782
 IR Inten    --      3.4600                 1.0940                 6.1656

                     25                     26                     27
                      A                      A                      A
 Frequencies --    258.3555               270.0301               289.7033
 Red. masses --      1.6191                 3.9852                 4.3156
 Frc consts  --      0.0637                 0.1712                 0.2134
 IR Inten    --      4.0006                52.3316                 6.3189

                     28                     29                     30
                      A                      A                      A
 Frequencies --    306.2261               314.2637               342.8524
 Red. masses --      4.3488                 3.0300                24.0903
 Frc consts  --      0.2403                 0.1763                 1.6684
 IR Inten    --      6.6827                 1.6701                49.2225

                     31                     32                     33
                      A                      A                      A
 Frequencies --    354.5642               384.1312               394.3040
 Red. masses --      5.0930                 4.1580                 3.0931
 Frc consts  --      0.3772                 0.3615                 0.2833
 IR Inten    --      2.7361                11.3963                15.7310

                     34                     35                     36
                      A                      A                      A
 Frequencies --    399.0086               401.9180               410.6927
 Red. masses --     16.7424                25.4829                 2.8661
 Frc consts  --      1.5705                 2.4253                 0.2848
 IR Inten    --     73.0267                71.2660                 1.0323

                     37                     38                     39
                      A                      A                      A
 Frequencies --    423.4326               450.4617               478.0662
 Red. masses --      3.8163                 3.1719                 2.9747
 Frc consts  --      0.4031                 0.3792                 0.4006
 IR Inten    --     38.9617                 1.9488                 5.1844

                     40                     41                     42
                      A                      A                      A
 Frequencies --    499.0071               516.0334               542.4804
 Red. masses --      2.9228                 2.9885                 3.5665
 Frc consts  --      0.4288                 0.4689                 0.6184
 IR Inten    --     10.5003                 3.4538                22.0960

                     43                     44                     45
                      A                      A                      A
 Frequencies --    579.6384               624.7537               650.5644
 Red. masses --      4.7854                 6.3155                 4.2321
 Frc consts  --      0.9473                 1.4524                 1.0553
 IR Inten    --     69.3637                 3.7358                78.3573

                     46                     47                     48
                      A                      A                      A
 Frequencies --    691.3883               701.5949               753.0954
 Red. masses --      1.6160                 6.1486                 4.4091
 Frc consts  --      0.4551                 1.7832                 1.4733
 IR Inten    --     58.3738                13.6307                 5.3598

                     49                     50                     51
                      A                      A                      A
 Frequencies --    769.1367               793.8230               804.4484
 Red. masses --      2.3028                 2.2242                 1.2233
 Frc consts  --      0.8026                 0.8258                 0.4664
 IR Inten    --     22.0273                 9.2209                 1.1458

                     52                     53                     54
                      A                      A                      A
 Frequencies --    825.9004               844.5052               854.2879
 Red. masses --      3.6703                 1.2587                 1.5149
 Frc consts  --      1.4751                 0.5289                 0.6514
 IR Inten    --     13.0475                 0.5429                12.1378

                     55                     56                     57
                      A                      A                      A
 Frequencies --    865.5645               902.3543               916.6499
 Red. masses --      2.6493                 2.0159                 2.0085
 Frc consts  --      1.1695                 0.9671                 0.9943
 IR Inten    --     38.3330                 3.4687                16.7722

                     58                     59                     60
                      A                      A                      A
 Frequencies --    948.2807               960.0830               972.0619
 Red. masses --      1.4252                 1.4114                 3.4965
 Frc consts  --      0.7551                 0.7665                 1.9466
 IR Inten    --      0.7100                 2.1895                23.9220

                     61                     62                     63
                      A                      A                      A
 Frequencies --    989.0014               990.6074               994.8914
 Red. masses --      1.7986                 1.3766                 1.7098
 Frc consts  --      1.0365                 0.7959                 0.9971
 IR Inten    --     17.9782                17.9009                14.1027

                     64                     65                     66
                      A                      A                      A
 Frequencies --   1003.4642              1009.1455              1020.1538
 Red. masses --      3.6110                 1.4506                 2.0262
 Frc consts  --      2.1423                 0.8704                 1.2424
 IR Inten    --      1.2887                 0.9777                 3.9455

                     67                     68                     69
                      A                      A                      A
 Frequencies --   1037.1419              1047.1118              1074.5998
 Red. masses --      2.6382                 2.3619                 2.2160
 Frc consts  --      1.6720                 1.5258                 1.5077
 IR Inten    --     45.8812                 2.8841                 1.8435

                     70                     71                     72
                      A                      A                      A
 Frequencies --   1091.0209              1096.4429              1112.6109
 Red. masses --      1.7877                 2.0552                 1.5608
 Frc consts  --      1.2537                 1.4557                 1.1384
 IR Inten    --      1.4796                15.3699                 8.2635

                     73                     74                     75
                      A                      A                      A
 Frequencies --   1132.8778              1138.5255              1162.5784
 Red. masses --      2.1448                 2.1962                 1.6720
 Frc consts  --      1.6218                 1.6773                 1.3314
 IR Inten    --     15.3111                 8.8797                78.9564

                     76                     77                     78
                      A                      A                      A
 Frequencies --   1170.9289              1177.3465              1202.3896
 Red. masses --      1.5654                 1.0864                 1.3024
 Frc consts  --      1.2645                 0.8873                 1.1094
 IR Inten    --      4.1968                 1.8736                43.4815

                     79                     80                     81
                      A                      A                      A
 Frequencies --   1207.6630              1227.7637              1253.5672
 Red. masses --      1.5158                 2.0355                 2.0029
 Frc consts  --      1.3025                 1.8078                 1.8544
 IR Inten    --     68.6371               153.2828                20.8217

                     82                     83                     84
                      A                      A                      A
 Frequencies --   1268.7659              1285.7376              1326.3576
 Red. masses --      2.4543                 1.1271                 1.5010
 Frc consts  --      2.3278                 1.0978                 1.5558
 IR Inten    --    154.9759                 2.2029                46.8425

                     85                     86                     87
                      A                      A                      A
 Frequencies --   1334.0081              1336.4397              1338.7494
 Red. masses --      1.4111                 1.6486                 1.5690
 Frc consts  --      1.4795                 1.7348                 1.6568
 IR Inten    --     26.9594                94.2438                20.0529

                     88                     89                     90
                      A                      A                      A
 Frequencies --   1364.7965              1368.8726              1380.4124
 Red. masses --      3.1661                 1.5013                 1.3183
 Frc consts  --      3.4746                 1.6575                 1.4800
 IR Inten    --      4.1771                10.9686                11.4155

                     91                     92                     93
                      A                      A                      A
 Frequencies --   1382.4615              1400.8785              1411.2267
 Red. masses --      1.3784                 1.3267                 1.4189
 Frc consts  --      1.5522                 1.5340                 1.6649
 IR Inten    --     20.6053                 6.7857                19.2346

                     94                     95                     96
                      A                      A                      A
 Frequencies --   1415.8147              1457.9646              1465.1100
 Red. masses --      1.4028                 1.0692                 2.2698
 Frc consts  --      1.6567                 1.3391                 2.8707
 IR Inten    --     11.3015                11.4147                60.4190

                     97                     98                     99
                      A                      A                      A
 Frequencies --   1468.3520              1473.3959              1478.3754
 Red. masses --      1.0859                 1.0386                 1.0700
 Frc consts  --      1.3794                 1.3284                 1.3778
 IR Inten    --      2.6021                 6.2381                16.1341

                    100                    101                    102
                      A                      A                      A
 Frequencies --   1480.9575              1487.8890              1491.8695
 Red. masses --      1.0626                 1.0558                 1.1216
 Frc consts  --      1.3731                 1.3771                 1.4708
 IR Inten    --     10.5940                 4.6394                 6.8009

                    103                    104                    105
                      A                      A                      A
 Frequencies --   1492.8854              1506.0929              1515.0819
 Red. masses --      1.1058                 1.0834                 2.2886
 Frc consts  --      1.4520                 1.4479                 3.0952
 IR Inten    --     19.6248                 5.8398                76.6612

                    106                    107                    108
                      A                      A                      A
 Frequencies --   1531.1921              1619.5273              1640.3562
 Red. masses --      4.4745                 5.5410                 5.6620
 Frc consts  --      6.1809                 8.5628                 8.9763
 IR Inten    --    612.1370                16.1615                30.4347

                    109                    110                    111
                      A                      A                      A
 Frequencies --   1697.8623              1767.6778              3015.8277
 Red. masses --      6.1653                11.5019                 1.0388
 Frc consts  --     10.4716                21.1751                 5.5666
 IR Inten    --    123.9520               222.6272                 7.5124

                    112                    113                    114
                      A                      A                      A
 Frequencies --   3024.3822              3029.5050              3042.3974
 Red. masses --      1.0446                 1.0674                 1.0359
 Frc consts  --      5.6298                 5.7721                 5.6492
 IR Inten    --     11.4885                29.1530                17.6250

                    115                    116                    117
                      A                      A                      A
 Frequencies --   3060.8808              3066.0897              3070.1950
 Red. masses --      1.0592                 1.0650                 1.0978
 Frc consts  --      5.8468                 5.8987                 6.0969
 IR Inten    --     14.9491                27.1399                11.1189

                    118                    119                    120
                      A                      A                      A
 Frequencies --   3077.3320              3084.0658              3093.6789
 Red. masses --      1.0853                 1.0923                 1.0951
 Frc consts  --      6.0557                 6.1210                 6.1753
 IR Inten    --      1.8367                 5.5880                 3.2703

                    121                    122                    123
                      A                      A                      A
 Frequencies --   3109.5329              3118.5402              3121.5139
 Red. masses --      1.1060                 1.1021                 1.0986
 Frc consts  --      6.3010                 6.3149                 6.3070
 IR Inten    --      8.2815                16.6291                12.7757

                    124                    125                    126
                      A                      A                      A
 Frequencies --   3125.3832              3139.6316              3145.0587
 Red. masses --      1.1008                 1.1046                 1.0877
 Frc consts  --      6.3352                 6.4154                 6.3392
 IR Inten    --     11.0228                14.4174                14.0721

                    127                    128                    129
                      A                      A                      A
 Frequencies --   3150.2014              3174.7013              3187.8464
 Red. masses --      1.0975                 1.0862                 1.0912
 Frc consts  --      6.4170                 6.4499                 6.5333
 IR Inten    --     17.7010                 0.4518                 6.5600

                    130                    131                    132
                      A                      A                      A
 Frequencies --   3196.9799              3222.2014              3240.8772
 Red. masses --      1.0968                 1.0930                 1.0919
 Frc consts  --      6.6046                 6.6861                 6.7571
 IR Inten    --     11.8436                 2.0473                 2.4835

 - Thermochemistry -
 -------------------
 Temperature   298.150 Kelvin.  Pressure   1.00000 Atm.
 Atom     1 has atomic number  6 and mass  12.00000

 Molecular mass:   434.99839 amu.
 Principal axes and moments of inertia in atomic units:
                           1         2         3
     Eigenvalues --  9521.54541********************
           X            0.99614  -0.08674   0.01330
           Y            0.08641   0.99598   0.02365
           Z           -0.01529  -0.02241   0.99963
 This molecule is an asymmetric top.
 Rotational symmetry number  1.
 Warning -- assumption of classical behavior for rotation
           may cause significant error
 Rotational temperatures (Kelvin)      0.00910     0.00770     0.00637
 Rotational constants (GHZ):           0.18954     0.16052     0.13267
    1 imaginary frequencies ignored.
 Zero-point vibrational energy     943826.8 (Joules/Mol)
                                  225.58001 (Kcal/Mol)
 Warning -- explicit consideration of  42 degrees of freedom as
           vibrations may cause significant error
 Vibrational temperatures:     20.64    32.29    41.56    67.40    72.35
          (Kelvin)             83.02    88.77   112.51   123.40   128.36
                              142.14   146.55   154.69   168.69   176.13
                              181.88   206.28   209.84   243.95   264.36
                              286.67   296.27   314.77   371.72   388.51
                              416.82   440.59   452.16   493.29   510.14
                              552.68   567.32   574.08   578.27   590.90
                              609.23   648.11   687.83   717.96   742.46
                              780.51   833.97   898.88   936.02   994.75
                             1009.44  1083.54  1106.62  1142.13  1157.42
                             1188.29  1215.05  1229.13  1245.35  1298.29
                             1318.85  1364.36  1381.35  1398.58  1422.95
                             1425.26  1431.43  1443.76  1451.94  1467.77
                             1492.22  1506.56  1546.11  1569.74  1577.54
                             1600.80  1629.96  1638.08  1672.69  1684.71
                             1693.94  1729.97  1737.56  1766.48  1803.60
                             1825.47  1849.89  1908.33  1919.34  1922.84
                             1926.16  1963.64  1969.50  1986.11  1989.05
                             2015.55  2030.44  2037.04  2097.69  2107.97
                             2112.63  2119.89  2127.05  2130.77  2140.74
                             2146.47  2147.93  2166.93  2179.86  2203.04
                             2330.14  2360.11  2442.85  2543.29  4339.10
                             4351.41  4358.78  4377.33  4403.92  4411.42
                             4417.33  4427.59  4437.28  4451.11  4473.92
                             4486.88  4491.16  4496.73  4517.23  4525.04
                             4532.44  4567.69  4586.60  4599.74  4636.03
                             4662.90

 Zero-point correction=                           0.359485 (Hartree/Particle)
 Thermal correction to Energy=                    0.387159
 Thermal correction to Enthalpy=                  0.388103
 Thermal correction to Gibbs Free Energy=         0.296132
 Sum of electronic and zero-point Energies=          -3531.084513
 Sum of electronic and thermal Energies=             -3531.056839
 Sum of electronic and thermal Enthalpies=           -3531.055895
 Sum of electronic and thermal Free Energies=        -3531.147866

                     E (Thermal)             CV                S
                      KCal/Mol        Cal/Mol-Kelvin    Cal/Mol-Kelvin
 Total                  242.946             97.751            193.569
 Electronic               0.000              0.000              3.561
 Translational            0.889              2.981             44.100
 Rotational               0.889              2.981             35.631
 Vibrational            241.168             91.789            110.278
 Vibration     1          0.593              1.986              7.294
 Vibration     2          0.593              1.985              6.405
 Vibration     3          0.593              1.984              5.905
 Vibration     4          0.595              1.979              4.946
 Vibration     5          0.595              1.977              4.806
 Vibration     6          0.596              1.974              4.534
 Vibration     7          0.597              1.973              4.402
 Vibration     8          0.599              1.964              3.936
 Vibration     9          0.601              1.959              3.754
 Vibration    10          0.602              1.957              3.677
 Vibration    11          0.604              1.950              3.478
 Vibration    12          0.604              1.948              3.418
 Vibration    13          0.606              1.943              3.313
 Vibration    14          0.608              1.935              3.145
 Vibration    15          0.610              1.930              3.062
 Vibration    16          0.611              1.927              3.000
 Vibration    17          0.616              1.910              2.758
 Vibration    18          0.617              1.907              2.726
 Vibration    19          0.625              1.880              2.440
 Vibration    20          0.631              1.862              2.290
 Vibration    21          0.637              1.841              2.140
 Vibration    22          0.640              1.831              2.080
 Vibration    23          0.647              1.812              1.969
 Vibration    24          0.667              1.749              1.673
 Vibration    25          0.674              1.728              1.596
 Vibration    26          0.686              1.693              1.476
 Vibration    27          0.697              1.662              1.383
 Vibration    28          0.702              1.646              1.340
 Vibration    29          0.722              1.590              1.199
 Vibration    30          0.730              1.566              1.146
 Vibration    31          0.753              1.504              1.023
 Vibration    32          0.761              1.482              0.984
 Vibration    33          0.765              1.472              0.966
 Vibration    34          0.768              1.466              0.956
 Vibration    35          0.775              1.447              0.924
 Vibration    36          0.786              1.419              0.880
 Vibration    37          0.809              1.360              0.794
 Vibration    38          0.835              1.299              0.715
 Vibration    39          0.854              1.252              0.661
 Vibration    40          0.871              1.214              0.619
 Vibration    41          0.898              1.156              0.560
 Vibration    42          0.936              1.075              0.486

 Optimization completed.
    -- Stationary point found.
 Normal termination of Gaussian 16 at Sun Jun 20 23:57:27 2021.

 ----------------------------------------------------------------------
 #p ub3lyp jul-cc-pvdz pop=cm5 scrf=(pcm,solvent=dichloroethane) guess=
 read geom=allcheck
 ----------------------------------------------------------------------

 Structure from the checkpoint file:  "checkpoint.chk"
 -----
 title
 -----
 Charge =  0 Multiplicity = 6

 SCF Done:  E(UB3LYP) =  -3531.46118229     A.U. after   18 cycles
 Normal termination of Gaussian 16 at Mon Jun 21 00:17:19 2021.
 Gaussian 16:  ES64L-G16RevA.03 25-Dec-2016

 ----------------------------------------------------------------------
 #p ub3lyp jul-cc-pvdz pop=cm5 scrf=(pcm,solvent=water) guess=read geom
 =allcheck
 ----------------------------------------------------------------------

 Structure from the checkpoint file:  "checkpoint.chk"
 -----
 title
 -----
 Charge =  0 Multiplicity = 6

                         Standard orientation:
 ---------------------------------------------------------------------
 Center     Atomic      Atomic             Coordinates (Angstroms)
 Number     Number       Type             X           Y           Z
 ---------------------------------------------------------------------
      1          6           0        3.218286    0.515600    0.470134
      2          6           0        1.985008   -0.118387    0.725243
      3          6           0        1.772211   -0.708517    1.989479
      4          6           0        2.768481   -0.680290    2.961705
      5          6           0        3.993516   -0.059302    2.692039
      6          6           0        4.211423    0.542717    1.447766
      7          6           0        0.871291   -0.141658   -0.254775
      8          6           0        0.835087    0.750276   -1.511348
      9          6           0        1.810430    0.373786   -2.638630
     10          6           0        1.674207   -1.119048   -2.958993
     11          6           0        1.856634   -1.924627   -1.703956
     12          6           0        1.005494   -2.831850   -1.173180
     13          6           0       -0.348441   -3.159895   -1.730059
     14          8           0       -0.212900   -0.666980    0.118660
     15         26           0       -2.148176   -0.422531    0.442437
     16         17           0       -3.051386    0.208930   -1.468951
     17          6           0        1.379531   -3.604072    0.059909
     18         17           0       -2.267167    1.070342    2.055989
     19         17           0       -2.856519   -2.394410    1.129635
     20          1           0        0.811039   -1.170162    2.204751
     21          1           0        2.586238   -1.134878    3.935963
     22          1           0        4.773623   -0.034564    3.454659
     23          1           0        5.157609    1.043075    1.239301
     24          1           0        3.402237    1.012590   -0.477450
     25          1           0       -0.191777    0.636469   -1.881930
     26          6           0        0.988576    2.230830   -1.116149
     27          1           0        1.575422    0.990661   -3.517000
     28          1           0        2.841835    0.618218   -2.360215
     29          1           0        0.698779   -1.313905   -3.422126
     30          1           0        2.438753   -1.400364   -3.700507
     31          1           0        2.840135   -1.831131   -1.236850
     32          1           0        2.393354   -3.372327    0.407825
     33          1           0        0.664546   -3.396773    0.872196
     34          1           0        1.316363   -4.686444   -0.135350
     35          1           0       -0.341148   -4.191195   -2.119673
     36          1           0       -1.108610   -3.136173   -0.936238
     37          1           0       -0.670346   -2.496019   -2.538259
     38          8           0       -0.148188    2.697456   -0.592727
     39          8           0        1.996116    2.884936   -1.284091
     40          6           0       -0.158270    4.099232   -0.181443
     41          6           0       -1.590443    4.476969    0.132345
     42          1           0        0.501239    4.193231    0.692352
     43          1           0        0.267629    4.695353   -0.998448
     44          1           0       -1.620096    5.525396    0.462824
     45          1           0       -2.226852    4.374844   -0.757165
     46          1           0       -1.999504    3.843352    0.929266
 ---------------------------------------------------------------------

 SCF Done:  E(UB3LYP) =  -3531.46431810     A.U. after   16 cycles

 The electronic state is 6-A.
 Alpha  occ. eigenvalues -- -256.21555-101.52785-101.52741-101.52726 -30.20942
 Alpha  occ. eigenvalues --  -26.06381 -26.06112 -26.06032 -19.20991 -19.19485
 Alpha  occ. eigenvalues --  -19.16018 -10.33974 -10.33473 -10.25111 -10.23216
 Alpha  occ. eigenvalues --  -10.22688 -10.21721 -10.21701 -10.21599 -10.21599
 Alpha  occ. eigenvalues --  -10.21061 -10.21029 -10.20425 -10.19577 -10.19167
 Alpha  occ. eigenvalues --  -10.18685 -10.18632 -10.18522  -9.44503  -9.44470
 Alpha  occ. eigenvalues --   -9.44454  -7.20370  -7.20338  -7.20324  -7.20062
 Alpha  occ. eigenvalues --   -7.20042  -7.20023  -7.20010  -7.20008  -7.19990
 Alpha  occ. eigenvalues --   -3.68594  -2.46325  -2.45816  -2.45658  -1.12904
 Alpha  occ. eigenvalues --   -1.09779  -1.04405  -0.88430  -0.85181  -0.82506
 Alpha  occ. eigenvalues --   -0.80803  -0.80042  -0.80016  -0.78824  -0.78667
 Alpha  occ. eigenvalues --   -0.77078  -0.75027  -0.70244  -0.69655  -0.67219
 Alpha  occ. eigenvalues --   -0.64724  -0.62797  -0.61737  -0.59883  -0.57829
 Alpha  occ. eigenvalues --   -0.56062  -0.53896  -0.53145  -0.51922  -0.50628
 Alpha  occ. eigenvalues --   -0.49945  -0.49322  -0.48945  -0.48692  -0.48589
 Alpha  occ. eigenvalues --   -0.48255  -0.47363  -0.47079  -0.46944  -0.45929
 Alpha  occ. eigenvalues --   -0.45369  -0.44993  -0.44066  -0.43155  -0.42715
 Alpha  occ. eigenvalues --   -0.42514  -0.41268  -0.40348  -0.40053  -0.39432
 Alpha  occ. eigenvalues --   -0.38855  -0.38230  -0.38004  -0.37927  -0.37708
 Alpha  occ. eigenvalues --   -0.37133  -0.36985  -0.36456  -0.36193  -0.35256
 Alpha  occ. eigenvalues --   -0.34987  -0.34467  -0.33705  -0.32646  -0.32393
 Alpha  occ. eigenvalues --   -0.31562  -0.31540  -0.31183  -0.31057  -0.30379
 Alpha  occ. eigenvalues --   -0.30101  -0.29824  -0.28584  -0.27761  -0.25077
 Alpha virt. eigenvalues --   -0.11054  -0.03419  -0.02245  -0.01706  -0.00951
 Alpha virt. eigenvalues --   -0.00175  -0.00010   0.00088   0.01086   0.01497
 Alpha virt. eigenvalues --    0.01686   0.02007   0.02447   0.02687   0.03157

  Beta  occ. eigenvalues -- -256.21370-101.52593-101.52549-101.52530 -30.11998
  Beta  occ. eigenvalues --  -25.98791 -25.98710 -25.98659 -19.20990 -19.19110
  Beta  occ. eigenvalues --  -19.16016 -10.33973 -10.33452 -10.25111 -10.23205
  Beta  occ. eigenvalues --  -10.22670 -10.21720 -10.21698 -10.21598 -10.21579
  Beta  occ. eigenvalues --  -10.21060 -10.21030 -10.20423 -10.19577 -10.19149
  Beta  occ. eigenvalues --  -10.18686 -10.18631 -10.18523  -9.44315  -9.44282
  Beta  occ. eigenvalues --   -9.44262  -7.20060  -7.20025  -7.20008  -7.19797
  Beta  occ. eigenvalues --   -7.19784  -7.19761  -7.19751  -7.19741  -7.19725
  Beta  occ. eigenvalues --   -3.47734  -2.24023  -2.23943  -2.23879  -1.12898
  Beta  occ. eigenvalues --   -1.09063  -1.04401  -0.88393  -0.85135  -0.82457
  Beta  occ. eigenvalues --   -0.79559  -0.78786  -0.78717  -0.78685  -0.78597
  Beta  occ. eigenvalues --   -0.77072  -0.75000  -0.70229  -0.69555  -0.67080
  Beta  occ. eigenvalues --   -0.64668  -0.62767  -0.61622  -0.59468  -0.57588
  Beta  occ. eigenvalues --   -0.55521  -0.53582  -0.52783  -0.51845  -0.50449
  Beta  occ. eigenvalues --   -0.49588  -0.48988  -0.47464  -0.47243  -0.46715
  Beta  occ. eigenvalues --   -0.45430  -0.45095  -0.44064  -0.43171  -0.42700
  Beta  occ. eigenvalues --   -0.42508  -0.41311  -0.40306  -0.40056  -0.39421
  Beta  occ. eigenvalues --   -0.38808  -0.38478  -0.38143  -0.37934  -0.37705
  Beta  occ. eigenvalues --   -0.37154  -0.36957  -0.36509  -0.36447  -0.36384
  Beta  occ. eigenvalues --   -0.36176  -0.35259  -0.33898  -0.33680  -0.33458
  Beta  occ. eigenvalues --   -0.32975  -0.32774  -0.32284  -0.31556  -0.30712
  Beta  occ. eigenvalues --   -0.29957  -0.29826  -0.28652  -0.27760  -0.24957
  Beta virt. eigenvalues --   -0.15668  -0.15101  -0.14119  -0.13807  -0.13663
  Beta virt. eigenvalues --   -0.10209  -0.03402  -0.02210  -0.01592  -0.00886
  Beta virt. eigenvalues --   -0.00134   0.00023   0.00123   0.01196   0.01517

 Mulliken charges and spin densities:
               1          2
     1  C    0.162362   0.000789
     2  C    3.034584   0.002072
     3  C   -0.640580  -0.000968
     4  C    0.000950   0.000244
     5  C    0.300406   0.003408
     6  C   -0.126770   0.000693
     7  C   -2.180173  -0.003890
     8  C    0.383819   0.005306
     9  C    0.553312   0.001962
    10  C    0.637652  -0.000710
    11  C    0.243665   0.010565
    12  C   -0.025036   0.012018
    13  C    0.098808  -0.001152
    14  O   -0.236625   0.109736
    15  Fe   0.659866   4.071752
    16  Cl  -0.495002   0.253027
    17  C    0.236756  -0.000107
    18  Cl  -0.448066   0.265809
    19  Cl  -0.464502   0.262516
    20  H   -0.234963  -0.000704
    21  H   -0.154739   0.000019
    22  H   -0.150314  -0.000049
    23  H   -0.153689   0.000144
    24  H   -0.208171  -0.000108
    25  H   -0.182141  -0.000276
    26  C    0.711560   0.000540
    27  H   -0.129626   0.000233
    28  H   -0.012754  -0.000015
    29  H   -0.088162   0.000035
    30  H   -0.116467   0.000810
    31  H   -0.270267  -0.000578
    32  H   -0.015285   0.000002
    33  H    0.052046   0.000511
    34  H   -0.026948   0.000877
    35  H   -0.016670   0.001025
    36  H    0.061306   0.001719
    37  H    0.017046  -0.000149
    38  O   -0.660359   0.002136
    39  O   -0.568082   0.001030
    40  C    0.427704   0.001155
    41  C    0.040123  -0.001258
    42  H   -0.033056   0.000053
    43  H   -0.034956   0.000023
    44  H   -0.005774   0.000036
    45  H    0.027504   0.000071
    46  H    0.029712  -0.000356
 Sum of Mulliken charges =  -0.00000   5.00000

 Dipole moment (field-independent basis, Debye):
    X=             10.3308    Y=             -0.3850    Z=             -1.6484  Tot=             10.4685
 Quadrupole moment (field-independent basis, Debye-Ang):
   XX=           -185.9011   YY=           -168.6534   ZZ=           -169.5949
   XY=            -12.2421   XZ=             11.2317   YZ=              3.8583

 Normal termination of Gaussian 16 at Mon Jun 21 00:34:50 2021.
