 Gaussian 16, Revision A.03,

 -----------------------------------------------------------
 #p opt=modredundant freq=noraman ub3lyp jul-cc-pvdz pop=cm5
 -----------------------------------------------------------

 -----
 title
 -----
 Symbolic Z-matrix:
 Charge =  0 Multiplicity = 6

 SCF Done:  E(UB3LYP) =  -3531.40363372     A.U. after   26 cycles
 SCF Done:  E(UB3LYP) =  -3531.40373904     A.U. after   16 cycles
 SCF Done:  E(UB3LYP) =  -3531.40331011     A.U. after   15 cycles
 SCF Done:  E(UB3LYP) =  -3531.40404545     A.U. after   16 cycles
 SCF Done:  E(UB3LYP) =  -3531.40434902     A.U. after   15 cycles
 SCF Done:  E(UB3LYP) =  -3531.40437247     A.U. after   16 cycles
 SCF Done:  E(UB3LYP) =  -3531.40444102     A.U. after   15 cycles
 SCF Done:  E(UB3LYP) =  -3531.40444554     A.U. after   15 cycles
 SCF Done:  E(UB3LYP) =  -3531.40447437     A.U. after   14 cycles
 SCF Done:  E(UB3LYP) =  -3531.40449192     A.U. after   13 cycles
 SCF Done:  E(UB3LYP) =  -3531.40450681     A.U. after   12 cycles
 SCF Done:  E(UB3LYP) =  -3531.40450677     A.U. after   12 cycles
 SCF Done:  E(UB3LYP) =  -3531.40450669     A.U. after   12 cycles
 SCF Done:  E(UB3LYP) =  -3531.40450648     A.U. after   12 cycles
 SCF Done:  E(UB3LYP) =  -3531.40450644     A.U. after   11 cycles
 SCF Done:  E(UB3LYP) =  -3531.40450685     A.U. after   14 cycles
 SCF Done:  E(UB3LYP) =  -3531.40450640     A.U. after   14 cycles
 Optimization completed.
    -- Stationary point found.
 Normal termination of Gaussian 16 at Sun Jun 20 04:30:53 2021.

 ----------------------------------------------------------------------
 #P Geom=AllCheck Guess=TCheck SCRF=Check GenChk UB3LYP/Jul-CC-pVDZ Fre
 q
 ----------------------------------------------------------------------

 Structure from the checkpoint file:  "checkpoint.chk"
 -----
 title
 -----
 Charge =  0 Multiplicity = 6

 SCF Done:  E(UB3LYP) =  -3531.40450640     A.U. after    1 cycles

  Exact polarizability: 308.722  -3.053 315.382  29.576   9.934 280.123
 Approx polarizability: 456.953 -12.738 501.474  49.772  15.487 450.228

 ******    1 imaginary frequencies (negative Signs) ******

                      1                      2                      3
                      A                      A                      A
 Frequencies --    -15.1500                25.8900                26.3861
 Red. masses --      5.7825                10.2997                 4.5108
 Frc consts  --      0.0008                 0.0041                 0.0019
 IR Inten    --      0.6190                 0.1941                 1.6995

                      4                      5                      6
                      A                      A                      A
 Frequencies --     41.8031                51.4035                60.7354
 Red. masses --      4.4375                 4.2799                 4.9732
 Frc consts  --      0.0046                 0.0067                 0.0108
 IR Inten    --      1.6042                 0.8170                 0.7957

                      7                      8                      9
                      A                      A                      A
 Frequencies --     65.0671                74.4216                75.2385
 Red. masses --      4.6326                 4.1740                 3.7127
 Frc consts  --      0.0116                 0.0136                 0.0124
 IR Inten    --      1.4081                 0.2139                 0.8334

                     10                     11                     12
                      A                      A                      A
 Frequencies --     81.9963                98.7174               108.3219
 Red. masses --      8.0793                 6.8647                 8.3729
 Frc consts  --      0.0320                 0.0394                 0.0579
 IR Inten    --      1.0965                 1.0980                 0.4683

                     13                     14                     15
                      A                      A                      A
 Frequencies --    108.9422               115.9948               127.9300
 Red. masses --      9.1499                 3.5411                 6.0248
 Frc consts  --      0.0640                 0.0281                 0.0581
 IR Inten    --      0.4032                 3.3213                16.4662

                     16                     17                     18
                      A                      A                      A
 Frequencies --    133.1967               154.8095               167.3850
 Red. masses --      7.5343                 4.0633                 2.8384
 Frc consts  --      0.0788                 0.0574                 0.0469
 IR Inten    --      8.0051                 3.6195                 1.2562

                     19                     20                     21
                      A                      A                      A
 Frequencies --    184.9838               206.2318               225.0997
 Red. masses --      4.4729                 4.2562                 2.8515
 Frc consts  --      0.0902                 0.1067                 0.0851
 IR Inten    --      0.7275                10.9969                 3.3995

                     22                     23                     24
                      A                      A                      A
 Frequencies --    236.3676               249.0948               255.9348
 Red. masses --      1.1428                 2.6825                 1.3714
 Frc consts  --      0.0376                 0.0981                 0.0529
 IR Inten    --      3.1719                 4.1296                 4.7567

                     25                     26                     27
                      A                      A                      A
 Frequencies --    266.4697               278.4906               297.4743
 Red. masses --      1.6677                 2.8461                 5.1277
 Frc consts  --      0.0698                 0.1301                 0.2673
 IR Inten    --      1.4071                 2.1208                 2.8364

                     28                     29                     30
                      A                      A                      A
 Frequencies --    304.2997               325.7781               334.6419
 Red. masses --      4.7484                12.5963                 3.4270
 Frc consts  --      0.2591                 0.7877                 0.2261
 IR Inten    --      3.1629                35.6626                19.0730

                     31                     32                     33
                      A                      A                      A
 Frequencies --    348.3097               363.5286               384.8143
 Red. masses --     11.9089                 4.7997                 7.1301
 Frc consts  --      0.8512                 0.3737                 0.6221
 IR Inten    --     50.4411                16.3480                33.7240

                     34                     35                     36
                      A                      A                      A
 Frequencies --    392.3136               414.9715               420.3610
 Red. masses --     15.3802                 2.9906                 4.0252
 Frc consts  --      1.3947                 0.3034                 0.4191
 IR Inten    --     67.1930                 0.5359                 5.4065

                     37                     38                     39
                      A                      A                      A
 Frequencies --    436.3237               480.0239               516.4966
 Red. masses --      3.4158                 2.8737                 2.4016
 Frc consts  --      0.3831                 0.3901                 0.3775
 IR Inten    --      2.8291                 0.3263                 5.8437

                     40                     41                     42
                      A                      A                      A
 Frequencies --    552.7066               580.1948               627.2554
 Red. masses --      3.7186                 2.4252                 6.2936
 Frc consts  --      0.6693                 0.4810                 1.4590
 IR Inten    --     23.6938                 4.3592                 0.5214

                     43                     44                     45
                      A                      A                      A
 Frequencies --    644.9451               668.1513               705.6339
 Red. masses --      5.5953                 3.0071                 2.0757
 Frc consts  --      1.3712                 0.7909                 0.6089
 IR Inten    --     16.1859                 6.0949                41.4171

                     46                     47                     48
                      A                      A                      A
 Frequencies --    714.4841               740.4542               754.3864
 Red. masses --      2.8393                 1.4678                 2.5588
 Frc consts  --      0.8540                 0.4741                 0.8580
 IR Inten    --     12.2577                32.5280                25.6505

                     49                     50                     51
                      A                      A                      A
 Frequencies --    773.8760               782.3361               807.1556
 Red. masses --      3.2493                 3.9374                 1.1247
 Frc consts  --      1.1465                 1.4198                 0.4317
 IR Inten    --     18.6959                25.6369                 0.2723

                     52                     53                     54
                      A                      A                      A
 Frequencies --    826.4399               837.2977               844.9083
 Red. masses --      2.8812                 2.2458                 1.2821
 Frc consts  --      1.1594                 0.9277                 0.5393
 IR Inten    --      8.4110                12.5957                 2.7721

                     55                     56                     57
                      A                      A                      A
 Frequencies --    870.7768               877.4881               914.7964
 Red. masses --      3.0421                 2.7456                 2.1019
 Frc consts  --      1.3591                 1.2456                 1.0364
 IR Inten    --     29.6119                 9.2308                41.5764

                     58                     59                     60
                      A                      A                      A
 Frequencies --    935.2758               943.1437               969.0807
 Red. masses --      1.8013                 3.6736                 2.3327
 Frc consts  --      0.9284                 1.9253                 1.2907
 IR Inten    --      8.1825                47.4129                48.7238

                     61                     62                     63
                      A                      A                      A
 Frequencies --    981.7611               996.1389              1001.1027
 Red. masses --      1.3625                 3.1211                 2.7343
 Frc consts  --      0.7737                 1.8247                 1.6146
 IR Inten    --      1.1465                 9.2509                 0.6427

                     64                     65                     66
                      A                      A                      A
 Frequencies --   1003.6270              1011.6323              1016.7226
 Red. masses --      1.7811                 1.3548                 2.9417
 Frc consts  --      1.0570                 0.8169                 1.7917
 IR Inten    --      1.6145                 2.7578                16.0679

                     67                     68                     69
                      A                      A                      A
 Frequencies --   1027.0144              1043.8353              1053.6163
 Red. masses --      2.1106                 2.9621                 2.2974
 Frc consts  --      1.3116                 1.9016                 1.5026
 IR Inten    --      2.0520                30.1813                 2.8524

                     70                     71                     72
                      A                      A                      A
 Frequencies --   1075.3247              1100.2920              1105.2210
 Red. masses --      2.1061                 1.9909                 2.1745
 Frc consts  --      1.4349                 1.4201                 1.5650
 IR Inten    --     15.1242                26.2669                68.5375

                     73                     74                     75
                      A                      A                      A
 Frequencies --   1128.0552              1133.0320              1158.3462
 Red. masses --      2.8433                 2.2225                 2.2529
 Frc consts  --      2.1318                 1.6810                 1.7810
 IR Inten    --    145.4853                 5.1473                23.2594

                     76                     77                     78
                      A                      A                      A
 Frequencies --   1168.8902              1174.4307              1182.2904
 Red. masses --      1.5491                 1.0909                 1.8962
 Frc consts  --      1.2470                 0.8865                 1.5616
 IR Inten    --      2.2099                 0.3090                56.5422

                     79                     80                     81
                      A                      A                      A
 Frequencies --   1207.2867              1208.0271              1223.3547
 Red. masses --      1.1980                 1.2666                 2.5658
 Frc consts  --      1.0288                 1.0891                 2.2624
 IR Inten    --      6.6822                24.6248               214.7498

                     82                     83                     84
                      A                      A                      A
 Frequencies --   1255.9812              1262.8577              1281.2661
 Red. masses --      1.5683                 1.4036                 1.1077
 Frc consts  --      1.4577                 1.3189                 1.0714
 IR Inten    --     30.1803                16.5124                 1.8662

                     85                     86                     87
                      A                      A                      A
 Frequencies --   1288.5208              1302.5260              1312.0348
 Red. masses --      1.5119                 1.4712                 1.3184
 Frc consts  --      1.4789                 1.4706                 1.3372
 IR Inten    --     81.1043                95.1321                27.2850

                     88                     89                     90
                      A                      A                      A
 Frequencies --   1316.7110              1323.6459              1330.5606
 Red. masses --      1.3817                 1.2649                 1.4885
 Frc consts  --      1.4114                 1.3058                 1.5526
 IR Inten    --     43.9305                23.0199                16.6669

                     91                     92                     93
                      A                      A                      A
 Frequencies --   1343.3904              1357.1413              1368.6356
 Red. masses --      1.5554                 2.5028                 1.3506
 Frc consts  --      1.6539                 2.7160                 1.4906
 IR Inten    --     90.2345                 0.2694                11.2609

                     94                     95                     96
                      A                      A                      A
 Frequencies --   1387.0449              1393.4642              1414.0421
 Red. masses --      1.1530                 1.5473                 1.2342
 Frc consts  --      1.3070                 1.7702                 1.4540
 IR Inten    --      2.2564                67.5504                20.1288

                     97                     98                     99
                      A                      A                      A
 Frequencies --   1418.1108              1432.3663              1467.0463
 Red. masses --      1.4741                 1.4100                 2.2710
 Frc consts  --      1.7466                 1.7044                 2.8798
 IR Inten    --      3.6691                49.9101                12.3354

                    100                    101                    102
                      A                      A                      A
 Frequencies --   1474.7767              1486.8910              1487.8704
 Red. masses --      1.0392                 1.0937                 1.0524
 Frc consts  --      1.3317                 1.4247                 1.3727
 IR Inten    --      4.4318                 1.7761                 1.5063

                    103                    104                    105
                      A                      A                      A
 Frequencies --   1495.0763              1502.3998              1506.9537
 Red. masses --      1.2460                 1.1693                 1.3158
 Frc consts  --      1.6410                 1.5551                 1.7605
 IR Inten    --     17.2681                18.2852                16.5976

                    106                    107                    108
                      A                      A                      A
 Frequencies --   1508.0491              1518.2110              1622.5751
 Red. masses --      1.0994                 2.0828                 5.6271
 Frc consts  --      1.4731                 2.8286                 8.7286
 IR Inten    --      7.8618                 7.8223                 0.3783

                    109                    110                    111
                      A                      A                      A
 Frequencies --   1641.8860              1767.6154              2674.8741
 Red. masses --      5.8033                11.7846                 1.0684
 Frc consts  --      9.2175                21.6941                 4.5040
 IR Inten    --      0.6256               220.6263               471.9536

                    112                    113                    114
                      A                      A                      A
 Frequencies --   2793.4936              3038.5115              3056.4286
 Red. masses --      1.0676                 1.0352                 1.0583
 Frc consts  --      4.9087                 5.6313                 5.8249
 IR Inten    --    343.6426                16.5447                17.9784

                    115                    116                    117
                      A                      A                      A
 Frequencies --   3058.9158              3070.7913              3074.9515
 Red. masses --      1.0621                 1.0831                 1.0628
 Frc consts  --      5.8553                 6.0177                 5.9205
 IR Inten    --     17.7014                10.0522                15.5432

                    118                    119                    120
                      A                      A                      A
 Frequencies --   3075.2032              3084.7014              3100.0412
 Red. masses --      1.0633                 1.0639                 1.1061
 Frc consts  --      5.9243                 5.9646                 6.2628
 IR Inten    --      6.8384                 1.7647                 5.1064

                    121                    122                    123
                      A                      A                      A
 Frequencies --   3100.1225              3115.3884              3122.5582
 Red. masses --      1.1034                 1.1015                 1.0898
 Frc consts  --      6.2479                 6.2987                 6.2606
 IR Inten    --      6.8139                19.9530                 1.5843

                    124                    125                    126
                      A                      A                      A
 Frequencies --   3128.3606              3128.8124              3165.0312
 Red. masses --      1.1014                 1.1052                 1.1050
 Frc consts  --      6.3511                 6.3745                 6.5221
 IR Inten    --     10.5641                33.4185                 7.6973

                    127                    128                    129
                      A                      A                      A
 Frequencies --   3166.8050              3177.0909              3186.0806
 Red. masses --      1.0846                 1.0882                 1.0928
 Frc consts  --      6.4086                 6.4720                 6.5357
 IR Inten    --      1.0636                 5.0915                21.2096

                    130                    131                    132
                      A                      A                      A
 Frequencies --   3187.6331              3195.5471              3216.8458
 Red. masses --      1.1021                 1.0979                 1.0926
 Frc consts  --      6.5981                 6.6057                 6.6616
 IR Inten    --      2.3030                14.1500                 4.5031

 - Thermochemistry -
 -------------------
 Temperature   298.150 Kelvin.  Pressure   1.00000 Atm.
 Atom     1 has atomic number  6 and mass  12.00000

 Molecular mass:   434.99839 amu.
 Principal axes and moments of inertia in atomic units:
                           1         2         3
     Eigenvalues --  8986.29642********************
           X            0.99580   0.09023   0.01582
           Y           -0.09009   0.99589  -0.00957
           Z           -0.01662   0.00811   0.99983
 This molecule is an asymmetric top.
 Rotational symmetry number  1.
 Warning -- assumption of classical behavior for rotation
           may cause significant error
 Rotational temperatures (Kelvin)      0.00964     0.00754     0.00674
 Rotational constants (GHZ):           0.20083     0.15708     0.14044
    1 imaginary frequencies ignored.
 Zero-point vibrational energy     939049.9 (Joules/Mol)
                                  224.43830 (Kcal/Mol)
 Warning -- explicit consideration of  40 degrees of freedom as
           vibrations may cause significant error
 Vibrational temperatures:     37.25    37.96    60.15    73.96    87.38
          (Kelvin)             93.62   107.08   108.25   117.97   142.03
                              155.85   156.74   166.89   184.06   191.64
                              222.74   240.83   266.15   296.72   323.87
                              340.08   358.39   368.23   383.39   400.69
                              428.00   437.82   468.72   481.47   501.14
                              523.04   553.66   564.45   597.05   604.81
                              627.77   690.65   743.12   795.22   834.77
                              902.48   927.93   961.32  1015.25  1027.98
                             1065.35  1085.39  1113.43  1125.61  1161.32
                             1189.06  1204.68  1215.63  1252.85  1262.51
                             1316.19  1345.65  1356.97  1394.29  1412.54
                             1433.22  1440.36  1444.00  1455.51  1462.84
                             1477.64  1501.85  1515.92  1547.15  1583.07
                             1590.17  1623.02  1630.18  1666.60  1681.77
                             1689.74  1701.05  1737.02  1738.08  1760.13
                             1807.08  1816.97  1843.46  1853.89  1874.04
                             1887.73  1894.45  1904.43  1914.38  1932.84
                             1952.62  1969.16  1995.65  2004.88  2034.49
                             2040.35  2060.86  2110.75  2121.87  2139.30
                             2140.71  2151.08  2161.62  2168.17  2169.75
                             2184.37  2334.52  2362.31  2543.20  3848.55
                             4019.21  4371.74  4397.52  4401.10  4418.18
                             4424.17  4424.53  4438.20  4460.27  4460.38
                             4482.35  4492.66  4501.01  4501.66  4553.77
                             4556.33  4571.13  4584.06  4586.29  4597.68
                             4628.32

 Zero-point correction=                           0.357665 (Hartree/Particle)
 Thermal correction to Energy=                    0.384408
 Thermal correction to Enthalpy=                  0.385352
 Thermal correction to Gibbs Free Energy=         0.297171
 Sum of electronic and zero-point Energies=          -3531.046841
 Sum of electronic and thermal Energies=             -3531.020099
 Sum of electronic and thermal Enthalpies=           -3531.019154
 Sum of electronic and thermal Free Energies=        -3531.107336

                     E (Thermal)             CV                S
                      KCal/Mol        Cal/Mol-Kelvin    Cal/Mol-Kelvin
 Total                  241.220             96.745            185.593
 Electronic               0.000              0.000              3.561
 Translational            0.889              2.981             44.100
 Rotational               0.889              2.981             35.538
 Vibrational            239.442             90.783            102.394
 Vibration     1          0.593              1.985              6.122
 Vibration     2          0.593              1.985              6.084
 Vibration     3          0.594              1.980              5.172
 Vibration     4          0.596              1.977              4.763
 Vibration     5          0.597              1.973              4.433
 Vibration     6          0.597              1.971              4.297
 Vibration     7          0.599              1.966              4.033
 Vibration     8          0.599              1.966              4.011
 Vibration     9          0.600              1.961              3.843
 Vibration    10          0.604              1.950              3.479
 Vibration    11          0.606              1.943              3.299
 Vibration    12          0.606              1.942              3.288
 Vibration    13          0.608              1.936              3.166
 Vibration    14          0.611              1.925              2.977
 Vibration    15          0.613              1.920              2.899
 Vibration    16          0.620              1.897              2.612
 Vibration    17          0.624              1.883              2.465
 Vibration    18          0.631              1.860              2.278
 Vibration    19          0.641              1.831              2.077
 Vibration    20          0.650              1.803              1.918
 Vibration    21          0.655              1.785              1.830
 Vibration    22          0.662              1.764              1.737
 Vibration    23          0.666              1.753              1.689
 Vibration    24          0.672              1.735              1.619
 Vibration    25          0.679              1.713              1.543
 Vibration    26          0.691              1.678              1.431
 Vibration    27          0.695              1.666              1.393
 Vibration    28          0.710              1.624              1.281
 Vibration    29          0.716              1.606              1.238
 Vibration    30          0.726              1.579              1.174
 Vibration    31          0.737              1.547              1.107
 Vibration    32          0.754              1.503              1.020
 Vibration    33          0.760              1.487              0.991
 Vibration    34          0.778              1.438              0.909
 Vibration    35          0.783              1.426              0.891
 Vibration    36          0.797              1.391              0.838
 Vibration    37          0.836              1.294              0.710
 Vibration    38          0.872              1.213              0.618
 Vibration    39          0.908              1.134              0.539
 Vibration    40          0.937              1.074              0.485

 Optimization completed.
    -- Stationary point found.
 Normal termination of Gaussian 16 at Sun Jun 20 08:51:49 2021.

 ----------------------------------------------------------------------
 #p ub3lyp jul-cc-pvdz pop=cm5 scrf=(pcm,solvent=dichloroethane) guess=
 read geom=allcheck
 ----------------------------------------------------------------------

 Structure from the checkpoint file:  "checkpoint.chk"
 -----
 title
 -----
 Charge =  0 Multiplicity = 6

 SCF Done:  E(UB3LYP) =  -3531.43385113     A.U. after   18 cycles
 Normal termination of Gaussian 16 at Sun Jun 20 09:14:07 2021.
 Gaussian 16:  ES64L-G16RevA.03 25-Dec-2016

 ----------------------------------------------------------------------
 #p ub3lyp jul-cc-pvdz pop=cm5 scrf=(pcm,solvent=water) guess=read geom
 =allcheck
 ----------------------------------------------------------------------

 Structure from the checkpoint file:  "checkpoint.chk"
 -----
 title
 -----
 Charge =  0 Multiplicity = 6

                         Standard orientation:
 ---------------------------------------------------------------------
 Center     Atomic      Atomic             Coordinates (Angstroms)
 Number     Number       Type             X           Y           Z
 ---------------------------------------------------------------------
      1          6           0        1.910806   -1.847602    1.667140
      2          6           0        1.268772   -0.768625    1.037551
      3          6           0        1.389266    0.502911    1.619684
      4          6           0        2.116936    0.686291    2.797401
      5          6           0        2.744818   -0.396136    3.418202
      6          6           0        2.640217   -1.665408    2.845227
      7          6           0        0.501781   -0.900834   -0.295632
      8          6           0        1.507929   -0.873634   -1.521292
      9          6           0        2.058693   -2.291626   -1.627914
     10          6           0        0.874029   -3.219656   -1.285088
     11          6           0       -0.121907   -2.370916   -0.395021
     12          6           0       -1.467655   -2.450290   -0.990395
     13          6           0       -1.786998   -1.893875   -2.294284
     14          8           0       -0.440563    0.096730   -0.444719
     15         26           0       -1.877776    0.980553    0.323995
     16         17           0       -3.489733    0.882579   -1.272509
     17          6           0       -2.552305   -3.006572   -0.181742
     18         17           0       -1.382320    3.062891    0.879420
     19         17           0       -2.576086   -0.270820    2.063557
     20          1           0        0.906894    1.358823    1.152991
     21          1           0        2.183187    1.683996    3.233499
     22          1           0        3.308020   -0.253390    4.341522
     23          1           0        3.124306   -2.522357    3.315961
     24          1           0        1.856825   -2.855444    1.256410
     25          1           0        0.893857   -0.612246   -2.393538
     26          6           0        2.594211    0.186142   -1.409834
     27          1           0        2.463872   -2.504058   -2.625303
     28          1           0        2.880486   -2.417509   -0.913740
     29          1           0        0.380891   -3.570595   -2.201139
     30          1           0        1.180847   -4.117996   -0.735444
     31          1           0       -0.178092   -2.781028    0.616178
     32          1           0       -2.222589   -3.849995    0.439974
     33          1           0       -2.770667   -2.187531    0.554820
     34          1           0       -3.465944   -3.231818   -0.740206
     35          1           0       -2.544968   -2.480269   -2.829788
     36          1           0       -2.308796   -0.924767   -2.036029
     37          1           0       -0.929527   -1.646291   -2.922664
     38          8           0        2.105533    1.408410   -1.672011
     39          8           0        3.753745   -0.043948   -1.134659
     40          6           0        3.032526    2.521779   -1.540060
     41          6           0        2.258390    3.793312   -1.822683
     42          1           0        3.447786    2.502221   -0.523523
     43          1           0        3.859718    2.367018   -2.246616
     44          1           0        2.929258    4.658331   -1.718262
     45          1           0        1.854835    3.790019   -2.844729
     46          1           0        1.423568    3.910351   -1.118657
 ---------------------------------------------------------------------

 SCF Done:  E(UB3LYP) =  -3531.43950576     A.U. after   14 cycles

 The electronic state is 6-A.
 Alpha  occ. eigenvalues -- -256.19647-101.51958-101.51832-101.51827 -30.19049
 Alpha  occ. eigenvalues --  -26.04400 -26.04298 -26.04142 -19.20139 -19.15708
 Alpha  occ. eigenvalues --  -19.15100 -10.32709 -10.32276 -10.29001 -10.24738
 Alpha  occ. eigenvalues --  -10.23317 -10.22315 -10.22121 -10.21945 -10.21683
 Alpha  occ. eigenvalues --  -10.21223 -10.20332 -10.20110 -10.20019 -10.19996
 Alpha  occ. eigenvalues --  -10.19965 -10.19790 -10.18624  -9.43653  -9.43568
 Alpha  occ. eigenvalues --   -9.43530  -7.19517  -7.19421  -7.19389  -7.19213
 Alpha  occ. eigenvalues --   -7.19179  -7.19128  -7.19093  -7.19082  -7.19054
 Alpha  occ. eigenvalues --   -3.66782  -2.44363  -2.44161  -2.43883  -1.11956
 Alpha  occ. eigenvalues --   -1.03474  -1.03158  -0.89698  -0.87094  -0.84514
 Alpha  occ. eigenvalues --   -0.79815  -0.79160  -0.79115  -0.78874  -0.77230
 Alpha  occ. eigenvalues --   -0.76007  -0.75561  -0.74855  -0.71944  -0.66649
 Alpha  occ. eigenvalues --   -0.64024  -0.61989  -0.61092  -0.59667  -0.57238
 Alpha  occ. eigenvalues --   -0.56663  -0.54842  -0.53252  -0.51331  -0.50701
 Alpha  occ. eigenvalues --   -0.50042  -0.49259  -0.48584  -0.48128  -0.47940
 Alpha  occ. eigenvalues --   -0.47256  -0.47080  -0.46886  -0.46546  -0.46047
 Alpha  occ. eigenvalues --   -0.44887  -0.44435  -0.43834  -0.43229  -0.42834
 Alpha  occ. eigenvalues --   -0.42626  -0.42197  -0.41347  -0.40964  -0.40644
 Alpha  occ. eigenvalues --   -0.39931  -0.39021  -0.37697  -0.37630  -0.37165
 Alpha  occ. eigenvalues --   -0.37066  -0.36384  -0.35941  -0.35836  -0.35396
 Alpha  occ. eigenvalues --   -0.34985  -0.34153  -0.33761  -0.31724  -0.31462
 Alpha  occ. eigenvalues --   -0.30868  -0.30644  -0.30471  -0.30267  -0.29742
 Alpha  occ. eigenvalues --   -0.29431  -0.28791  -0.27997  -0.26620  -0.26163
 Alpha virt. eigenvalues --   -0.13981  -0.02921  -0.02724  -0.01543  -0.01254
 Alpha virt. eigenvalues --   -0.00228  -0.00078   0.00095   0.01424   0.01658
 Alpha virt. eigenvalues --    0.01739   0.01831   0.02408   0.03268   0.03804

  Beta  occ. eigenvalues -- -256.19462-101.51797-101.51681-101.51672 -30.10129
  Beta  occ. eigenvalues --  -25.96921 -25.96872 -25.96742 -19.20138 -19.15096
  Beta  occ. eigenvalues --  -19.14840 -10.32710 -10.32268 -10.28986 -10.24738
  Beta  occ. eigenvalues --  -10.23294 -10.22314 -10.22120 -10.21946 -10.21653
  Beta  occ. eigenvalues --  -10.21202 -10.20330 -10.20108 -10.20019 -10.19991
  Beta  occ. eigenvalues --  -10.19965 -10.19793 -10.18624  -9.43495  -9.43411
  Beta  occ. eigenvalues --   -9.43386  -7.19230  -7.19160  -7.19118  -7.19008
  Beta  occ. eigenvalues --   -7.18974  -7.18910  -7.18898  -7.18892  -7.18867
  Beta  occ. eigenvalues --   -3.45987  -2.22330  -2.22279  -2.22061  -1.11952
  Beta  occ. eigenvalues --   -1.03466  -1.01464  -0.89538  -0.87037  -0.84421
  Beta  occ. eigenvalues --   -0.78941  -0.78768  -0.78079  -0.78032  -0.77120
  Beta  occ. eigenvalues --   -0.75983  -0.75538  -0.74832  -0.71769  -0.66532
  Beta  occ. eigenvalues --   -0.63947  -0.61940  -0.61025  -0.59505  -0.57161
  Beta  occ. eigenvalues --   -0.56159  -0.54725  -0.51973  -0.51248  -0.50658
  Beta  occ. eigenvalues --   -0.49883  -0.48924  -0.48231  -0.47650  -0.47570
  Beta  occ. eigenvalues --   -0.46116  -0.44536  -0.44208  -0.43259  -0.42907
  Beta  occ. eigenvalues --   -0.42829  -0.42187  -0.41281  -0.41048  -0.40637
  Beta  occ. eigenvalues --   -0.39920  -0.38890  -0.37690  -0.37575  -0.37508
  Beta  occ. eigenvalues --   -0.37096  -0.36386  -0.36221  -0.35854  -0.35499
  Beta  occ. eigenvalues --   -0.35366  -0.35239  -0.34908  -0.32819  -0.32654
  Beta  occ. eigenvalues --   -0.32333  -0.31932  -0.31567  -0.31416  -0.29544
  Beta  occ. eigenvalues --   -0.29513  -0.28848  -0.28406  -0.26623  -0.26149
  Beta virt. eigenvalues --   -0.14195  -0.13572  -0.13323  -0.12474  -0.11887
  Beta virt. eigenvalues --   -0.11124  -0.02874  -0.02691  -0.01444  -0.01206
  Beta virt. eigenvalues --   -0.00183  -0.00045   0.00124   0.01449   0.01671

 Mulliken charges and spin densities:
               1          2
     1  C   -0.289958   0.001097
     2  C    2.789580   0.008105
     3  C   -0.631343  -0.003833
     4  C    0.079197   0.006223
     5  C    0.187612   0.000744
     6  C   -0.123566   0.001751
     7  C   -1.916262  -0.021007
     8  C    0.526355   0.014859
     9  C    0.615658   0.003579
    10  C    0.424671  -0.001502
    11  C    1.411705   0.016438
    12  C   -0.684644   0.013365
    13  C    0.079993  -0.005468
    14  O   -0.490673   0.302836
    15  Fe   0.635459   4.044287
    16  Cl  -0.574699   0.193024
    17  C    0.286262  -0.004441
    18  Cl  -0.507359   0.222862
    19  Cl  -0.560697   0.204503
    20  H   -0.261452  -0.000603
    21  H   -0.168659  -0.000056
    22  H   -0.163021   0.000005
    23  H   -0.160230   0.000162
    24  H   -0.239478  -0.000021
    25  H   -0.185036  -0.000324
    26  C    0.909512  -0.000122
    27  H   -0.149552   0.000734
    28  H   -0.056924   0.000064
    29  H   -0.092818   0.000157
    30  H   -0.088969   0.000103
    31  H   -0.215805   0.000120
    32  H    0.047836   0.000348
    33  H    0.180215   0.001638
    34  H    0.006942   0.000006
    35  H    0.021884   0.000018
    36  H    0.208688   0.001147
    37  H    0.066301   0.000174
    38  O   -0.709290  -0.002190
    39  O   -0.647397   0.001482
    40  C    0.436251  -0.000565
    41  C    0.054500   0.000488
    42  H   -0.037286   0.000012
    43  H   -0.050875   0.000013
    44  H   -0.004842   0.000011
    45  H    0.019940  -0.000012
    46  H    0.022278  -0.000213
 Sum of Mulliken charges =  -0.00000   5.00000

 Dipole moment (field-independent basis, Debye):
    X=              3.2003    Y=            -13.2045    Z=             -5.6470  Tot=             14.7136
 Quadrupole moment (field-independent basis, Debye-Ang):
   XX=           -200.0001   YY=           -148.4890   ZZ=           -169.3873
   XY=             27.2966   XZ=             11.6287   YZ=              6.6485

 Normal termination of Gaussian 16 at Sun Jun 20 09:31:37 2021.
