 Gaussian 16, Revision A.03,

 -----------------------------------------------------------
 #p opt=modredundant freq=noraman ub3lyp jul-cc-pvdz pop=cm5
 -----------------------------------------------------------

 -----
 title
 -----
 Symbolic Z-matrix:
 Charge =  0 Multiplicity = 6

 SCF Done:  E(UB3LYP) =  -3531.41212372     A.U. after   22 cycles
 SCF Done:  E(UB3LYP) =  -3531.41212374     A.U. after    9 cycles
 SCF Done:  E(UB3LYP) =  -3531.41212301     A.U. after   12 cycles
 SCF Done:  E(UB3LYP) =  -3531.41212387     A.U. after   11 cycles
 SCF Done:  E(UB3LYP) =  -3531.41212391     A.U. after   10 cycles
 SCF Done:  E(UB3LYP) =  -3531.41212389     A.U. after    9 cycles
 Optimization completed.
    -- Stationary point found.
 Normal termination of Gaussian 16 at Tue Jun 22 02:37:18 2021.

 ----------------------------------------------------------------------
 #P Geom=AllCheck Guess=TCheck SCRF=Check GenChk UB3LYP/Jul-CC-pVDZ Fre
 q
 ----------------------------------------------------------------------

 Structure from the checkpoint file:  "checkpoint.chk"
 -----
 title
 -----
 Charge =  0 Multiplicity = 6

 SCF Done:  E(UB3LYP) =  -3531.41212389     A.U. after    1 cycles

  Exact polarizability: 286.124   6.773 299.099  23.285   4.450 285.780
 Approx polarizability: 418.189   8.980 475.495  42.805   3.150 452.410

 ******    1 imaginary frequencies (negative Signs) ******

                      1                      2                      3
                      A                      A                      A
 Frequencies --   -119.6898                20.3444                21.2054
 Red. masses --      9.6794                 4.9658                 6.3555
 Frc consts  --      0.0817                 0.0012                 0.0017
 IR Inten    --    141.9786                 0.5704                 0.3109

                      4                      5                      6
                      A                      A                      A
 Frequencies --     34.8633                40.6964                47.2584
 Red. masses --      5.3320                 4.6290                 5.2683
 Frc consts  --      0.0038                 0.0045                 0.0069
 IR Inten    --      1.3302                 0.1907                 1.9285

                      7                      8                      9
                      A                      A                      A
 Frequencies --     62.0499                69.8022                78.1357
 Red. masses --      2.4425                 5.3159                10.9142
 Frc consts  --      0.0055                 0.0153                 0.0393
 IR Inten    --      0.2775                 2.3742                 0.7543

                     10                     11                     12
                      A                      A                      A
 Frequencies --     84.2779                92.8880               104.0422
 Red. masses --      8.5995                13.1331                 6.8678
 Frc consts  --      0.0360                 0.0668                 0.0438
 IR Inten    --      2.5255                 2.8046                 0.7977

                     13                     14                     15
                      A                      A                      A
 Frequencies --    114.7526               119.6259               123.2466
 Red. masses --     15.8770                 7.6935                 4.4863
 Frc consts  --      0.1232                 0.0649                 0.0402
 IR Inten    --      2.1679                10.4775                 1.6154

                     16                     17                     18
                      A                      A                      A
 Frequencies --    131.9428               155.3703               172.9231
 Red. masses --      4.1509                 4.1146                 2.3515
 Frc consts  --      0.0426                 0.0585                 0.0414
 IR Inten    --      4.6731                 7.3754                 1.1135

                     19                     20                     21
                      A                      A                      A
 Frequencies --    190.2283               193.6061               212.0438
 Red. masses --      4.5630                 3.1283                 1.3121
 Frc consts  --      0.0973                 0.0691                 0.0348
 IR Inten    --     16.3041                 0.6386                 7.2363

                     22                     23                     24
                      A                      A                      A
 Frequencies --    223.0475               235.4832               248.6749
 Red. masses --      4.3113                 3.4644                 2.5533
 Frc consts  --      0.1264                 0.1132                 0.0930
 IR Inten    --      2.3205                 2.6053                 7.5393

                     25                     26                     27
                      A                      A                      A
 Frequencies --    255.9344               257.1766               295.4816
 Red. masses --      1.4253                 1.3199                 3.5554
 Frc consts  --      0.0550                 0.0514                 0.1829
 IR Inten    --      5.0360                 4.4509                 3.7597

                     28                     29                     30
                      A                      A                      A
 Frequencies --    313.4456               327.2553               347.3227
 Red. masses --      2.9205                 3.6799                 3.7842
 Frc consts  --      0.1691                 0.2322                 0.2690
 IR Inten    --      0.0373                 9.4835                 4.1803

                     31                     32                     33
                      A                      A                      A
 Frequencies --    348.7472               375.2583               392.1755
 Red. masses --     22.6740                 3.1476                27.8710
 Frc consts  --      1.6248                 0.2611                 2.5256
 IR Inten    --     28.0903                 3.3160                82.9505

                     34                     35                     36
                      A                      A                      A
 Frequencies --    398.6286               402.3775               409.6723
 Red. masses --      3.6123                33.2852                 2.9816
 Frc consts  --      0.3382                 3.1752                 0.2948
 IR Inten    --      3.1289                90.2788                 2.5687

                     37                     38                     39
                      A                      A                      A
 Frequencies --    413.2228               462.3347               495.5354
 Red. masses --      4.6956                 3.7101                 2.9999
 Frc consts  --      0.4724                 0.4673                 0.4340
 IR Inten    --     19.4752                 6.4382                 5.6969

                     40                     41                     42
                      A                      A                      A
 Frequencies --    513.3758               538.7870               613.7997
 Red. masses --      3.0469                 3.1196                 4.3114
 Frc consts  --      0.4731                 0.5336                 0.9570
 IR Inten    --      8.0556                11.5432                12.7733

                     43                     44                     45
                      A                      A                      A
 Frequencies --    623.8005               639.2724               660.5909
 Red. masses --      4.9360                 3.4043                 6.5335
 Frc consts  --      1.1317                 0.8197                 1.6798
 IR Inten    --      4.0254                11.0995                20.0883

                     46                     47                     48
                      A                      A                      A
 Frequencies --    705.9278               724.7368               757.9283
 Red. masses --      1.5726                 5.4589                 2.8079
 Frc consts  --      0.4617                 1.6893                 0.9503
 IR Inten    --     43.3260                13.4518                 9.6806

                     49                     50                     51
                      A                      A                      A
 Frequencies --    781.5072               788.7563               805.9887
 Red. masses --      2.9130                 3.4887                 1.1572
 Frc consts  --      1.0482                 1.2788                 0.4429
 IR Inten    --     14.3049                 5.0763                 0.8524

                     52                     53                     54
                      A                      A                      A
 Frequencies --    838.4269               844.8071               862.7258
 Red. masses --      4.6915                 1.2612                 2.1974
 Frc consts  --      1.9431                 0.5303                 0.9636
 IR Inten    --     36.7521                 0.8081                11.0443

                     55                     56                     57
                      A                      A                      A
 Frequencies --    872.8559               912.0295               923.8876
 Red. masses --      2.5094                 1.4128                 1.5813
 Frc consts  --      1.1264                 0.6924                 0.7952
 IR Inten    --      7.9291                 7.1339                46.0303

                     58                     59                     60
                      A                      A                      A
 Frequencies --    928.9729               937.1441               959.5861
 Red. masses --      2.2628                 2.1525                 3.4835
 Frc consts  --      1.1506                 1.1138                 1.8899
 IR Inten    --      7.1391                42.5018                55.0190

                     61                     62                     63
                      A                      A                      A
 Frequencies --    978.5139               981.2156              1001.3716
 Red. masses --      2.2201                 1.3690                 1.3305
 Frc consts  --      1.2524                 0.7766                 0.7861
 IR Inten    --     15.8621                 1.9038                 1.8388

                     64                     65                     66
                      A                      A                      A
 Frequencies --   1005.2206              1007.9902              1014.5663
 Red. masses --      5.0480                 1.6927                 2.0032
 Frc consts  --      3.0053                 1.0133                 1.2149
 IR Inten    --      1.9162                 9.8645                28.4444

                     67                     68                     69
                      A                      A                      A
 Frequencies --   1030.7438              1044.0032              1047.7970
 Red. masses --      1.9545                 2.1209                 2.6224
 Frc consts  --      1.2235                 1.3620                 1.6963
 IR Inten    --      8.0623                32.1160                 4.8109

                     70                     71                     72
                      A                      A                      A
 Frequencies --   1058.3809              1082.8701              1099.4773
 Red. masses --      1.8858                 1.8663                 2.1016
 Frc consts  --      1.2446                 1.2894                 1.4968
 IR Inten    --     13.9554                 9.5908                21.7558

                     73                     74                     75
                      A                      A                      A
 Frequencies --   1114.2465              1120.6512              1132.6892
 Red. masses --      1.6300                 2.2086                 2.1792
 Frc consts  --      1.1923                 1.6342                 1.6473
 IR Inten    --      3.3772                12.3534                 9.1156

                     76                     77                     78
                      A                      A                      A
 Frequencies --   1158.9629              1169.1394              1174.9710
 Red. masses --      1.6171                 1.5558                 1.0852
 Frc consts  --      1.2797                 1.2529                 0.8827
 IR Inten    --     36.2838                 1.6016                 0.3068

                     79                     80                     81
                      A                      A                      A
 Frequencies --   1198.2801              1207.4751              1222.7614
 Red. masses --      1.8992                 1.1503                 1.8682
 Frc consts  --      1.6067                 0.9881                 1.6457
 IR Inten    --    147.6311                 6.0098                88.1472

                     82                     83                     84
                      A                      A                      A
 Frequencies --   1245.6108              1265.3575              1283.0027
 Red. masses --      1.8203                 2.5451                 1.1104
 Frc consts  --      1.6640                 2.4010                 1.0769
 IR Inten    --     27.5020                52.2952                 1.3707

                     85                     86                     87
                      A                      A                      A
 Frequencies --   1299.3801              1304.6399              1316.1151
 Red. masses --      1.9811                 1.8174                 1.3548
 Frc consts  --      1.9707                 1.8226                 1.3826
 IR Inten    --     55.7874                 7.1164                 3.1928

                     88                     89                     90
                      A                      A                      A
 Frequencies --   1325.1975              1333.7312              1358.5414
 Red. masses --      1.8546                 1.7880                 2.1926
 Frc consts  --      1.9189                 1.8739                 2.3842
 IR Inten    --     27.4939                31.8165                 0.0776

                     91                     92                     93
                      A                      A                      A
 Frequencies --   1362.2332              1380.2988              1388.1542
 Red. masses --      1.4192                 1.4705                 1.5152
 Frc consts  --      1.5516                 1.6506                 1.7203
 IR Inten    --     32.3212                10.7738                55.7815

                     94                     95                     96
                      A                      A                      A
 Frequencies --   1405.2593              1408.8709              1416.1730
 Red. masses --      1.4341                 1.2636                 1.4839
 Frc consts  --      1.6686                 1.4777                 1.7534
 IR Inten    --     30.4385                21.1869                 4.9372

                     97                     98                     99
                      A                      A                      A
 Frequencies --   1454.7609              1466.6302              1473.5342
 Red. masses --      1.0856                 2.2238                 1.0394
 Frc consts  --      1.3536                 2.8183                 1.3297
 IR Inten    --      1.1728                 8.4465                 4.0263

                    100                    101                    102
                      A                      A                      A
 Frequencies --   1474.2243              1477.2603              1486.7448
 Red. masses --      1.0937                 1.0875                 1.0778
 Frc consts  --      1.4005                 1.3983                 1.4036
 IR Inten    --      0.2978                 0.7265                 4.1402

                    103                    104                    105
                      A                      A                      A
 Frequencies --   1487.3808              1497.6598              1507.0593
 Red. masses --      1.0528                 1.0930                 1.0843
 Frc consts  --      1.3723                 1.4445                 1.4510
 IR Inten    --      1.4393                11.1883                 6.0451

                    106                    107                    108
                      A                      A                      A
 Frequencies --   1509.6972              1523.0966              1623.4301
 Red. masses --      1.0764                 2.2531                 5.6103
 Frc consts  --      1.4454                 3.0795                 8.7118
 IR Inten    --      4.3360                 3.0961                 0.4390

                    109                    110                    111
                      A                      A                      A
 Frequencies --   1646.8436              1771.9244              3019.2016
 Red. masses --      5.7700                11.5834                 1.0469
 Frc consts  --      9.2201                21.4277                 5.6227
 IR Inten    --      0.0165               205.9477                 1.0275

                    112                    113                    114
                      A                      A                      A
 Frequencies --   3028.4830              3040.1395              3055.9905
 Red. masses --      1.0478                 1.0355                 1.0603
 Frc consts  --      5.6620                 5.6388                 5.8340
 IR Inten    --     10.3367                19.2409                11.2091

                    115                    116                    117
                      A                      A                      A
 Frequencies --   3058.3667              3062.2825              3082.0140
 Red. masses --      1.0583                 1.0614                 1.0865
 Frc consts  --      5.8325                 5.8643                 6.0807
 IR Inten    --     16.0107                38.5139                 7.0524

                    118                    119                    120
                      A                      A                      A
 Frequencies --   3095.3264              3102.2039              3111.5142
 Red. masses --      1.1030                 1.1069                 1.0864
 Frc consts  --      6.2264                 6.2764                 6.1973
 IR Inten    --      7.7328                 6.6433                 2.3312

                    121                    122                    123
                      A                      A                      A
 Frequencies --   3113.0490              3115.7870              3122.5813
 Red. masses --      1.1034                 1.1020                 1.0853
 Frc consts  --      6.3004                 6.3035                 6.2349
 IR Inten    --     17.0199                21.6042                 4.1017

                    124                    125                    126
                      A                      A                      A
 Frequencies --   3133.1488              3142.7799              3157.8578
 Red. masses --      1.1045                 1.0886                 1.1055
 Frc consts  --      6.3882                 6.3350                 6.4954
 IR Inten    --     23.9305                 9.2412                 3.3440

                    127                    128                    129
                      A                      A                      A
 Frequencies --   3165.6768              3170.0253              3180.1224
 Red. masses --      1.1044                 1.0849                 1.0886
 Frc consts  --      6.5211                 6.4234                 6.4864
 IR Inten    --      4.6694                 0.0227                 7.5042

                    130                    131                    132
                      A                      A                      A
 Frequencies --   3189.7208              3196.6785              3200.6623
 Red. masses --      1.0920                 1.0938                 1.0981
 Frc consts  --      6.5463                 6.5857                 6.6276
 IR Inten    --     11.0973                 8.2416                10.5502

 - Thermochemistry -
 -------------------
 Temperature   298.150 Kelvin.  Pressure   1.00000 Atm.
 Atom     1 has atomic number  6 and mass  12.00000

 Molecular mass:   434.99839 amu.
 Principal axes and moments of inertia in atomic units:
                           1         2         3
     Eigenvalues --  9016.64660********************
           X            0.99541   0.09480   0.01328
           Y           -0.09503   0.99531   0.01787
           Z           -0.01153  -0.01905   0.99975
 This molecule is an asymmetric top.
 Rotational symmetry number  1.
 Warning -- assumption of classical behavior for rotation
           may cause significant error
 Rotational temperatures (Kelvin)      0.00961     0.00744     0.00682
 Rotational constants (GHZ):           0.20016     0.15502     0.14206
    1 imaginary frequencies ignored.
 Zero-point vibrational energy     941423.6 (Joules/Mol)
                                  225.00564 (Kcal/Mol)
 Warning -- explicit consideration of  41 degrees of freedom as
           vibrations may cause significant error
 Vibrational temperatures:     29.27    30.51    50.16    58.55    67.99
          (Kelvin)             89.28   100.43   112.42   121.26   133.65
                              149.69   165.10   172.12   177.32   189.84
                              223.54   248.80   273.70   278.56   305.08
                              320.92   338.81   357.79   368.23   370.02
                              425.13   450.98   470.85   499.72   501.77
                              539.91   564.25   573.54   578.93   589.43
                              594.54   665.20   712.96   738.63   775.19
                              883.12   897.51   919.77   950.44  1015.67
                             1042.73  1090.49  1124.41  1134.84  1159.64
                             1206.31  1215.49  1241.27  1255.84  1312.21
                             1329.27  1336.58  1348.34  1380.63  1407.86
                             1411.75  1440.75  1446.29  1450.27  1459.73
                             1483.01  1502.09  1507.55  1522.77  1558.01
                             1581.90  1603.15  1612.37  1629.69  1667.49
                             1682.13  1690.52  1724.06  1737.29  1759.28
                             1792.16  1820.57  1845.95  1869.52  1877.09
                             1893.60  1906.66  1918.94  1954.64  1959.95
                             1985.94  1997.24  2021.85  2027.05  2037.56
                             2093.08  2110.15  2120.09  2121.08  2125.45
                             2139.09  2140.01  2154.80  2168.32  2172.12
                             2191.40  2335.75  2369.44  2549.40  4343.96
                             4357.31  4374.08  4396.89  4400.31  4405.94
                             4434.33  4453.48  4463.38  4476.77  4478.98
                             4482.92  4492.70  4507.90  4521.76  4543.45
                             4554.70  4560.96  4575.49  4589.30  4599.31
                             4605.04

 Zero-point correction=                           0.358569 (Hartree/Particle)
 Thermal correction to Energy=                    0.385651
 Thermal correction to Enthalpy=                  0.386596
 Thermal correction to Gibbs Free Energy=         0.296806
 Sum of electronic and zero-point Energies=          -3531.053555
 Sum of electronic and thermal Energies=             -3531.026472
 Sum of electronic and thermal Enthalpies=           -3531.025528
 Sum of electronic and thermal Free Energies=        -3531.115318

                     E (Thermal)             CV                S
                      KCal/Mol        Cal/Mol-Kelvin    Cal/Mol-Kelvin
 Total                  242.000             97.347            188.978
 Electronic               0.000              0.000              3.561
 Translational            0.889              2.981             44.100
 Rotational               0.889              2.981             35.543
 Vibrational            240.222             91.386            105.774
 Vibration     1          0.593              1.986              6.600
 Vibration     2          0.593              1.985              6.518
 Vibration     3          0.594              1.983              5.531
 Vibration     4          0.594              1.981              5.225
 Vibration     5          0.595              1.979              4.929
 Vibration     6          0.597              1.972              4.391
 Vibration     7          0.598              1.969              4.159
 Vibration     8          0.599              1.964              3.937
 Vibration     9          0.601              1.960              3.789
 Vibration    10          0.602              1.954              3.598
 Vibration    11          0.605              1.946              3.377
 Vibration    12          0.608              1.937              3.187
 Vibration    13          0.609              1.933              3.106
 Vibration    14          0.610              1.930              3.049
 Vibration    15          0.612              1.921              2.918
 Vibration    16          0.620              1.897              2.605
 Vibration    17          0.626              1.876              2.403
 Vibration    18          0.634              1.853              2.226
 Vibration    19          0.635              1.849              2.193
 Vibration    20          0.643              1.823              2.026
 Vibration    21          0.649              1.806              1.934
 Vibration    22          0.655              1.786              1.837
 Vibration    23          0.662              1.765              1.740
 Vibration    24          0.666              1.753              1.689
 Vibration    25          0.667              1.751              1.681
 Vibration    26          0.690              1.682              1.442
 Vibration    27          0.701              1.648              1.344
 Vibration    28          0.711              1.621              1.274
 Vibration    29          0.725              1.581              1.178
 Vibration    30          0.726              1.578              1.172
 Vibration    31          0.746              1.523              1.058
 Vibration    32          0.760              1.487              0.992
 Vibration    33          0.765              1.473              0.968
 Vibration    34          0.768              1.465              0.954
 Vibration    35          0.774              1.449              0.928
 Vibration    36          0.777              1.442              0.915
 Vibration    37          0.820              1.334              0.759
 Vibration    38          0.851              1.260              0.669
 Vibration    39          0.868              1.220              0.626
 Vibration    40          0.894              1.164              0.568
 Vibration    41          0.973              1.003              0.427

                           ! Non-Optimized Parameters !
 Normal termination of Gaussian 16 at Tue Jun 22 07:59:20 2021.

 ----------------------------------------------------------------------
 #p ub3lyp jul-cc-pvdz pop=cm5 scrf=(pcm,solvent=dichloroethane) guess=
 read geom=allcheck
 ----------------------------------------------------------------------

 Structure from the checkpoint file:  "checkpoint.chk"
 -----
 title
 -----
 Charge =  0 Multiplicity = 6

 SCF Done:  E(UB3LYP) =  -3531.43176137     A.U. after   18 cycles
 Normal termination of Gaussian 16 at Tue Jun 22 08:31:18 2021.
 Gaussian 16:  ES64L-G16RevA.03 25-Dec-2016

 ----------------------------------------------------------------------
 #p ub3lyp jul-cc-pvdz pop=cm5 scrf=(pcm,solvent=water) guess=read geom
 =allcheck
 ----------------------------------------------------------------------

 Structure from the checkpoint file:  "checkpoint.chk"
 -----
 title
 -----
 Charge =  0 Multiplicity = 6

                         Standard orientation:
 ---------------------------------------------------------------------
 Center     Atomic      Atomic             Coordinates (Angstroms)
 Number     Number       Type             X           Y           Z
 ---------------------------------------------------------------------
      1          6           0        1.690524   -2.140945    1.691582
      2          6           0        1.137420   -1.015542    1.064302
      3          6           0        1.197067    0.220501    1.728461
      4          6           0        1.770615    0.319291    2.996808
      5          6           0        2.311592   -0.810273    3.617440
      6          6           0        2.275762   -2.039979    2.956936
      7          6           0        0.554435   -1.100926   -0.320809
      8          6           0        1.477204   -0.704201   -1.510534
      9          6           0        1.996301   -2.034796   -2.091425
     10          6           0        0.787196   -2.990441   -2.140810
     11          6           0       -0.027009   -2.710285   -0.879265
     12          6           0       -1.446932   -2.139983   -0.948649
     13          6           0       -2.105756   -1.934509   -2.277863
     14          8           0       -0.802794   -0.534155   -0.452250
     15         26           0       -1.912283    0.979075    0.247509
     16         17           0       -3.745956    0.941769   -0.992198
     17          6           0       -2.356002   -2.561066    0.167436
     18         17           0       -0.829622    2.878294   -0.010026
     19         17           0       -2.412265    0.541524    2.347960
     20          1           0        0.800106    1.119392    1.258631
     21          1           0        1.791687    1.286307    3.500820
     22          1           0        2.759908   -0.731372    4.608840
     23          1           0        2.701573   -2.928212    3.425695
     24          1           0        1.681665   -3.108822    1.192339
     25          1           0        0.841247   -0.187755   -2.240492
     26          6           0        2.633157    0.223559   -1.152072
     27          1           0        2.460791   -1.888624   -3.076061
     28          1           0        2.775324   -2.426178   -1.423117
     29          1           0        0.201402   -2.808366   -3.050856
     30          1           0        1.112292   -4.038711   -2.180472
     31          1           0        0.056797   -3.476807   -0.105642
     32          1           0       -2.659670   -3.600394   -0.046043
     33          1           0       -1.846882   -2.546099    1.137003
     34          1           0       -3.260295   -1.944327    0.215544
     35          1           0       -2.370780   -2.931560   -2.668378
     36          1           0       -3.023393   -1.346984   -2.174987
     37          1           0       -1.447442   -1.449432   -3.004985
     38          8           0        2.313234    1.509246   -1.375417
     39          8           0        3.709817   -0.150871   -0.737748
     40          6           0        3.334753    2.494845   -1.052014
     41          6           0        2.819811    3.851354   -1.487747
     42          1           0        3.521464    2.446967    0.029543
     43          1           0        4.261694    2.211259   -1.568078
     44          1           0        3.567778    4.618855   -1.241331
     45          1           0        2.643752    3.875764   -2.572181
     46          1           0        1.880781    4.098791   -0.975885
 ---------------------------------------------------------------------

 SCF Done:  E(UB3LYP) =  -3531.43548801     A.U. after   14 cycles

 The electronic state is 6-A.
 Alpha  occ. eigenvalues -- -256.21437-101.52979-101.52863-101.52714 -30.20796
 Alpha  occ. eigenvalues --  -26.06167 -26.06017 -26.05918 -19.20296 -19.20177
 Alpha  occ. eigenvalues --  -19.15166 -10.32820 -10.30443 -10.29465 -10.24742
 Alpha  occ. eigenvalues --  -10.22762 -10.21958 -10.21615 -10.20506 -10.20352
 Alpha  occ. eigenvalues --  -10.20350 -10.20289 -10.20258 -10.20216 -10.20165
 Alpha  occ. eigenvalues --  -10.19915 -10.19885 -10.18592  -9.44697  -9.44592
 Alpha  occ. eigenvalues --   -9.44443  -7.20563  -7.20461  -7.20315  -7.20257
 Alpha  occ. eigenvalues --   -7.20235  -7.20153  -7.20121  -7.19991  -7.19986
 Alpha  occ. eigenvalues --   -3.68430  -2.45991  -2.45780  -2.45550  -1.12030
 Alpha  occ. eigenvalues --   -1.04346  -1.03565  -0.87587  -0.85500  -0.83626
 Alpha  occ. eigenvalues --   -0.80965  -0.80224  -0.80070  -0.78565  -0.77819
 Alpha  occ. eigenvalues --   -0.76119  -0.74615  -0.72513  -0.70732  -0.66439
 Alpha  occ. eigenvalues --   -0.64022  -0.62118  -0.60924  -0.59330  -0.56835
 Alpha  occ. eigenvalues --   -0.55915  -0.54098  -0.52392  -0.51317  -0.50576
 Alpha  occ. eigenvalues --   -0.49960  -0.49261  -0.48957  -0.48715  -0.48535
 Alpha  occ. eigenvalues --   -0.48135  -0.47656  -0.47060  -0.46337  -0.45987
 Alpha  occ. eigenvalues --   -0.45450  -0.44638  -0.43894  -0.43247  -0.42816
 Alpha  occ. eigenvalues --   -0.42010  -0.41275  -0.40510  -0.40005  -0.39649
 Alpha  occ. eigenvalues --   -0.39202  -0.38913  -0.37976  -0.37610  -0.37199
 Alpha  occ. eigenvalues --   -0.36866  -0.36653  -0.36132  -0.35746  -0.35576
 Alpha  occ. eigenvalues --   -0.34944  -0.34398  -0.34064  -0.32634  -0.31974
 Alpha  occ. eigenvalues --   -0.31553  -0.31435  -0.31366  -0.31305  -0.30257
 Alpha  occ. eigenvalues --   -0.30167  -0.29934  -0.28755  -0.26837  -0.26352
 Alpha virt. eigenvalues --   -0.06286  -0.03580  -0.03006  -0.01485  -0.01274
 Alpha virt. eigenvalues --   -0.00162  -0.00056   0.00114   0.01490   0.01595
 Alpha virt. eigenvalues --    0.01747   0.01872   0.02344   0.03203   0.03734

  Beta  occ. eigenvalues -- -256.21252-101.52783-101.52668-101.52518 -30.11893
  Beta  occ. eigenvalues --  -25.98650 -25.98629 -25.98558 -19.20296 -19.19768
  Beta  occ. eigenvalues --  -19.15164 -10.32819 -10.30433 -10.29438 -10.24742
  Beta  occ. eigenvalues --  -10.22744 -10.21951 -10.21611 -10.20504 -10.20352
  Beta  occ. eigenvalues --  -10.20349 -10.20288 -10.20257 -10.20215 -10.20162
  Beta  occ. eigenvalues --  -10.19913 -10.19884 -10.18591  -9.44505  -9.44401
  Beta  occ. eigenvalues --   -9.44251  -7.20253  -7.20143  -7.19998  -7.19982
  Beta  occ. eigenvalues --   -7.19972  -7.19881  -7.19867  -7.19725  -7.19720
  Beta  occ. eigenvalues --   -3.47656  -2.23963  -2.23856  -2.23819  -1.12028
  Beta  occ. eigenvalues --   -1.03611  -1.03521  -0.87550  -0.85376  -0.83592
  Beta  occ. eigenvalues --   -0.79710  -0.78891  -0.78717  -0.78545  -0.77773
  Beta  occ. eigenvalues --   -0.76112  -0.74596  -0.72495  -0.70576  -0.66391
  Beta  occ. eigenvalues --   -0.63987  -0.62102  -0.60887  -0.59168  -0.56753
  Beta  occ. eigenvalues --   -0.55375  -0.54049  -0.51766  -0.51209  -0.50077
  Beta  occ. eigenvalues --   -0.49637  -0.48838  -0.47553  -0.47126  -0.46408
  Beta  occ. eigenvalues --   -0.45650  -0.44645  -0.43897  -0.43291  -0.42818
  Beta  occ. eigenvalues --   -0.42035  -0.41262  -0.40485  -0.40013  -0.39552
  Beta  occ. eigenvalues --   -0.38980  -0.38799  -0.38015  -0.37675  -0.37247
  Beta  occ. eigenvalues --   -0.36991  -0.36770  -0.36507  -0.36461  -0.36004
  Beta  occ. eigenvalues --   -0.35614  -0.35535  -0.34129  -0.33805  -0.33607
  Beta  occ. eigenvalues --   -0.33003  -0.32859  -0.31869  -0.31355  -0.30722
  Beta  occ. eigenvalues --   -0.30411  -0.30119  -0.28828  -0.26824  -0.26324
  Beta virt. eigenvalues --   -0.15459  -0.15010  -0.14080  -0.13854  -0.13551
  Beta virt. eigenvalues --   -0.05852  -0.03500  -0.02968  -0.01373  -0.01235
  Beta virt. eigenvalues --   -0.00100  -0.00034   0.00138   0.01512   0.01622

 Mulliken charges and spin densities:
               1          2
     1  C   -0.189310   0.005674
     2  C    3.063175  -0.004304
     3  C   -0.393575  -0.016940
     4  C    0.054556   0.000529
     5  C    0.233028   0.000077
     6  C   -0.165760   0.001496
     7  C   -2.081667   0.030634
     8  C    0.202587   0.000089
     9  C    0.461806   0.001650
    10  C    0.557043   0.000673
    11  C    0.774237   0.006356
    12  C   -0.788012   0.010538
    13  C    0.426160  -0.002914
    14  O   -0.262950   0.112746
    15  Fe   0.569328   4.052051
    16  Cl  -0.476981   0.266995
    17  C    0.449909   0.000832
    18  Cl  -0.442712   0.268846
    19  Cl  -0.447750   0.261243
    20  H   -0.314661   0.000840
    21  H   -0.162012   0.000025
    22  H   -0.163059   0.000029
    23  H   -0.160186   0.000031
    24  H   -0.198229   0.000019
    25  H   -0.213436  -0.000055
    26  C    1.020860   0.000658
    27  H   -0.141123   0.000407
    28  H   -0.048024  -0.000003
    29  H   -0.099215  -0.000016
    30  H   -0.124159   0.000490
    31  H   -0.241093   0.001303
    32  H    0.028403   0.000152
    33  H    0.052319  -0.000670
    34  H    0.034890   0.000105
    35  H    0.047203   0.002034
    36  H    0.025039  -0.000486
    37  H    0.047104  -0.000290
    38  O   -0.696115  -0.001115
    39  O   -0.659448   0.000689
    40  C    0.407824  -0.000835
    41  C    0.060905   0.000999
    42  H   -0.041347   0.000022
    43  H   -0.049019  -0.000005
    44  H   -0.003496   0.000072
    45  H    0.020966   0.000002
    46  H    0.025997  -0.000674
 Sum of Mulliken charges =  -0.00000   5.00000

 Dipole moment (field-independent basis, Debye):
    X=              3.5586    Y=             -9.1518    Z=             -4.2938  Tot=             10.7171
 Quadrupole moment (field-independent basis, Debye-Ang):
   XX=           -197.7476   YY=           -154.8470   ZZ=           -167.5732
   XY=             22.0017   XZ=              7.7734   YZ=              5.7907

 Normal termination of Gaussian 16 at Tue Jun 22 08:54:50 2021.
