 Gaussian 16, Revision A.03,

 -----------------------------------------------------------
 #p opt=modredundant freq=noraman ub3lyp jul-cc-pvdz pop=cm5
 -----------------------------------------------------------

 -----
 title
 -----
 Symbolic Z-matrix:
 Charge =  0 Multiplicity = 6

 SCF Done:  E(UB3LYP) =  -3531.40384728     A.U. after   26 cycles
 SCF Done:  E(UB3LYP) =  -3531.40309048     A.U. after   18 cycles
 SCF Done:  E(UB3LYP) =  -3531.40085264     A.U. after   19 cycles
 SCF Done:  E(UB3LYP) =  -3531.39954801     A.U. after   18 cycles
 SCF Done:  E(UB3LYP) =  -3531.40399603     A.U. after   14 cycles
 SCF Done:  E(UB3LYP) =  -3531.40365854     A.U. after   16 cycles
 SCF Done:  E(UB3LYP) =  -3531.40414474     A.U. after   16 cycles
 SCF Done:  E(UB3LYP) =  -3531.40419407     A.U. after   18 cycles
 SCF Done:  E(UB3LYP) =  -3531.40444416     A.U. after   15 cycles
 SCF Done:  E(UB3LYP) =  -3531.40444581     A.U. after   15 cycles
 SCF Done:  E(UB3LYP) =  -3531.40445767     A.U. after   11 cycles
 SCF Done:  E(UB3LYP) =  -3531.40445784     A.U. after   11 cycles
 SCF Done:  E(UB3LYP) =  -3531.40445792     A.U. after   11 cycles
 SCF Done:  E(UB3LYP) =  -3531.40445759     A.U. after   10 cycles
 SCF Done:  E(UB3LYP) =  -3531.40445763     A.U. after   12 cycles
 SCF Done:  E(UB3LYP) =  -3531.40445792     A.U. after   11 cycles
 SCF Done:  E(UB3LYP) =  -3531.40445871     A.U. after   10 cycles
 Optimization completed.
    -- Stationary point found.
 Normal termination of Gaussian 16 at Sun Jun 20 03:46:42 2021.

 ----------------------------------------------------------------------
 #P Geom=AllCheck Guess=TCheck SCRF=Check GenChk UB3LYP/Jul-CC-pVDZ Fre
 q
 ----------------------------------------------------------------------

 Structure from the checkpoint file:  "checkpoint.chk"
 -----
 title
 -----
 Charge =  0 Multiplicity = 6

 SCF Done:  E(UB3LYP) =  -3531.40445871     A.U. after    2 cycles

  Exact polarizability: 325.438  13.691 292.039  14.140  15.376 294.145
 Approx polarizability: 504.946  33.354 439.166  14.417  31.604 488.021

 ******    1 imaginary frequencies (negative Signs) ******

                      1                      2                      3
                      A                      A                      A
 Frequencies --   -570.8159                13.4341                22.4305
 Red. masses --      9.4896                 4.5957                 8.0817
 Frc consts  --      1.8218                 0.0005                 0.0024
 IR Inten    --    213.2839                 1.8547                 0.2708

                      4                      5                      6
                      A                      A                      A
 Frequencies --     34.7435                41.9036                47.3798
 Red. masses --      7.0543                 3.9526                 5.4200
 Frc consts  --      0.0050                 0.0041                 0.0072
 IR Inten    --      0.2234                 0.5358                 2.2064

                      7                      8                      9
                      A                      A                      A
 Frequencies --     52.1390                64.4245                68.6239
 Red. masses --      2.9108                 6.7564                 4.6227
 Frc consts  --      0.0047                 0.0165                 0.0128
 IR Inten    --      0.3510                 0.7110                 1.7921

                     10                     11                     12
                      A                      A                      A
 Frequencies --     84.5417                90.2871               102.5108
 Red. masses --     11.3301                 7.2061                 8.3232
 Frc consts  --      0.0477                 0.0346                 0.0515
 IR Inten    --      1.1076                 1.2773                 0.7305

                     13                     14                     15
                      A                      A                      A
 Frequencies --    107.4377               110.8648               121.3594
 Red. masses --      8.2529                 3.3473                17.9635
 Frc consts  --      0.0561                 0.0242                 0.1559
 IR Inten    --      7.6519                 0.0559                 0.6555

                     16                     17                     18
                      A                      A                      A
 Frequencies --    131.9929               148.1800               152.9609
 Red. masses --      7.4955                 3.5436                 1.2043
 Frc consts  --      0.0769                 0.0458                 0.0166
 IR Inten    --      2.0265                 0.8936                 2.5089

                     19                     20                     21
                      A                      A                      A
 Frequencies --    171.0539               180.3091               191.7745
 Red. masses --      2.8367                 2.4852                 2.2002
 Frc consts  --      0.0489                 0.0476                 0.0477
 IR Inten    --      7.1574                 4.4645                 0.5258

                     22                     23                     24
                      A                      A                      A
 Frequencies --    195.7991               213.3225               231.0763
 Red. masses --      1.5655                 2.7275                 4.5971
 Frc consts  --      0.0354                 0.0731                 0.1446
 IR Inten    --      2.7630                 4.1129                 6.0447

                     25                     26                     27
                      A                      A                      A
 Frequencies --    246.9430               261.1580               293.7963
 Red. masses --      2.6960                 2.0351                 4.2691
 Frc consts  --      0.0969                 0.0818                 0.2171
 IR Inten    --      7.2845                 5.4266                 4.7935

                     28                     29                     30
                      A                      A                      A
 Frequencies --    316.3421               321.3435               335.0389
 Red. masses --      2.7861                 4.1564                24.7340
 Frc consts  --      0.1643                 0.2529                 1.6358
 IR Inten    --      6.9770                21.5630                61.1147

                     31                     32                     33
                      A                      A                      A
 Frequencies --    353.1052               374.1413               375.7602
 Red. masses --      7.5637                11.1014                 4.8396
 Frc consts  --      0.5556                 0.9156                 0.4026
 IR Inten    --      6.1359                62.2596                27.4799

                     34                     35                     36
                      A                      A                      A
 Frequencies --    389.5355               408.3471               410.3883
 Red. masses --     31.1850                 3.0263                 2.8778
 Frc consts  --      2.7880                 0.2973                 0.2856
 IR Inten    --     76.8295                 8.2660                 4.2703

                     37                     38                     39
                      A                      A                      A
 Frequencies --    432.4365               452.2666               469.4581
 Red. masses --      3.4325                 4.3003                 3.2256
 Frc consts  --      0.3782                 0.5182                 0.4189
 IR Inten    --     13.4157                29.0406                19.4822

                     40                     41                     42
                      A                      A                      A
 Frequencies --    507.4861               524.8432               571.2618
 Red. masses --      2.5408                 3.3295                 3.2061
 Frc consts  --      0.3855                 0.5404                 0.6164
 IR Inten    --      3.8921                 4.0928                51.4930

                     43                     44                     45
                      A                      A                      A
 Frequencies --    610.4716               627.7126               646.7190
 Red. masses --      3.5791                 5.9332                 4.9064
 Frc consts  --      0.7859                 1.3774                 1.2091
 IR Inten    --     21.3527                 3.0660                81.7296

                     46                     47                     48
                      A                      A                      A
 Frequencies --    697.0059               708.2216               761.5005
 Red. masses --      1.7454                 4.2047                 4.4644
 Frc consts  --      0.4996                 1.2426                 1.5253
 IR Inten    --     34.5436                50.0258                 5.2991

                     49                     50                     51
                      A                      A                      A
 Frequencies --    763.8156               802.3881               803.8958
 Red. masses --      2.4391                 2.7044                 1.2349
 Frc consts  --      0.8384                 1.0258                 0.4702
 IR Inten    --      9.8164                 4.8870                 6.2302

                     52                     53                     54
                      A                      A                      A
 Frequencies --    826.4517               841.6308               851.2594
 Red. masses --      3.7892                 1.2646                 1.3363
 Frc consts  --      1.5249                 0.5278                 0.5705
 IR Inten    --     31.0909                 0.9741                 1.3618

                     55                     56                     57
                      A                      A                      A
 Frequencies --    861.7431               876.2470               914.1765
 Red. masses --      2.2666                 2.0548                 2.3022
 Frc consts  --      0.9917                 0.9295                 1.1336
 IR Inten    --     16.8447                14.8937                11.1565

                     58                     59                     60
                      A                      A                      A
 Frequencies --    933.7063               957.6391               966.7342
 Red. masses --      1.4425                 2.2859                 1.5929
 Frc consts  --      0.7409                 1.2351                 0.8771
 IR Inten    --      4.8836                14.2043                36.1238

                     61                     62                     63
                      A                      A                      A
 Frequencies --    983.9194               994.0103              1000.6619
 Red. masses --      1.4113                 1.9160                 1.9065
 Frc consts  --      0.8050                 1.1154                 1.1247
 IR Inten    --      3.2238                15.5959                10.6169

                     64                     65                     66
                      A                      A                      A
 Frequencies --   1000.9286              1006.8974              1010.7583
 Red. masses --      2.5235                 2.4602                 1.4320
 Frc consts  --      1.4896                 1.4696                 0.8620
 IR Inten    --      5.1934                 4.9017                 2.3303

                     67                     68                     69
                      A                      A                      A
 Frequencies --   1037.5196              1042.4978              1047.3073
 Red. masses --      2.4282                 2.3323                 2.1530
 Frc consts  --      1.5400                 1.4934                 1.3914
 IR Inten    --     84.5511                18.0332                23.8655

                     70                     71                     72
                      A                      A                      A
 Frequencies --   1065.3441              1086.0471              1105.5148
 Red. masses --      2.2016                 1.7960                 1.6737
 Frc consts  --      1.4722                 1.2481                 1.2052
 IR Inten    --      4.0710                27.3164                27.6906

                     73                     74                     75
                      A                      A                      A
 Frequencies --   1126.8388              1133.5521              1147.2492
 Red. masses --      2.6423                 2.1877                 2.8254
 Frc consts  --      1.9768                 1.6562                 2.1910
 IR Inten    --     24.7256                 9.3396                77.7741

                     76                     77                     78
                      A                      A                      A
 Frequencies --   1161.7970              1170.9305              1174.8887
 Red. masses --      1.6391                 1.6106                 1.0902
 Frc consts  --      1.3035                 1.3011                 0.8867
 IR Inten    --     44.2076                 7.9370                 0.5605

                     79                     80                     81
                      A                      A                      A
 Frequencies --   1198.8775              1206.1887              1229.8275
 Red. masses --      1.4032                 1.4717                 2.0633
 Frc consts  --      1.1883                 1.2615                 1.8386
 IR Inten    --     38.8989                44.7574               174.9026

                     82                     83                     84
                      A                      A                      A
 Frequencies --   1246.3544              1257.2707              1286.2297
 Red. masses --      2.4815                 1.8395                 1.1160
 Frc consts  --      2.2712                 1.7132                 1.0878
 IR Inten    --    191.1149                37.2377                 2.8851

                     85                     86                     87
                      A                      A                      A
 Frequencies --   1318.5087              1321.0291              1328.6732
 Red. masses --      1.4222                 1.4292                 1.5845
 Frc consts  --      1.4567                 1.4695                 1.6481
 IR Inten    --     38.3493                21.2701                45.9907

                     88                     89                     90
                      A                      A                      A
 Frequencies --   1333.7588              1354.5975              1358.8411
 Red. masses --      1.5605                 1.4243                 3.4786
 Frc consts  --      1.6355                 1.5399                 3.7843
 IR Inten    --      6.3147                77.2121                 1.1698

                     91                     92                     93
                      A                      A                      A
 Frequencies --   1366.8486              1381.5749              1386.8202
 Red. masses --      1.3678                 1.2893                 1.4264
 Frc consts  --      1.5056                 1.4500                 1.6163
 IR Inten    --     22.4343                28.5951                79.3080

                     94                     95                     96
                      A                      A                      A
 Frequencies --   1391.8855              1416.4749              1428.9866
 Red. masses --      1.4275                 1.4373                 1.1401
 Frc consts  --      1.6295                 1.6991                 1.3717
 IR Inten    --     52.1260                 5.0033                36.6144

                     97                     98                     99
                      A                      A                      A
 Frequencies --   1442.2948              1467.9617              1473.1384
 Red. masses --      1.1444                 2.1832                 1.0382
 Frc consts  --      1.4026                 2.7719                 1.3274
 IR Inten    --      3.2296                11.4859                 5.2629

                    100                    101                    102
                      A                      A                      A
 Frequencies --   1476.2760              1486.0048              1488.9112
 Red. masses --      1.1910                 1.1158                 1.0542
 Frc consts  --      1.5293                 1.4517                 1.3769
 IR Inten    --      8.4095                24.6146                 3.1759

                    103                    104                    105
                      A                      A                      A
 Frequencies --   1500.4795              1503.3093              1507.2764
 Red. masses --      1.1642                 1.3044                 1.0846
 Frc consts  --      1.5443                 1.7369                 1.4518
 IR Inten    --      9.8805                58.9239                 5.9994

                    106                    107                    108
                      A                      A                      A
 Frequencies --   1515.9694              1526.9616              1618.0873
 Red. masses --      1.9530                 1.8312                 5.6010
 Frc consts  --      2.6444                 2.5156                 8.6401
 IR Inten    --      3.6578                66.2167                 0.4949

                    109                    110                    111
                      A                      A                      A
 Frequencies --   1639.4606              1762.7177              2994.1256
 Red. masses --      5.6722                11.5906                 1.0536
 Frc consts  --      8.9826                21.2188                 5.5651
 IR Inten    --     13.5509               237.2526                 6.1196

                    112                    113                    114
                      A                      A                      A
 Frequencies --   3006.9833              3040.9424              3056.6910
 Red. masses --      1.0504                 1.0361                 1.0628
 Frc consts  --      5.5958                 5.6452                 5.8506
 IR Inten    --      4.8054                20.9745                22.9514

                    115                    116                    117
                      A                      A                      A
 Frequencies --   3059.5612              3071.1247              3074.0102
 Red. masses --      1.0596                 1.0669                 1.0801
 Frc consts  --      5.8440                 5.9287                 6.0136
 IR Inten    --     15.5108                22.3553                 4.3474

                    118                    119                    120
                      A                      A                      A
 Frequencies --   3095.5141              3100.1685              3108.4828
 Red. masses --      1.0809                 1.1019                 1.1049
 Frc consts  --      6.1023                 6.2397                 6.2905
 IR Inten    --      3.3068                 7.5569                10.9166

                    121                    122                    123
                      A                      A                      A
 Frequencies --   3114.1870              3116.6853              3121.4039
 Red. masses --      1.0787                 1.1025                 1.1014
 Frc consts  --      6.1635                 6.3096                 6.3228
 IR Inten    --      4.8574                16.6977                15.2307

                    124                    125                    126
                      A                      A                      A
 Frequencies --   3140.0913              3155.6737              3159.1026
 Red. masses --      1.1042                 1.1061                 1.0884
 Frc consts  --      6.4147                 6.4899                 6.3996
 IR Inten    --     12.7427                 0.5578                 5.8788

                    127                    128                    129
                      A                      A                      A
 Frequencies --   3171.9672              3174.6260              3183.9621
 Red. masses --      1.0857                 1.1048                 1.0908
 Frc consts  --      6.4360                 6.5603                 6.5153
 IR Inten    --      0.2244                 2.6704                 7.7000

                    130                    131                    132
                      A                      A                      A
 Frequencies --   3194.6514              3217.6977              3231.6368
 Red. masses --      1.0967                 1.0922                 1.0919
 Frc consts  --      6.5945                 6.6629                 6.7183
 IR Inten    --     15.9270                 2.9961                 2.7432

 - Thermochemistry -
 -------------------
 Temperature   298.150 Kelvin.  Pressure   1.00000 Atm.
 Atom     1 has atomic number  6 and mass  12.00000

 Molecular mass:   434.99839 amu.
 Principal axes and moments of inertia in atomic units:
                           1         2         3
     Eigenvalues --  8927.78451********************
           X            0.99911   0.03766   0.01898
           Y           -0.03804   0.99907   0.02026
           Z           -0.01820  -0.02096   0.99961
 This molecule is an asymmetric top.
 Rotational symmetry number  1.
 Warning -- assumption of classical behavior for rotation
           may cause significant error
 Rotational temperatures (Kelvin)      0.00970     0.00791     0.00686
 Rotational constants (GHZ):           0.20215     0.16478     0.14300
    1 imaginary frequencies ignored.
 Zero-point vibrational energy     940151.6 (Joules/Mol)
                                  224.70162 (Kcal/Mol)
 Warning -- explicit consideration of  42 degrees of freedom as
           vibrations may cause significant error
 Vibrational temperatures:     19.33    32.27    49.99    60.29    68.17
          (Kelvin)             75.02    92.69    98.73   121.64   129.90
                              147.49   154.58   159.51   174.61   189.91
                              213.20   220.08   246.11   259.42   275.92
                              281.71   306.92   332.47   355.30   375.75
                              422.71   455.15   462.34   482.05   508.04
                              538.31   540.64   560.45   587.52   590.46
                              622.18   650.71   675.45   730.16   755.13
                              821.92   878.33   903.14   930.48  1002.84
                             1018.97  1095.63  1098.96  1154.46  1156.63
                             1189.08  1210.92  1224.77  1239.86  1260.72
                             1315.30  1343.40  1377.83  1390.91  1415.64
                             1430.16  1439.73  1440.11  1448.70  1454.26
                             1492.76  1499.92  1506.84  1532.79  1562.58
                             1590.59  1621.27  1630.93  1650.64  1671.57
                             1684.71  1690.40  1724.92  1735.44  1769.45
                             1793.23  1808.93  1850.60  1897.04  1900.67
                             1911.66  1918.98  1948.96  1955.07  1966.59
                             1987.78  1995.32  2002.61  2037.99  2055.99
                             2075.14  2112.07  2119.52  2124.03  2138.03
                             2142.21  2158.86  2162.93  2168.63  2181.14
                             2196.96  2328.07  2358.82  2536.16  4307.88
                             4326.38  4375.24  4397.90  4402.03  4418.66
                             4422.82  4453.75  4460.45  4472.41  4480.62
                             4484.21  4491.00  4517.89  4540.31  4545.24
                             4563.75  4567.58  4581.01  4596.39  4629.55
                             4649.60

 Zero-point correction=                           0.358085 (Hartree/Particle)
 Thermal correction to Energy=                    0.385621
 Thermal correction to Enthalpy=                  0.386565
 Thermal correction to Gibbs Free Energy=         0.295098
 Sum of electronic and zero-point Energies=          -3531.046374
 Sum of electronic and thermal Energies=             -3531.018837
 Sum of electronic and thermal Enthalpies=           -3531.017893
 Sum of electronic and thermal Free Energies=        -3531.109360

                     E (Thermal)             CV                S
                      KCal/Mol        Cal/Mol-Kelvin    Cal/Mol-Kelvin
 Total                  241.981             97.934            192.509
 Electronic               0.000              0.000              3.561
 Translational            0.889              2.981             44.100
 Rotational               0.889              2.981             35.466
 Vibrational            240.204             91.972            109.382
 Vibration     1          0.593              1.987              7.425
 Vibration     2          0.593              1.985              6.406
 Vibration     3          0.594              1.983              5.538
 Vibration     4          0.595              1.980              5.167
 Vibration     5          0.595              1.979              4.924
 Vibration     6          0.596              1.977              4.735
 Vibration     7          0.597              1.971              4.317
 Vibration     8          0.598              1.969              4.192
 Vibration     9          0.601              1.960              3.783
 Vibration    10          0.602              1.956              3.654
 Vibration    11          0.605              1.947              3.406
 Vibration    12          0.606              1.943              3.315
 Vibration    13          0.607              1.940              3.254
 Vibration    14          0.609              1.931              3.079
 Vibration    15          0.612              1.921              2.917
 Vibration    16          0.618              1.905              2.695
 Vibration    17          0.619              1.899              2.635
 Vibration    18          0.626              1.878              2.424
 Vibration    19          0.629              1.866              2.325
 Vibration    20          0.634              1.851              2.211
 Vibration    21          0.636              1.846              2.172
 Vibration    22          0.644              1.821              2.015
 Vibration    23          0.653              1.793              1.871
 Vibration    24          0.661              1.768              1.752
 Vibration    25          0.669              1.744              1.654
 Vibration    26          0.689              1.685              1.452
 Vibration    27          0.703              1.642              1.329
 Vibration    28          0.707              1.633              1.303
 Vibration    29          0.716              1.606              1.236
 Vibration    30          0.729              1.569              1.152
 Vibration    31          0.745              1.525              1.063
 Vibration    32          0.747              1.522              1.056
 Vibration    33          0.757              1.493              1.002
 Vibration    34          0.773              1.452              0.932
 Vibration    35          0.775              1.448              0.925
 Vibration    36          0.793              1.400              0.851
 Vibration    37          0.811              1.356              0.789
 Vibration    38          0.827              1.318              0.739
 Vibration    39          0.863              1.233              0.640
 Vibration    40          0.880              1.195              0.599
 Vibration    41          0.927              1.093              0.502
 Vibration    42          0.970              1.010              0.432

                           ! Non-Optimized Parameters !
 Normal termination of Gaussian 16 at Sun Jun 20 08:24:02 2021.

 ----------------------------------------------------------------------
 #p ub3lyp jul-cc-pvdz pop=cm5 scrf=(pcm,solvent=dichloroethane) guess=
 read geom=allcheck
 ----------------------------------------------------------------------

 Structure from the checkpoint file:  "checkpoint.chk"
 -----
 title
 -----
 Charge =  0 Multiplicity = 6

 SCF Done:  E(UB3LYP) =  -3531.42835433     A.U. after   19 cycles
 Normal termination of Gaussian 16 at Sun Jun 20 08:45:20 2021.
 Gaussian 16:  ES64L-G16RevA.03 25-Dec-2016

 ----------------------------------------------------------------------
 #p ub3lyp jul-cc-pvdz pop=cm5 scrf=(pcm,solvent=water) guess=read geom
 =allcheck
 ----------------------------------------------------------------------

 Structure from the checkpoint file:  "checkpoint.chk"
 -----
 title
 -----
 Charge =  0 Multiplicity = 6

                         Standard orientation:
 ---------------------------------------------------------------------
 Center     Atomic      Atomic             Coordinates (Angstroms)
 Number     Number       Type             X           Y           Z
 ---------------------------------------------------------------------
      1          6           0        3.137052   -0.886433    0.478848
      2          6           0        1.755511   -0.769742    0.732337
      3          6           0        1.326338   -0.616220    2.062273
      4          6           0        2.252262   -0.576363    3.108700
      5          6           0        3.617879   -0.699082    2.845744
      6          6           0        4.056865   -0.852474    1.524104
      7          6           0        0.736229   -0.793184   -0.376825
      8          6           0        1.030630    0.036390   -1.674318
      9          6           0        1.733016   -0.834933   -2.722718
     10          6           0        1.066206   -2.218935   -2.645942
     11          6           0        0.839207   -2.514218   -1.175223
     12          6           0       -0.434250   -2.820401   -0.617772
     13          6           0       -1.695042   -2.753918   -1.397396
     14          8           0       -0.551430   -0.732918    0.066834
     15         26           0       -2.032759    0.422112    0.382521
     16         17           0       -2.674189    1.186588   -1.607497
     17          6           0       -0.508862   -3.432597    0.732419
     18         17           0       -1.549936    1.991510    1.865270
     19         17           0       -3.540366   -0.992606    1.244807
     20          1           0        0.266666   -0.498130    2.272453
     21          1           0        1.898917   -0.442613    4.131844
     22          1           0        4.340513   -0.669652    3.662744
     23          1           0        5.122272   -0.938312    1.306850
     24          1           0        3.505378   -0.992154   -0.539097
     25          1           0        0.036676    0.328425   -2.037333
     26          6           0        1.802411    1.326441   -1.392645
     27          1           0        1.643623   -0.388517   -3.721718
     28          1           0        2.805966   -0.897553   -2.504334
     29          1           0        0.120486   -2.208663   -3.201184
     30          1           0        1.696428   -2.993884   -3.103842
     31          1           0        1.678008   -2.978886   -0.655476
     32          1           0       -0.626151   -4.520603    0.571952
     33          1           0        0.405055   -3.277988    1.315972
     34          1           0       -1.391598   -3.082191    1.280175
     35          1           0       -1.790093   -3.736402   -1.898681
     36          1           0       -2.565337   -2.615342   -0.747859
     37          1           0       -1.687149   -1.987716   -2.177012
     38          8           0        0.999226    2.258546   -0.868956
     39          8           0        2.981737    1.485407   -1.634407
     40          6           0        1.604680    3.547557   -0.551274
     41          6           0        0.485619    4.535473   -0.295729
     42          1           0        2.244809    3.404568    0.330435
     43          1           0        2.243134    3.841071   -1.394035
     44          1           0        0.921578    5.511036   -0.035166
     45          1           0       -0.137576    4.661507   -1.191649
     46          1           0       -0.154292    4.201254    0.530288
 ---------------------------------------------------------------------

 SCF Done:  E(UB3LYP) =  -3531.43289315     A.U. after   15 cycles

 The electronic state is 6-A.
 Alpha  occ. eigenvalues -- -256.19922-101.51830-101.51824-101.51676 -30.19318
 Alpha  occ. eigenvalues --  -26.04625 -26.04549 -26.04475 -19.20418 -19.16177
 Alpha  occ. eigenvalues --  -19.15315 -10.33098 -10.31560 -10.30348 -10.24789
 Alpha  occ. eigenvalues --  -10.22523 -10.22218 -10.21748 -10.20994 -10.20893
 Alpha  occ. eigenvalues --  -10.20711 -10.20626 -10.20512 -10.20433 -10.20353
 Alpha  occ. eigenvalues --  -10.20318 -10.20080 -10.18441  -9.43563  -9.43539
 Alpha  occ. eigenvalues --   -9.43393  -7.19424  -7.19402  -7.19261  -7.19111
 Alpha  occ. eigenvalues --   -7.19101  -7.19088  -7.19076  -7.18938  -7.18924
 Alpha  occ. eigenvalues --   -3.67030  -2.44559  -2.44333  -2.44242  -1.12249
 Alpha  occ. eigenvalues --   -1.04748  -1.03719  -0.87981  -0.87267  -0.83987
 Alpha  occ. eigenvalues --   -0.79794  -0.79126  -0.78968  -0.78751  -0.77958
 Alpha  occ. eigenvalues --   -0.76232  -0.75186  -0.73418  -0.71422  -0.66479
 Alpha  occ. eigenvalues --   -0.64446  -0.62109  -0.61526  -0.59347  -0.57115
 Alpha  occ. eigenvalues --   -0.56164  -0.54427  -0.52798  -0.51414  -0.50611
 Alpha  occ. eigenvalues --   -0.50143  -0.49456  -0.48833  -0.47959  -0.47686
 Alpha  occ. eigenvalues --   -0.47333  -0.47178  -0.46633  -0.46406  -0.46024
 Alpha  occ. eigenvalues --   -0.44603  -0.44430  -0.43805  -0.43252  -0.42870
 Alpha  occ. eigenvalues --   -0.42483  -0.41732  -0.41044  -0.40159  -0.40016
 Alpha  occ. eigenvalues --   -0.39851  -0.39006  -0.38105  -0.37633  -0.37137
 Alpha  occ. eigenvalues --   -0.36804  -0.36685  -0.36170  -0.35865  -0.35658
 Alpha  occ. eigenvalues --   -0.34499  -0.34109  -0.33545  -0.31975  -0.31739
 Alpha  occ. eigenvalues --   -0.30763  -0.30668  -0.30395  -0.30117  -0.29740
 Alpha  occ. eigenvalues --   -0.29372  -0.28859  -0.28281  -0.27011  -0.25592
 Alpha virt. eigenvalues --   -0.11783  -0.03197  -0.02773  -0.01545  -0.01252
 Alpha virt. eigenvalues --   -0.00145  -0.00020   0.00037   0.01475   0.01617
 Alpha virt. eigenvalues --    0.01832   0.01936   0.02529   0.03310   0.03700

  Beta  occ. eigenvalues -- -256.19737-101.51656-101.51654-101.51513 -30.10384
  Beta  occ. eigenvalues --  -25.97158 -25.97086 -25.97064 -19.20418 -19.15497
  Beta  occ. eigenvalues --  -19.15312 -10.33099 -10.31555 -10.30351 -10.24789
  Beta  occ. eigenvalues --  -10.22461 -10.22202 -10.21729 -10.20992 -10.20892
  Beta  occ. eigenvalues --  -10.20710 -10.20627 -10.20516 -10.20432 -10.20355
  Beta  occ. eigenvalues --  -10.20318 -10.20077 -10.18439  -9.43392  -9.43372
  Beta  occ. eigenvalues --   -9.43232  -7.19139  -7.19116  -7.18974  -7.18877
  Beta  occ. eigenvalues --   -7.18867  -7.18860  -7.18857  -7.18721  -7.18719
  Beta  occ. eigenvalues --   -3.46198  -2.22517  -2.22431  -2.22324  -1.12246
  Beta  occ. eigenvalues --   -1.03715  -1.03447  -0.87809  -0.87242  -0.83942
  Beta  occ. eigenvalues --   -0.78776  -0.78701  -0.77955  -0.77838  -0.77781
  Beta  occ. eigenvalues --   -0.76226  -0.75141  -0.73407  -0.71280  -0.66356
  Beta  occ. eigenvalues --   -0.64387  -0.62067  -0.61487  -0.59038  -0.56898
  Beta  occ. eigenvalues --   -0.55804  -0.54326  -0.51862  -0.51385  -0.50264
  Beta  occ. eigenvalues --   -0.50108  -0.48798  -0.48178  -0.47932  -0.46964
  Beta  occ. eigenvalues --   -0.45798  -0.44718  -0.43771  -0.43305  -0.42902
  Beta  occ. eigenvalues --   -0.42453  -0.41745  -0.41030  -0.40130  -0.40021
  Beta  occ. eigenvalues --   -0.39845  -0.38974  -0.37921  -0.37659  -0.37419
  Beta  occ. eigenvalues --   -0.36874  -0.36714  -0.36129  -0.35890  -0.35769
  Beta  occ. eigenvalues --   -0.35405  -0.35322  -0.34454  -0.32907  -0.32668
  Beta  occ. eigenvalues --   -0.32210  -0.31969  -0.31810  -0.31087  -0.30017
  Beta  occ. eigenvalues --   -0.29311  -0.28864  -0.28431  -0.27006  -0.25673
  Beta virt. eigenvalues --   -0.13827  -0.13504  -0.12678  -0.12482  -0.11945
  Beta virt. eigenvalues --   -0.11355  -0.03121  -0.02761  -0.01475  -0.01194
  Beta virt. eigenvalues --   -0.00103   0.00013   0.00065   0.01492   0.01637

 Mulliken charges and spin densities:
               1          2
     1  C    0.187922   0.001758
     2  C    2.613197   0.000596
     3  C   -0.350504  -0.011503
     4  C    0.022537   0.004751
     5  C    0.259095  -0.000466
     6  C   -0.105825   0.000843
     7  C   -2.130191  -0.006409
     8  C    0.359785   0.011494
     9  C    0.516550   0.003350
    10  C    0.639079  -0.001317
    11  C    0.697252   0.042509
    12  C   -0.529206  -0.007106
    13  C    0.320110   0.001610
    14  O   -0.498961   0.216985
    15  Fe   0.679757   4.053231
    16  Cl  -0.544189   0.223584
    17  C    0.353487  -0.001113
    18  Cl  -0.497062   0.237173
    19  Cl  -0.544600   0.222886
    20  H   -0.238826   0.002647
    21  H   -0.161457  -0.000001
    22  H   -0.161053   0.000010
    23  H   -0.157433   0.000194
    24  H   -0.238979  -0.000099
    25  H   -0.203526  -0.000215
    26  C    0.873902   0.001359
    27  H   -0.138765   0.000286
    28  H   -0.020710  -0.000015
    29  H   -0.087324   0.000057
    30  H   -0.111856   0.001247
    31  H   -0.246817  -0.000704
    32  H    0.047569   0.000299
    33  H    0.050023   0.000041
    34  H    0.059083  -0.000310
    35  H    0.046548  -0.000440
    36  H    0.039999   0.000098
    37  H    0.089627  -0.000487
    38  O   -0.672036   0.002725
    39  O   -0.653595   0.001206
    40  C    0.430223   0.000627
    41  C    0.035976  -0.001238
    42  H   -0.037492   0.000040
    43  H   -0.037898   0.000037
    44  H   -0.006892   0.000032
    45  H    0.024637   0.000065
    46  H    0.028840  -0.000314
 Sum of Mulliken charges =  -0.00000   5.00000

 Dipole moment (field-independent basis, Debye):
    X=              8.5260    Y=            -10.2640    Z=             -3.2880  Tot=             13.7424
 Quadrupole moment (field-independent basis, Debye-Ang):
   XX=           -201.3113   YY=           -147.7370   ZZ=           -171.9121
   XY=              4.0322   XZ=             12.2207   YZ=              7.5563

 Normal termination of Gaussian 16 at Sun Jun 20 09:02:35 2021.
