 Gaussian 16, Revision A.03,

 -----------------------------------------------------------
 #p opt=modredundant freq=noraman ub3lyp jul-cc-pvdz pop=cm5
 -----------------------------------------------------------

 -----
 title
 -----
 Symbolic Z-matrix:
 Charge =  0 Multiplicity = 6

 SCF Done:  E(UB3LYP) =  -3531.41173143     A.U. after   26 cycles
 SCF Done:  E(UB3LYP) =  -3531.41234279     A.U. after   17 cycles
 SCF Done:  E(UB3LYP) =  -3531.41221276     A.U. after   14 cycles
 SCF Done:  E(UB3LYP) =  -3531.41240679     A.U. after   13 cycles
 SCF Done:  E(UB3LYP) =  -3531.41243275     A.U. after   14 cycles
 SCF Done:  E(UB3LYP) =  -3531.41245282     A.U. after   13 cycles
 SCF Done:  E(UB3LYP) =  -3531.41246251     A.U. after   12 cycles
 SCF Done:  E(UB3LYP) =  -3531.41246969     A.U. after   12 cycles
 SCF Done:  E(UB3LYP) =  -3531.41247613     A.U. after   12 cycles
 SCF Done:  E(UB3LYP) =  -3531.41248545     A.U. after   13 cycles
 SCF Done:  E(UB3LYP) =  -3531.41249334     A.U. after   14 cycles
 SCF Done:  E(UB3LYP) =  -3531.41249989     A.U. after   13 cycles
 SCF Done:  E(UB3LYP) =  -3531.41250218     A.U. after   13 cycles
 SCF Done:  E(UB3LYP) =  -3531.41250285     A.U. after   11 cycles
 SCF Done:  E(UB3LYP) =  -3531.41250304     A.U. after   11 cycles
 SCF Done:  E(UB3LYP) =  -3531.41250310     A.U. after    9 cycles
 Optimization completed.
    -- Stationary point found.
 Normal termination of Gaussian 16 at Sun Jun 20 02:51:32 2021.

 ----------------------------------------------------------------------
 #P Geom=AllCheck Guess=TCheck SCRF=Check GenChk UB3LYP/Jul-CC-pVDZ Fre
 q
 ----------------------------------------------------------------------

 Structure from the checkpoint file:  "checkpoint.chk"
 -----
 title
 -----
 Charge =  0 Multiplicity = 6

 SCF Done:  E(UB3LYP) =  -3531.41250310     A.U. after    1 cycles

  Exact polarizability: 329.544  -3.637 293.135  15.040  -6.621 288.341
 Approx polarizability: 494.435  -5.272 443.437  12.134 -19.468 479.323

 ******    1 imaginary frequencies (negative Signs) ******

                      1                      2                      3
                      A                      A                      A
 Frequencies --    -40.3357                18.0729                25.2114
 Red. masses --      4.1237                 5.1895                 7.0079
 Frc consts  --      0.0040                 0.0010                 0.0026
 IR Inten    --     13.5436                 2.2928                 0.9032

                      4                      5                      6
                      A                      A                      A
 Frequencies --     30.4474                37.0691                44.5771
 Red. masses --      7.1205                 5.7700                 4.7669
 Frc consts  --      0.0039                 0.0047                 0.0056
 IR Inten    --      2.0565                 0.6132                 0.3224

                      7                      8                      9
                      A                      A                      A
 Frequencies --     58.4917                65.7671                79.7184
 Red. masses --      3.3868                 5.3371                 4.8318
 Frc consts  --      0.0068                 0.0136                 0.0181
 IR Inten    --      0.2741                 2.0662                 3.4285

                     10                     11                     12
                      A                      A                      A
 Frequencies --     86.2110                91.6863                95.2806
 Red. masses --      5.9782                11.1367                11.4541
 Frc consts  --      0.0262                 0.0552                 0.0613
 IR Inten    --      0.4955                 4.3340                 1.9217

                     13                     14                     15
                      A                      A                      A
 Frequencies --    108.9963               111.8344               120.3806
 Red. masses --      3.8958                 6.0650                 7.7982
 Frc consts  --      0.0273                 0.0447                 0.0666
 IR Inten    --      0.6857                 1.8768                 0.5811

                     16                     17                     18
                      A                      A                      A
 Frequencies --    122.7288               141.1770               147.9835
 Red. masses --      7.2952                 4.0115                 1.3978
 Frc consts  --      0.0647                 0.0471                 0.0180
 IR Inten    --     15.2602                13.2764                 1.3492

                     19                     20                     21
                      A                      A                      A
 Frequencies --    157.6614               186.4167               194.4226
 Red. masses --      3.6143                 3.5837                 1.1600
 Frc consts  --      0.0529                 0.0734                 0.0258
 IR Inten    --      1.2926                 3.1858                17.8271

                     22                     23                     24
                      A                      A                      A
 Frequencies --    208.0307               217.9810               241.1251
 Red. masses --      1.8338                 2.2614                 3.7212
 Frc consts  --      0.0468                 0.0633                 0.1275
 IR Inten    --     12.8165                32.6744                12.2274

                     25                     26                     27
                      A                      A                      A
 Frequencies --    262.0164               279.6655               288.6987
 Red. masses --      2.5838                 5.2948                 3.4921
 Frc consts  --      0.1045                 0.2440                 0.1715
 IR Inten    --      0.7188                 5.6387                13.4908

                     28                     29                     30
                      A                      A                      A
 Frequencies --    315.8191               328.6862               336.8682
 Red. masses --      3.3684                 3.6614                11.1479
 Frc consts  --      0.1979                 0.2331                 0.7454
 IR Inten    --     39.8884                17.9793                60.5717

                     31                     32                     33
                      A                      A                      A
 Frequencies --    358.2650               371.6238               385.8978
 Red. masses --     32.3348                 7.2303                 2.9220
 Frc consts  --      2.4453                 0.5883                 0.2564
 IR Inten    --     77.0389                 8.9330                16.9474

                     34                     35                     36
                      A                      A                      A
 Frequencies --    396.0113               413.3957               429.5372
 Red. masses --     33.7168                 2.9291                 3.7868
 Frc consts  --      3.1154                 0.2949                 0.4116
 IR Inten    --     93.6674                 0.3930                13.2276

                     37                     38                     39
                      A                      A                      A
 Frequencies --    443.1388               476.7566               505.3255
 Red. masses --      3.7162                 3.2529                 3.0299
 Frc consts  --      0.4300                 0.4356                 0.4558
 IR Inten    --     12.7095                 3.1301                 8.9353

                     40                     41                     42
                      A                      A                      A
 Frequencies --    531.4129               543.0975               557.7365
 Red. masses --      2.4704                 2.6921                 3.1012
 Frc consts  --      0.4110                 0.4678                 0.5684
 IR Inten    --     15.7815                18.2248                33.9562

                     43                     44                     45
                      A                      A                      A
 Frequencies --    626.3281               630.5373               670.2247
 Red. masses --      5.7219                 5.0353                 4.4329
 Frc consts  --      1.3225                 1.1795                 1.1732
 IR Inten    --      4.6063                 7.1774               189.9844

                     46                     47                     48
                      A                      A                      A
 Frequencies --    705.5083               709.8787               755.7053
 Red. masses --      2.0633                 2.6774                 2.2324
 Frc consts  --      0.6051                 0.7949                 0.7511
 IR Inten    --     39.9063                31.3178                16.0135

                     49                     50                     51
                      A                      A                      A
 Frequencies --    760.9939               794.6490               805.2953
 Red. masses --      4.2162                 1.7393                 1.2656
 Frc consts  --      1.4386                 0.6471                 0.4836
 IR Inten    --     25.7022                15.4746                 3.6906

                     52                     53                     54
                      A                      A                      A
 Frequencies --    830.2554               834.9767               847.9000
 Red. masses --      2.2819                 2.6143                 1.2730
 Frc consts  --      0.9268                 1.0739                 0.5392
 IR Inten    --     30.3063                16.4926                 3.1221

                     55                     56                     57
                      A                      A                      A
 Frequencies --    863.2177               891.3104               918.2034
 Red. masses --      2.8775                 2.0952                 2.2799
 Frc consts  --      1.2633                 0.9807                 1.1325
 IR Inten    --     19.9193                 2.8640                10.8282

                     58                     59                     60
                      A                      A                      A
 Frequencies --    925.7855               944.6949               981.5933
 Red. masses --      1.8879                 2.0154                 2.0025
 Frc consts  --      0.9534                 1.0597                 1.1368
 IR Inten    --     26.3209                21.9224                39.6560

                     61                     62                     63
                      A                      A                      A
 Frequencies --    985.2121               990.9257              1000.9136
 Red. masses --      1.4696                 2.3106                 1.4986
 Frc consts  --      0.8404                 1.3368                 0.8846
 IR Inten    --     16.8869                 4.2242                 0.9948

                     64                     65                     66
                      A                      A                      A
 Frequencies --   1005.8433              1006.8057              1021.7893
 Red. masses --      1.7912                 2.5478                 1.5504
 Frc consts  --      1.0677                 1.5216                 0.9537
 IR Inten    --      1.2482                 3.9917                24.1116

                     67                     68                     69
                      A                      A                      A
 Frequencies --   1035.6396              1040.8508              1047.6209
 Red. masses --      2.9016                 1.7677                 2.3414
 Frc consts  --      1.8336                 1.1283                 1.5140
 IR Inten    --     35.4606                 0.1401                 6.7945

                     70                     71                     72
                      A                      A                      A
 Frequencies --   1057.0782              1102.4445              1110.5527
 Red. masses --      2.2385                 1.5745                 2.0528
 Frc consts  --      1.4737                 1.1275                 1.4917
 IR Inten    --     13.8618                14.7362                 7.3825

                     73                     74                     75
                      A                      A                      A
 Frequencies --   1119.0734              1128.0467              1155.1779
 Red. masses --      2.0247                 2.6147                 1.7933
 Frc consts  --      1.4939                 1.9603                 1.4100
 IR Inten    --     15.0301                63.4971                20.4404

                     76                     77                     78
                      A                      A                      A
 Frequencies --   1168.0026              1172.7023              1181.3828
 Red. masses --      2.2509                 1.0868                 2.1016
 Frc consts  --      1.8092                 0.8806                 1.7282
 IR Inten    --    107.1318                 1.7696                79.0148

                     79                     80                     81
                      A                      A                      A
 Frequencies --   1191.0800              1199.9509              1231.6168
 Red. masses --      1.7913                 1.1889                 1.8849
 Frc consts  --      1.4973                 1.0086                 1.6846
 IR Inten    --     30.8455                12.1151               152.4247

                     82                     83                     84
                      A                      A                      A
 Frequencies --   1241.4004              1254.7192              1308.0164
 Red. masses --      2.1285                 1.7108                 1.3759
 Frc consts  --      1.9327                 1.5869                 1.3870
 IR Inten    --    211.6149                63.6721                19.1439

                     85                     86                     87
                      A                      A                      A
 Frequencies --   1312.3253              1314.7535              1319.7602
 Red. masses --      1.2930                 1.3753                 1.2609
 Frc consts  --      1.3119                 1.4006                 1.2940
 IR Inten    --     77.5758                86.7628                61.2403

                     88                     89                     90
                      A                      A                      A
 Frequencies --   1325.3641              1331.9010              1347.0158
 Red. masses --      1.3370                 1.5510                 1.2531
 Frc consts  --      1.3837                 1.6211                 1.3396
 IR Inten    --     13.5717                23.8862                14.1851

                     91                     92                     93
                      A                      A                      A
 Frequencies --   1355.4069              1365.8067              1374.4078
 Red. masses --      3.6706                 1.5811                 1.5507
 Frc consts  --      3.9731                 1.7377                 1.7259
 IR Inten    --      1.6616                75.3965                37.4232

                     94                     95                     96
                      A                      A                      A
 Frequencies --   1389.5347              1409.8001              1411.9898
 Red. masses --      1.4523                 1.2917                 1.2635
 Frc consts  --      1.6521                 1.5126                 1.4842
 IR Inten    --     53.2454                27.3285                 8.8621

                     97                     98                     99
                      A                      A                      A
 Frequencies --   1426.9932              1453.1756              1469.0979
 Red. masses --      1.0788                 1.5419                 2.2422
 Frc consts  --      1.2942                 1.9184                 2.8512
 IR Inten    --     17.5813                27.6152                20.6695

                    100                    101                    102
                      A                      A                      A
 Frequencies --   1476.7927              1477.7570              1483.2558
 Red. masses --      1.0491                 1.0814                 1.1078
 Frc consts  --      1.3480                 1.3914                 1.4359
 IR Inten    --      8.8594                 4.9987                 7.0843

                    103                    104                    105
                      A                      A                      A
 Frequencies --   1489.5170              1494.1598              1496.8855
 Red. masses --      1.1902                 1.0623                 1.2144
 Frc consts  --      1.5558                 1.3974                 1.6032
 IR Inten    --      4.2006                 7.0399                25.2776

                    106                    107                    108
                      A                      A                      A
 Frequencies --   1507.2928              1514.9792              1622.0068
 Red. masses --      1.5823                 2.0789                 5.8360
 Frc consts  --      2.1181                 2.8113                 9.0463
 IR Inten    --     18.5367                 6.4761                 0.3090

                    109                    110                    111
                      A                      A                      A
 Frequencies --   1640.4016              1762.8757              2925.1542
 Red. masses --      5.7458                11.2696                 1.0584
 Frc consts  --      9.1096                20.6349                 5.3359
 IR Inten    --      0.4902               208.4015                34.0638

                    112                    113                    114
                      A                      A                      A
 Frequencies --   2936.9370              3038.0100              3041.9741
 Red. masses --      1.0617                 1.0354                 1.0748
 Frc consts  --      5.3954                 5.6306                 5.8598
 IR Inten    --    141.8726                18.1679                 4.2140

                    115                    116                    117
                      A                      A                      A
 Frequencies --   3051.0201              3063.6414              3074.4323
 Red. masses --      1.0615                 1.0634                 1.0722
 Frc consts  --      5.8219                 5.8808                 5.9709
 IR Inten    --     23.4544                14.9067                 0.5575

                    118                    119                    120
                      A                      A                      A
 Frequencies --   3078.1650              3084.6636              3085.1531
 Red. masses --      1.0593                 1.0843                 1.0844
 Frc consts  --      5.9138                 6.0786                 6.0811
 IR Inten    --     13.6637                 6.3042                 0.4492

                    121                    122                    123
                      A                      A                      A
 Frequencies --   3105.9334              3112.8644              3119.2468
 Red. masses --      1.1014                 1.0991                 1.1036
 Frc consts  --      6.2601                 6.2750                 6.3267
 IR Inten    --      7.2834                24.1003                15.4868

                    124                    125                    126
                      A                      A                      A
 Frequencies --   3119.7965              3144.4624              3165.5997
 Red. masses --      1.1046                 1.1092                 1.0991
 Frc consts  --      6.3343                 6.4621                 6.4893
 IR Inten    --      2.9597                14.0936                 8.2560

                    127                    128                    129
                      A                      A                      A
 Frequencies --   3168.3103              3176.0353              3176.8246
 Red. masses --      1.0849                 1.1019                 1.0888
 Frc consts  --      6.4162                 6.5486                 6.4743
 IR Inten    --      0.4338                 3.7202                 4.9915

                    130                    131                    132
                      A                      A                      A
 Frequencies --   3186.0283              3195.4923              3221.0529
 Red. masses --      1.0932                 1.0982                 1.0922
 Frc consts  --      6.5382                 6.6069                 6.6767
 IR Inten    --     15.2865                13.2469                 3.0351

 - Thermochemistry -
 -------------------
 Temperature   298.150 Kelvin.  Pressure   1.00000 Atm.
 Atom     1 has atomic number  6 and mass  12.00000

 Molecular mass:   434.99839 amu.
 Principal axes and moments of inertia in atomic units:
                           1         2         3
     Eigenvalues --  8603.62311********************
           X            0.99714  -0.07264   0.02067
           Y            0.07263   0.99736   0.00103
           Z           -0.02070   0.00047   0.99979
 This molecule is an asymmetric top.
 Rotational symmetry number  1.
 Warning -- assumption of classical behavior for rotation
           may cause significant error
 Rotational temperatures (Kelvin)      0.01007     0.00727     0.00629
 Rotational constants (GHZ):           0.20977     0.15147     0.13106
    1 imaginary frequencies ignored.
 Zero-point vibrational energy     938549.3 (Joules/Mol)
                                  224.31865 (Kcal/Mol)
 Warning -- explicit consideration of  41 degrees of freedom as
           vibrations may cause significant error
 Vibrational temperatures:     26.00    36.27    43.81    53.33    64.14
          (Kelvin)             84.16    94.62   114.70   124.04   131.92
                              137.09   156.82   160.90   173.20   176.58
                              203.12   212.92   226.84   268.21   279.73
                              299.31   313.63   346.93   376.98   402.38
                              415.37   454.39   472.91   484.68   515.46
                              534.68   555.22   569.77   594.78   618.01
                              637.58   685.95   727.05   764.58   781.40
                              802.46   901.15   907.20   964.30  1015.07
                             1021.36  1087.29  1094.90  1143.32  1158.64
                             1194.55  1201.35  1219.94  1241.98  1282.40
                             1321.09  1332.00  1359.21  1412.29  1417.50
                             1425.72  1440.09  1447.18  1448.57  1470.13
                             1490.05  1497.55  1507.29  1520.90  1586.17
                             1597.84  1610.10  1623.01  1662.04  1680.50
                             1687.26  1699.75  1713.70  1726.46  1772.02
                             1786.10  1805.26  1881.94  1888.14  1891.64
                             1898.84  1906.90  1916.31  1938.06  1950.13
                             1965.09  1977.47  1999.23  2028.39  2031.54
                             2053.12  2090.80  2113.70  2124.78  2126.16
                             2134.07  2143.08  2149.76  2153.68  2168.66
                             2179.72  2333.71  2360.17  2536.38  4208.64
                             4225.60  4371.02  4376.72  4389.74  4407.90
                             4423.42  4428.79  4438.14  4438.85  4468.75
                             4478.72  4487.90  4488.69  4524.18  4554.59
                             4558.49  4569.61  4570.74  4583.98  4597.60
                             4634.38

 Zero-point correction=                           0.357475 (Hartree/Particle)
 Thermal correction to Energy=                    0.384806
 Thermal correction to Enthalpy=                  0.385750
 Thermal correction to Gibbs Free Energy=         0.294835
 Sum of electronic and zero-point Energies=          -3531.055029
 Sum of electronic and thermal Energies=             -3531.027698
 Sum of electronic and thermal Enthalpies=           -3531.026753
 Sum of electronic and thermal Free Energies=        -3531.117668

                     E (Thermal)             CV                S
                      KCal/Mol        Cal/Mol-Kelvin    Cal/Mol-Kelvin
 Total                  241.469             97.496            191.345
 Electronic               0.000              0.000              3.561
 Translational            0.889              2.981             44.100
 Rotational               0.889              2.981             35.600
 Vibrational            239.692             91.535            108.085
 Vibration     1          0.593              1.986              6.835
 Vibration     2          0.593              1.985              6.174
 Vibration     3          0.594              1.984              5.800
 Vibration     4          0.594              1.982              5.410
 Vibration     5          0.595              1.980              5.045
 Vibration     6          0.596              1.974              4.507
 Vibration     7          0.597              1.971              4.276
 Vibration     8          0.600              1.963              3.898
 Vibration     9          0.601              1.959              3.744
 Vibration    10          0.602              1.955              3.624
 Vibration    11          0.603              1.953              3.549
 Vibration    12          0.606              1.942              3.287
 Vibration    13          0.607              1.940              3.237
 Vibration    14          0.609              1.932              3.094
 Vibration    15          0.610              1.930              3.057
 Vibration    16          0.615              1.912              2.788
 Vibration    17          0.617              1.905              2.698
 Vibration    18          0.621              1.894              2.578
 Vibration    19          0.632              1.858              2.263
 Vibration    20          0.635              1.848              2.185
 Vibration    21          0.641              1.828              2.061
 Vibration    22          0.646              1.814              1.976
 Vibration    23          0.658              1.777              1.795
 Vibration    24          0.669              1.742              1.648
 Vibration    25          0.680              1.711              1.536
 Vibration    26          0.685              1.695              1.482
 Vibration    27          0.703              1.643              1.332
 Vibration    28          0.712              1.618              1.267
 Vibration    29          0.718              1.602              1.227
 Vibration    30          0.733              1.558              1.130
 Vibration    31          0.743              1.530              1.073
 Vibration    32          0.755              1.500              1.016
 Vibration    33          0.763              1.479              0.977
 Vibration    34          0.777              1.441              0.915
 Vibration    35          0.791              1.406              0.860
 Vibration    36          0.803              1.376              0.817
 Vibration    37          0.833              1.302              0.719
 Vibration    38          0.861              1.238              0.645
 Vibration    39          0.886              1.181              0.584
 Vibration    40          0.898              1.155              0.559
 Vibration    41          0.913              1.123              0.528

                           ! Non-Optimized Parameters !
 Normal termination of Gaussian 16 at Sun Jun 20 06:28:57 2021.

 ----------------------------------------------------------------------
 #p ub3lyp jul-cc-pvdz pop=cm5 scrf=(pcm,solvent=dichloroethane) guess=
 read geom=allcheck
 ----------------------------------------------------------------------

 Structure from the checkpoint file:  "checkpoint.chk"
 -----
 title
 -----
 Charge =  0 Multiplicity = 6

 SCF Done:  E(UB3LYP) =  -3531.43875968     A.U. after   17 cycles
 Normal termination of Gaussian 16 at Sun Jun 20 06:49:58 2021.
 Gaussian 16:  ES64L-G16RevA.03 25-Dec-2016

 ----------------------------------------------------------------------
 #p ub3lyp jul-cc-pvdz pop=cm5 scrf=(pcm,solvent=water) guess=read geom
 =allcheck
 ----------------------------------------------------------------------

 Structure from the checkpoint file:  "checkpoint.chk"
 -----
 title
 -----
 Charge =  0 Multiplicity = 6

                         Standard orientation:
 ---------------------------------------------------------------------
 Center     Atomic      Atomic             Coordinates (Angstroms)
 Number     Number       Type             X           Y           Z
 ---------------------------------------------------------------------
      1          6           0       -2.706424   -1.880372   -0.097835
      2          6           0       -1.541839   -1.243227   -0.560246
      3          6           0       -1.392812   -1.038632   -1.939406
      4          6           0       -2.374620   -1.474635   -2.835392
      5          6           0       -3.523377   -2.115895   -2.366792
      6          6           0       -3.688439   -2.311850   -0.990635
      7          6           0       -0.453973   -0.738503    0.398932
      8          6           0       -0.978400    0.252320    1.535249
      9          6           0       -1.095166   -0.514547    2.851908
     10          6           0        0.094056   -1.477098    2.804438
     11          6           0        0.051993   -2.031596    1.379704
     12          6           0        1.238851   -2.597825    0.787197
     13          6           0        2.565212   -2.378974    1.379246
     14          8           0        0.580194   -0.215060   -0.298435
     15         26           0        2.056573    0.904712   -0.501886
     16         17           0        2.809409    1.300609    1.586441
     17          6           0        1.162255   -3.287396   -0.506879
     18         17           0        1.546889    2.745167   -1.600104
     19         17           0        3.515331   -0.405572   -1.602368
     20          1           0       -0.507122   -0.523016   -2.303708
     21          1           0       -2.238011   -1.305850   -3.904568
     22          1           0       -4.289448   -2.456041   -3.065260
     23          1           0       -4.588286   -2.796378   -0.609198
     24          1           0       -2.872913   -2.028812    0.969438
     25          1           0       -0.172473    0.991581    1.619455
     26          6           0       -2.242825    1.004187    1.146942
     27          1           0       -1.058080    0.160048    3.716195
     28          1           0       -2.051324   -1.052600    2.903629
     29          1           0        1.022502   -0.919976    2.982430
     30          1           0        0.029045   -2.280799    3.551352
     31          1           0       -0.775459   -2.739289    1.252988
     32          1           0        0.149191   -3.543601   -0.825779
     33          1           0        1.601977   -2.557732   -1.224172
     34          1           0        1.833372   -4.157848   -0.536048
     35          1           0        3.377190   -2.827111    0.800382
     36          1           0        2.737768   -1.286818    1.474579
     37          1           0        2.574338   -2.748115    2.418432
     38          8           0       -1.989034    1.880180    0.164165
     39          8           0       -3.327778    0.839112    1.667407
     40          6           0       -3.100211    2.677760   -0.332326
     41          6           0       -3.252893    3.960208    0.467436
     42          1           0       -2.828529    2.882155   -1.374710
     43          1           0       -4.010000    2.066560   -0.300520
     44          1           0       -4.047852    4.574725    0.019205
     45          1           0       -3.530005    3.745825    1.508024
     46          1           0       -2.319866    4.539689    0.455058
 ---------------------------------------------------------------------

 SCF Done:  E(UB3LYP) =  -3531.44356851     A.U. after   14 cycles

 The electronic state is 6-A.
 Alpha  occ. eigenvalues -- -256.19805-101.51945-101.51897-101.51581 -30.19218
 Alpha  occ. eigenvalues --  -26.04529 -26.04453 -26.04361 -19.20213 -19.15842
 Alpha  occ. eigenvalues --  -19.15216 -10.32915 -10.31607 -10.30411 -10.24715
 Alpha  occ. eigenvalues --  -10.23200 -10.22090 -10.21994 -10.21853 -10.21268
 Alpha  occ. eigenvalues --  -10.20427 -10.20352 -10.20279 -10.20210 -10.20103
 Alpha  occ. eigenvalues --  -10.19988 -10.19853 -10.18603  -9.43642  -9.43635
 Alpha  occ. eigenvalues --   -9.43294  -7.19503  -7.19496  -7.19201  -7.19188
 Alpha  occ. eigenvalues --   -7.19170  -7.19166  -7.19165  -7.18847  -7.18813
 Alpha  occ. eigenvalues --   -3.66951  -2.44467  -2.44291  -2.44153  -1.12023
 Alpha  occ. eigenvalues --   -1.04359  -1.03591  -0.89379  -0.87078  -0.84515
 Alpha  occ. eigenvalues --   -0.79810  -0.79172  -0.78873  -0.78763  -0.77624
 Alpha  occ. eigenvalues --   -0.75896  -0.75389  -0.74643  -0.71672  -0.67044
 Alpha  occ. eigenvalues --   -0.64563  -0.61953  -0.61463  -0.59507  -0.56977
 Alpha  occ. eigenvalues --   -0.56350  -0.54490  -0.53358  -0.51490  -0.50830
 Alpha  occ. eigenvalues --   -0.49796  -0.49233  -0.48866  -0.47737  -0.47317
 Alpha  occ. eigenvalues --   -0.47240  -0.47046  -0.46842  -0.46377  -0.46138
 Alpha  occ. eigenvalues --   -0.45304  -0.44535  -0.44231  -0.43977  -0.43090
 Alpha  occ. eigenvalues --   -0.42853  -0.42083  -0.41340  -0.40900  -0.40755
 Alpha  occ. eigenvalues --   -0.39918  -0.38932  -0.38329  -0.37634  -0.37344
 Alpha  occ. eigenvalues --   -0.36723  -0.36202  -0.36132  -0.35474  -0.34970
 Alpha  occ. eigenvalues --   -0.34712  -0.34133  -0.33993  -0.31788  -0.31382
 Alpha  occ. eigenvalues --   -0.30849  -0.30714  -0.30572  -0.30175  -0.29762
 Alpha  occ. eigenvalues --   -0.29524  -0.28533  -0.28348  -0.26731  -0.26217
 Alpha virt. eigenvalues --   -0.14012  -0.03107  -0.02794  -0.01637  -0.01131
 Alpha virt. eigenvalues --   -0.00151  -0.00054   0.00016   0.01438   0.01560
 Alpha virt. eigenvalues --    0.01840   0.02062   0.02294   0.03095   0.03529

  Beta  occ. eigenvalues -- -256.19620-101.51783-101.51731-101.51423 -30.10282
  Beta  occ. eigenvalues --  -25.97049 -25.97021 -25.96929 -19.20213 -19.15212
  Beta  occ. eigenvalues --  -19.15046 -10.32916 -10.31594 -10.30398 -10.24715
  Beta  occ. eigenvalues --  -10.23172 -10.22090 -10.21996 -10.21833 -10.21240
  Beta  occ. eigenvalues --  -10.20425 -10.20352 -10.20277 -10.20211 -10.20103
  Beta  occ. eigenvalues --  -10.19990 -10.19852 -10.18603  -9.43479  -9.43476
  Beta  occ. eigenvalues --   -9.43140  -7.19226  -7.19214  -7.18981  -7.18964
  Beta  occ. eigenvalues --   -7.18962  -7.18956  -7.18885  -7.18631  -7.18630
  Beta  occ. eigenvalues --   -3.46125  -2.22434  -2.22400  -2.22243  -1.12021
  Beta  occ. eigenvalues --   -1.03589  -1.02806  -0.89229  -0.87034  -0.84443
  Beta  occ. eigenvalues --   -0.78784  -0.78743  -0.78041  -0.77761  -0.77485
  Beta  occ. eigenvalues --   -0.75885  -0.75360  -0.74631  -0.71547  -0.66914
  Beta  occ. eigenvalues --   -0.64403  -0.61887  -0.61416  -0.59252  -0.56627
  Beta  occ. eigenvalues --   -0.56024  -0.54386  -0.52499  -0.51325  -0.50533
  Beta  occ. eigenvalues --   -0.49683  -0.49058  -0.48223  -0.47242  -0.46364
  Beta  occ. eigenvalues --   -0.46250  -0.44924  -0.44624  -0.44047  -0.43166
  Beta  occ. eigenvalues --   -0.42885  -0.42196  -0.41274  -0.40924  -0.40713
  Beta  occ. eigenvalues --   -0.39906  -0.38913  -0.38309  -0.37617  -0.37590
  Beta  occ. eigenvalues --   -0.37163  -0.36200  -0.36108  -0.35522  -0.35479
  Beta  occ. eigenvalues --   -0.35225  -0.34944  -0.34731  -0.32885  -0.32694
  Beta  occ. eigenvalues --   -0.32280  -0.31977  -0.31833  -0.31679  -0.29861
  Beta  occ. eigenvalues --   -0.29508  -0.28697  -0.28122  -0.26735  -0.26173
  Beta virt. eigenvalues --   -0.14247  -0.13588  -0.13387  -0.12596  -0.12101
  Beta virt. eigenvalues --   -0.11301  -0.03070  -0.02764  -0.01532  -0.01086
  Beta virt. eigenvalues --   -0.00108  -0.00019   0.00047   0.01451   0.01587

 Mulliken charges and spin densities:
               1          2
     1  C   -0.098913   0.000578
     2  C    2.857837  -0.001260
     3  C   -0.632288  -0.006648
     4  C    0.002059   0.002762
     5  C    0.210689  -0.001777
     6  C   -0.090250   0.002415
     7  C   -2.002116   0.012380
     8  C    0.269353   0.013667
     9  C    0.704608   0.001050
    10  C    0.670006   0.000457
    11  C    0.641444   0.015514
    12  C   -0.391952   0.009622
    13  C    0.311915  -0.002858
    14  O   -0.551074   0.260432
    15  Fe   0.653413   4.043129
    16  Cl  -0.556618   0.208981
    17  C    0.316185  -0.001380
    18  Cl  -0.495436   0.232461
    19  Cl  -0.547764   0.210822
    20  H   -0.192756   0.000177
    21  H   -0.156469   0.000006
    22  H   -0.164215   0.000032
    23  H   -0.158399   0.000232
    24  H   -0.183782  -0.000116
    25  H   -0.227637   0.000466
    26  C    0.936089  -0.004342
    27  H   -0.159006   0.000400
    28  H   -0.060957  -0.000174
    29  H   -0.075611  -0.000342
    30  H   -0.151343   0.000466
    31  H   -0.180441  -0.000579
    32  H    0.042542   0.000061
    33  H    0.165497   0.000195
    34  H    0.008550   0.000071
    35  H   -0.011769  -0.000074
    36  H    0.171958   0.002662
    37  H    0.078169   0.000571
    38  O   -0.751141  -0.001463
    39  O   -0.691064   0.001404
    40  C    0.505112  -0.000005
    41  C    0.046326  -0.000000
    42  H   -0.056966   0.000037
    43  H   -0.034375  -0.000024
    44  H   -0.001490  -0.000002
    45  H    0.017401  -0.000002
    46  H    0.014678  -0.000002
 Sum of Mulliken charges =  -0.00000   5.00000

 Dipole moment (field-independent basis, Debye):
    X=             -5.5752    Y=            -12.6283    Z=              4.0823  Tot=             14.3952
 Quadrupole moment (field-independent basis, Debye-Ang):
   XX=           -195.7070   YY=           -154.3571   ZZ=           -173.3647
   XY=            -20.3671   XZ=             18.9340   YZ=             -6.1980

 Normal termination of Gaussian 16 at Sun Jun 20 07:07:15 2021.
