 Gaussian 16, Revision A.03,

 -----------------------------------------------------------
 #p opt=modredundant freq=noraman ub3lyp jul-cc-pvdz pop=cm5
 -----------------------------------------------------------

 -----
 title
 -----
 Symbolic Z-matrix:
 Charge =  0 Multiplicity = 6

 SCF Done:  E(UB3LYP) =  -3531.42635739     A.U. after   26 cycles
 SCF Done:  E(UB3LYP) =  -3531.42671687     A.U. after   16 cycles
 SCF Done:  E(UB3LYP) =  -3531.42410691     A.U. after   19 cycles
 SCF Done:  E(UB3LYP) =  -3531.42048996     A.U. after   18 cycles
 SCF Done:  E(UB3LYP) =  -3531.41417901     A.U. after   18 cycles
 SCF Done:  E(UB3LYP) =  -3531.42671784     A.U. after    9 cycles
 SCF Done:  E(UB3LYP) =  -3531.42698425     A.U. after   16 cycles
 SCF Done:  E(UB3LYP) =  -3531.42685464     A.U. after   15 cycles
 SCF Done:  E(UB3LYP) =  -3531.42697355     A.U. after   15 cycles
 SCF Done:  E(UB3LYP) =  -3531.42701050     A.U. after   15 cycles
 SCF Done:  E(UB3LYP) =  -3531.42705317     A.U. after   13 cycles
 SCF Done:  E(UB3LYP) =  -3531.42705544     A.U. after   12 cycles
 SCF Done:  E(UB3LYP) =  -3531.42705898     A.U. after   12 cycles
 SCF Done:  E(UB3LYP) =  -3531.42705998     A.U. after   11 cycles
 SCF Done:  E(UB3LYP) =  -3531.42706086     A.U. after   10 cycles
 SCF Done:  E(UB3LYP) =  -3531.42706112     A.U. after   11 cycles
 SCF Done:  E(UB3LYP) =  -3531.42706119     A.U. after   10 cycles
 Optimization completed.
    -- Stationary point found.
 Normal termination of Gaussian 16 at Sun Jun 20 05:13:56 2021.

 ----------------------------------------------------------------------
 #P Geom=AllCheck Guess=TCheck SCRF=Check GenChk UB3LYP/Jul-CC-pVDZ Fre
 q
 ----------------------------------------------------------------------

 Structure from the checkpoint file:  "checkpoint.chk"
 -----
 title
 -----
 Charge =  0 Multiplicity = 6

 SCF Done:  E(UB3LYP) =  -3531.42706119     A.U. after    2 cycles

  Exact polarizability: 316.969  16.531 306.441   9.761   9.077 293.632
 Approx polarizability: 491.070  39.199 463.384  -0.985  14.094 491.451

 ******    1 imaginary frequencies (negative Signs) ******

                      1                      2                      3
                      A                      A                      A
 Frequencies --    -93.7904                 4.1204                18.7088
 Red. masses --      3.8341                 9.2190                 4.1474
 Frc consts  --      0.0199                 0.0001                 0.0009
 IR Inten    --    165.1654                 0.3432                 2.4843

                      4                      5                      6
                      A                      A                      A
 Frequencies --     34.8591                36.5407                49.5481
 Red. masses --      3.8133                 7.2567                 6.2595
 Frc consts  --      0.0027                 0.0057                 0.0091
 IR Inten    --      3.6263                 0.1950                 5.1527

                      7                      8                      9
                      A                      A                      A
 Frequencies --     61.0118                67.6405                72.6628
 Red. masses --      3.7457                 3.8987                 4.5573
 Frc consts  --      0.0082                 0.0105                 0.0142
 IR Inten    --      2.8962                 1.9420                 0.1964

                     10                     11                     12
                      A                      A                      A
 Frequencies --     84.8225                89.2559                96.3105
 Red. masses --      9.4985                 6.2329                 5.7443
 Frc consts  --      0.0403                 0.0293                 0.0314
 IR Inten    --      2.0122                 0.2424                 3.6024

                     13                     14                     15
                      A                      A                      A
 Frequencies --    102.9483               106.3056               117.4322
 Red. masses --      2.3759                 4.9530                 8.0617
 Frc consts  --      0.0148                 0.0330                 0.0655
 IR Inten    --      0.4946                 6.9696                33.3228

                     16                     17                     18
                      A                      A                      A
 Frequencies --    120.2761               130.3300               134.0956
 Red. masses --      6.5532                 2.3558                 3.2200
 Frc consts  --      0.0559                 0.0236                 0.0341
 IR Inten    --      0.9144                15.1504                 6.6998

                     19                     20                     21
                      A                      A                      A
 Frequencies --    148.6812               163.8932               170.0275
 Red. masses --      4.2060                 1.6868                 1.9724
 Frc consts  --      0.0548                 0.0267                 0.0336
 IR Inten    --      2.9188                14.1911                 6.1213

                     22                     23                     24
                      A                      A                      A
 Frequencies --    194.7686               207.9010               221.4797
 Red. masses --      2.8443                 3.4913                 3.2747
 Frc consts  --      0.0636                 0.0889                 0.0946
 IR Inten    --      6.4251                20.0761                21.2723

                     25                     26                     27
                      A                      A                      A
 Frequencies --    238.9135               258.2651               286.2139
 Red. masses --      3.5517                 1.7058                 3.3586
 Frc consts  --      0.1194                 0.0670                 0.1621
 IR Inten    --      6.2916                 3.0103                 1.0800

                     28                     29                     30
                      A                      A                      A
 Frequencies --    300.5988               319.8186               345.4982
 Red. masses --      2.7883                 7.0813                19.7350
 Frc consts  --      0.1484                 0.4267                 1.3880
 IR Inten    --      5.9883                 1.2909                52.5587

                     31                     32                     33
                      A                      A                      A
 Frequencies --    356.4556               373.4384               389.5757
 Red. masses --      4.2955                 5.9859                31.1950
 Frc consts  --      0.3216                 0.4918                 2.7895
 IR Inten    --      3.8763                15.9973                89.2445

                     34                     35                     36
                      A                      A                      A
 Frequencies --    394.9471               400.6126               414.3803
 Red. masses --     20.1720                 3.0328                 2.9304
 Frc consts  --      1.8539                 0.2868                 0.2965
 IR Inten    --     73.4515                 5.2094                 0.7407

                     37                     38                     39
                      A                      A                      A
 Frequencies --    435.0308               453.5256               484.7097
 Red. masses --      3.9913                 4.1739                 2.1986
 Frc consts  --      0.4450                 0.5058                 0.3043
 IR Inten    --     33.8927                 6.4426                 3.6949

                     40                     41                     42
                      A                      A                      A
 Frequencies --    503.4443               529.3141               535.2735
 Red. masses --      2.7704                 3.5735                 3.3608
 Frc consts  --      0.4137                 0.5899                 0.5673
 IR Inten    --      2.9385                 9.6207                20.3765

                     43                     44                     45
                      A                      A                      A
 Frequencies --    598.5828               625.8149               643.2515
 Red. masses --      5.2699                 6.2742                 4.0251
 Frc consts  --      1.1125                 1.4478                 0.9813
 IR Inten    --     50.8223                 6.1991               132.5294

                     46                     47                     48
                      A                      A                      A
 Frequencies --    695.4001               701.2071               753.6663
 Red. masses --      6.0933                 1.6334                 3.9904
 Frc consts  --      1.7361                 0.4732                 1.3354
 IR Inten    --     18.8061                63.9891                 8.1063

                     49                     50                     51
                      A                      A                      A
 Frequencies --    769.2016               801.2373               813.9283
 Red. masses --      2.3032                 1.4630                 2.3783
 Frc consts  --      0.8029                 0.5534                 0.9283
 IR Inten    --      7.7997                12.3998                23.7691

                     52                     53                     54
                      A                      A                      A
 Frequencies --    828.9770               848.5367               864.6350
 Red. masses --      3.0016                 1.2568                 2.0617
 Frc consts  --      1.2153                 0.5331                 0.9081
 IR Inten    --      2.2943                 1.9823                13.3751

                     55                     56                     57
                      A                      A                      A
 Frequencies --    874.2203               912.2435               920.7445
 Red. masses --      1.7039                 1.5410                 2.2747
 Frc consts  --      0.7672                 0.7556                 1.1362
 IR Inten    --     13.3989                 0.0949                15.4970

                     58                     59                     60
                      A                      A                      A
 Frequencies --    941.0662               961.0121               967.6796
 Red. masses --      1.4117                 1.4848                 2.6609
 Frc consts  --      0.7366                 0.8080                 1.4681
 IR Inten    --      1.7893                11.4233                 9.9985

                     61                     62                     63
                      A                      A                      A
 Frequencies --    986.4155               989.1429               998.7242
 Red. masses --      1.3914                 1.9298                 1.6529
 Frc consts  --      0.7977                 1.1125                 0.9714
 IR Inten    --     45.3451                40.7560                10.3261

                     64                     65                     66
                      A                      A                      A
 Frequencies --   1002.0251              1008.2181              1013.6990
 Red. masses --      1.8105                 2.4917                 1.9539
 Frc consts  --      1.0710                 1.4923                 1.1830
 IR Inten    --      0.3256                 1.9138                16.0188

                     67                     68                     69
                      A                      A                      A
 Frequencies --   1039.4918              1047.5275              1068.2713
 Red. masses --      2.8100                 2.2999                 2.1471
 Frc consts  --      1.7889                 1.4869                 1.4437
 IR Inten    --     43.2899                 5.1514                 1.8210

                     70                     71                     72
                      A                      A                      A
 Frequencies --   1078.9736              1098.2503              1109.6262
 Red. masses --      1.8932                 1.7474                 1.5760
 Frc consts  --      1.2985                 1.2418                 1.1433
 IR Inten    --      0.5513                11.0285                10.1009

                     73                     74                     75
                      A                      A                      A
 Frequencies --   1133.5682              1138.6293              1163.7102
 Red. masses --      2.1764                 2.3859                 1.6792
 Frc consts  --      1.6477                 1.8225                 1.3398
 IR Inten    --     12.2172                 5.4602                30.2670

                     76                     77                     78
                      A                      A                      A
 Frequencies --   1168.9114              1175.5403              1199.2405
 Red. masses --      1.5746                 1.0889                 1.3617
 Frc consts  --      1.2676                 0.8866                 1.1538
 IR Inten    --      0.7978                 0.5648                54.0988

                     79                     80                     81
                      A                      A                      A
 Frequencies --   1204.9810              1222.3232              1233.6856
 Red. masses --      1.3735                 3.2984                 2.0466
 Frc consts  --      1.1750                 2.9035                 1.8352
 IR Inten    --     28.7510                65.5592               150.5703

                     82                     83                     84
                      A                      A                      A
 Frequencies --   1262.6277              1283.8454              1306.0522
 Red. masses --      1.8874                 1.1072                 1.7004
 Frc consts  --      1.7728                 1.0752                 1.7089
 IR Inten    --     27.1447                 3.8636               218.5223

                     85                     86                     87
                      A                      A                      A
 Frequencies --   1323.4305              1327.6314              1333.8652
 Red. masses --      1.4839                 1.4852                 1.7115
 Frc consts  --      1.5313                 1.5424                 1.7941
 IR Inten    --     46.5369                31.7531                18.9611

                     88                     89                     90
                      A                      A                      A
 Frequencies --   1359.9433              1365.4535              1365.8101
 Red. masses --      3.2187                 1.4626                 1.3085
 Frc consts  --      3.5073                 1.6067                 1.4382
 IR Inten    --      6.2505                20.4697                73.5208

                     91                     92                     93
                      A                      A                      A
 Frequencies --   1384.7145              1387.9189              1395.1495
 Red. masses --      1.4322                 1.2445                 1.8621
 Frc consts  --      1.6180                 1.4125                 2.1355
 IR Inten    --     40.9762                21.4852                68.8876

                     94                     95                     96
                      A                      A                      A
 Frequencies --   1414.8207              1418.5097              1446.4844
 Red. masses --      1.8711                 1.6367                 1.0594
 Frc consts  --      2.2067                 1.9404                 1.3060
 IR Inten    --    290.3437                87.3154                 2.6029

                     97                     98                     99
                      A                      A                      A
 Frequencies --   1463.7392              1469.4554              1473.4297
 Red. masses --      1.0786                 1.2946                 1.0388
 Frc consts  --      1.3616                 1.6470                 1.3287
 IR Inten    --      4.3308                27.0584                 6.7220

                    100                    101                    102
                      A                      A                      A
 Frequencies --   1475.7580              1477.6745              1485.4236
 Red. masses --      1.5843                 1.1673                 1.0545
 Frc consts  --      2.0329                 1.5017                 1.3709
 IR Inten    --     40.9735                33.1592                 7.7719

                    103                    104                    105
                      A                      A                      A
 Frequencies --   1490.7962              1499.1925              1506.1470
 Red. masses --      1.1436                 1.1396                 1.0862
 Frc consts  --      1.4975                 1.5091                 1.4518
 IR Inten    --     15.4343                 8.5099                 8.4608

                    106                    107                    108
                      A                      A                      A
 Frequencies --   1515.9312              1619.2405              1633.5307
 Red. masses --      2.0514                 5.5274                 5.0071
 Frc consts  --      2.7775                 8.5388                 7.8721
 IR Inten    --      2.6750                17.9325               141.9617

                    109                    110                    111
                      A                      A                      A
 Frequencies --   1639.8383              1765.1811              2998.8429
 Red. masses --      5.6487                11.8514                 1.0500
 Frc consts  --      8.9495                21.7570                 5.5634
 IR Inten    --      7.5522               236.2208                38.8050

                    112                    113                    114
                      A                      A                      A
 Frequencies --   3020.8631              3040.6388              3042.4725
 Red. masses --      1.0403                 1.0647                 1.0361
 Frc consts  --      5.5933                 5.7997                 5.6508
 IR Inten    --      4.7831                22.1746                14.4452

                    115                    116                    117
                      A                      A                      A
 Frequencies --   3058.6061              3063.2322              3070.1292
 Red. masses --      1.0590                 1.0684                 1.0776
 Frc consts  --      5.8369                 5.9065                 5.9846
 IR Inten    --     17.2663                21.1565                 4.4495

                    118                    119                    120
                      A                      A                      A
 Frequencies --   3072.7084              3082.3817              3097.6644
 Red. masses --      1.0947                 1.0864                 1.0997
 Frc consts  --      6.0893                 6.0814                 6.2171
 IR Inten    --      2.8911                11.4340                10.9680

                    121                    122                    123
                      A                      A                      A
 Frequencies --   3106.4684              3115.3125              3118.7932
 Red. masses --      1.1070                 1.1037                 1.1009
 Frc consts  --      6.2941                 6.3111                 6.3092
 IR Inten    --      7.0964                13.7227                20.8861

                    124                    125                    126
                      A                      A                      A
 Frequencies --   3137.8870              3145.0498              3155.7784
 Red. masses --      1.1047                 1.1001                 1.0983
 Frc consts  --      6.4086                 6.4112                 6.4441
 IR Inten    --     18.0591                 7.2466                 9.5201

                    127                    128                    129
                      A                      A                      A
 Frequencies --   3165.3718              3172.7324              3184.5224
 Red. masses --      1.0870                 1.0857                 1.0905
 Frc consts  --      6.4170                 6.4394                 6.5159
 IR Inten    --     11.3164                 0.2612                 6.9060

                    130                    131                    132
                      A                      A                      A
 Frequencies --   3194.7804              3210.7711              3222.5964
 Red. masses --      1.0960                 1.0935                 1.0926
 Frc consts  --      6.5910                 6.6421                 6.6854
 IR Inten    --     13.4436                 2.0630                 2.4476

 - Thermochemistry -
 -------------------
 Temperature   298.150 Kelvin.  Pressure   1.00000 Atm.
 Atom     1 has atomic number  6 and mass  12.00000

 Molecular mass:   434.99839 amu.
 Principal axes and moments of inertia in atomic units:
                           1         2         3
     Eigenvalues --  9158.33772********************
           X            0.99955   0.02421   0.01764
           Y           -0.02453   0.99954   0.01789
           Z           -0.01720  -0.01832   0.99968
 This molecule is an asymmetric top.
 Rotational symmetry number  1.
 Warning -- assumption of classical behavior for rotation
           may cause significant error
 Rotational temperatures (Kelvin)      0.00946     0.00782     0.00660
 Rotational constants (GHZ):           0.19706     0.16285     0.13754
    1 imaginary frequencies ignored.
 Zero-point vibrational energy     941611.8 (Joules/Mol)
                                  225.05061 (Kcal/Mol)
 Warning -- explicit consideration of  42 degrees of freedom as
           vibrations may cause significant error
 Vibrational temperatures:      5.93    26.92    50.15    52.57    71.29
          (Kelvin)             87.78    97.32   104.55   122.04   128.42
                              138.57   148.12   152.95   168.96   173.05
                              187.52   192.93   213.92   235.81   244.63
                              280.23   299.12   318.66   343.74   371.59
                              411.80   432.49   460.15   497.09   512.86
                              537.29   560.51   568.24   576.39   596.20
                              625.91   652.52   697.39   724.34   761.56
                              770.14   861.23   900.41   925.50  1000.53
                             1008.88  1084.36  1106.71  1152.80  1171.06
                             1192.71  1220.86  1244.02  1257.81  1312.51
                             1324.75  1353.98  1382.68  1392.28  1419.23
                             1423.16  1436.94  1441.69  1450.60  1458.49
                             1495.60  1507.16  1537.00  1552.40  1580.14
                             1596.50  1630.95  1638.23  1674.32  1681.80
                             1691.34  1725.44  1733.70  1758.65  1775.00
                             1816.64  1847.17  1879.12  1904.12  1910.17
                             1919.13  1956.66  1964.58  1965.10  1992.30
                             1996.91  2007.31  2035.61  2040.92  2081.17
                             2105.99  2114.22  2119.94  2123.29  2126.04
                             2137.19  2144.92  2157.00  2167.01  2181.09
                             2329.73  2350.29  2359.36  2539.70  4314.67
                             4346.35  4374.80  4377.44  4400.65  4407.31
                             4417.23  4420.94  4434.86  4456.85  4469.52
                             4482.24  4487.25  4514.72  4525.03  4540.46
                             4554.26  4564.85  4581.82  4596.58  4619.58
                             4636.60

 Zero-point correction=                           0.358641 (Hartree/Particle)
 Thermal correction to Energy=                    0.386421
 Thermal correction to Enthalpy=                  0.387365
 Thermal correction to Gibbs Free Energy=         0.293845
 Sum of electronic and zero-point Energies=          -3531.068420
 Sum of electronic and thermal Energies=             -3531.040640
 Sum of electronic and thermal Enthalpies=           -3531.039696
 Sum of electronic and thermal Free Energies=        -3531.133217

                     E (Thermal)             CV                S
                      KCal/Mol        Cal/Mol-Kelvin    Cal/Mol-Kelvin
 Total                  242.483             97.826            196.831
 Electronic               0.000              0.000              3.561
 Translational            0.889              2.981             44.100
 Rotational               0.889              2.981             35.542
 Vibrational            240.706             91.864            113.628
 Vibration     1          0.593              1.987              9.773
 Vibration     2          0.593              1.986              6.767
 Vibration     3          0.594              1.983              5.532
 Vibration     4          0.594              1.982              5.438
 Vibration     5          0.595              1.978              4.835
 Vibration     6          0.597              1.973              4.424
 Vibration     7          0.598              1.970              4.221
 Vibration     8          0.599              1.967              4.080
 Vibration     9          0.601              1.960              3.776
 Vibration    10          0.602              1.957              3.676
 Vibration    11          0.603              1.952              3.528
 Vibration    12          0.605              1.947              3.398
 Vibration    13          0.605              1.944              3.335
 Vibration    14          0.608              1.935              3.142
 Vibration    15          0.609              1.932              3.096
 Vibration    16          0.612              1.923              2.941
 Vibration    17          0.613              1.919              2.886
 Vibration    18          0.618              1.904              2.689
 Vibration    19          0.623              1.887              2.504
 Vibration    20          0.625              1.879              2.435
 Vibration    21          0.635              1.847              2.182
 Vibration    22          0.641              1.829              2.062
 Vibration    23          0.648              1.808              1.947
 Vibration    24          0.657              1.781              1.811
 Vibration    25          0.667              1.749              1.673
 Vibration    26          0.684              1.699              1.496
 Vibration    27          0.693              1.673              1.414
 Vibration    28          0.706              1.636              1.311
 Vibration    29          0.724              1.584              1.187
 Vibration    30          0.732              1.562              1.138
 Vibration    31          0.745              1.527              1.066
 Vibration    32          0.758              1.492              1.002
 Vibration    33          0.762              1.481              0.981
 Vibration    34          0.766              1.469              0.960
 Vibration    35          0.778              1.439              0.911
 Vibration    36          0.796              1.394              0.842
 Vibration    37          0.812              1.353              0.785
 Vibration    38          0.841              1.284              0.697
 Vibration    39          0.859              1.242              0.650
 Vibration    40          0.884              1.185              0.589
 Vibration    41          0.890              1.172              0.576
 Vibration    42          0.957              1.035              0.452

                           ! Non-Optimized Parameters !
 Normal termination of Gaussian 16 at Sun Jun 20 09:17:07 2021.

 ----------------------------------------------------------------------
 #p ub3lyp jul-cc-pvdz pop=cm5 scrf=(pcm,solvent=dichloroethane) guess=
 read geom=allcheck
 ----------------------------------------------------------------------

 Structure from the checkpoint file:  "checkpoint.chk"
 -----
 title
 -----
 Charge =  0 Multiplicity = 6

 SCF Done:  E(UB3LYP) =  -3531.44743706     A.U. after   19 cycles
 Normal termination of Gaussian 16 at Sun Jun 20 09:41:48 2021.
 Gaussian 16:  ES64L-G16RevA.03 25-Dec-2016

 ----------------------------------------------------------------------
 #p ub3lyp jul-cc-pvdz pop=cm5 scrf=(pcm,solvent=water) guess=read geom
 =allcheck
 ----------------------------------------------------------------------

 Structure from the checkpoint file:  "checkpoint.chk"
 -----
 title
 -----
 Charge =  0 Multiplicity = 6

                         Standard orientation:
 ---------------------------------------------------------------------
 Center     Atomic      Atomic             Coordinates (Angstroms)
 Number     Number       Type             X           Y           Z
 ---------------------------------------------------------------------
      1          6           0        3.122675   -0.475649    0.358017
      2          6           0        1.755001   -0.546869    0.685883
      3          6           0        1.379153   -0.495626    2.039463
      4          6           0        2.346631   -0.388482    3.040557
      5          6           0        3.702101   -0.331021    2.705712
      6          6           0        4.086261   -0.369629    1.359517
      7          6           0        0.678561   -0.616700   -0.363146
      8          6           0        0.868479    0.152559   -1.715463
      9          6           0        1.481698   -0.695546   -2.832147
     10          6           0        0.883480   -2.093457   -2.677237
     11          6           0        1.095657   -2.481049   -1.235061
     12          6           0        0.240962   -3.205999   -0.440092
     13          6           0       -1.185724   -3.451220   -0.771439
     14          8           0       -0.531998   -0.671472    0.078274
     15         26           0       -2.194823    0.309372    0.327817
     16         17           0       -2.741048    1.235123   -1.607181
     17          6           0        0.692444   -3.705817    0.894644
     18         17           0       -1.851702    1.757983    1.957564
     19         17           0       -3.665131   -1.227949    0.949995
     20          1           0        0.323374   -0.506900    2.300824
     21          1           0        2.036219   -0.339160    4.084930
     22          1           0        4.457951   -0.245955    3.487964
     23          1           0        5.140944   -0.310165    1.088318
     24          1           0        3.445835   -0.488530   -0.681121
     25          1           0       -0.159627    0.416928   -1.996251
     26          6           0        1.613558    1.476146   -1.516910
     27          1           0        1.261230   -0.250007   -3.810552
     28          1           0        2.575196   -0.723953   -2.737323
     29          1           0       -0.181433   -2.083118   -2.941174
     30          1           0        1.380937   -2.815671   -3.342130
     31          1           0        2.144087   -2.500550   -0.936223
     32          1           0        1.732244   -3.446020    1.118043
     33          1           0        0.038932   -3.304817    1.686490
     34          1           0        0.585312   -4.801490    0.932216
     35          1           0       -1.483379   -4.462605   -0.459827
     36          1           0       -1.809777   -2.754230   -0.183422
     37          1           0       -1.426696   -3.312489   -1.829221
     38          8           0        0.900006    2.317430   -0.760956
     39          8           0        2.692845    1.734420   -2.008158
     40          6           0        1.483592    3.631316   -0.514298
     41          6           0        0.448589    4.468168    0.207481
     42          1           0        2.396351    3.486911    0.080252
     43          1           0        1.772158    4.061299   -1.482167
     44          1           0        0.872606    5.461039    0.416858
     45          1           0       -0.451592    4.595970   -0.408402
     46          1           0        0.152988    4.002407    1.156090
 ---------------------------------------------------------------------

 SCF Done:  E(UB3LYP) =  -3531.45129302     A.U. after   17 cycles

 The electronic state is 6-A.
 Alpha  occ. eigenvalues -- -256.20957-101.52456-101.52351-101.52297 -30.20361
 Alpha  occ. eigenvalues --  -26.05727 -26.05575 -26.05473 -19.20623 -19.17733
 Alpha  occ. eigenvalues --  -19.15629 -10.33417 -10.32613 -10.25314 -10.24954
 Alpha  occ. eigenvalues --  -10.22582 -10.22074 -10.21281 -10.21101 -10.20952
 Alpha  occ. eigenvalues --  -10.20857 -10.20707 -10.20586 -10.20137 -10.20111
 Alpha  occ. eigenvalues --  -10.19969 -10.19568 -10.18577  -9.44181  -9.44082
 Alpha  occ. eigenvalues --   -9.44030  -7.20046  -7.19950  -7.19900  -7.19734
 Alpha  occ. eigenvalues --   -7.19721  -7.19624  -7.19622  -7.19575  -7.19571
 Alpha  occ. eigenvalues --   -3.68029  -2.45628  -2.45338  -2.45141  -1.12534
 Alpha  occ. eigenvalues --   -1.07546  -1.04003  -0.88023  -0.86473  -0.83415
 Alpha  occ. eigenvalues --   -0.80432  -0.79701  -0.79618  -0.78899  -0.78223
 Alpha  occ. eigenvalues --   -0.76551  -0.75048  -0.71784  -0.70570  -0.66642
 Alpha  occ. eigenvalues --   -0.64552  -0.62448  -0.61640  -0.59595  -0.57464
 Alpha  occ. eigenvalues --   -0.55974  -0.54506  -0.53104  -0.51517  -0.50399
 Alpha  occ. eigenvalues --   -0.49839  -0.49229  -0.48807  -0.48354  -0.48144
 Alpha  occ. eigenvalues --   -0.47908  -0.47665  -0.47130  -0.46800  -0.45946
 Alpha  occ. eigenvalues --   -0.45344  -0.44811  -0.43913  -0.43472  -0.42582
 Alpha  occ. eigenvalues --   -0.42404  -0.40980  -0.40430  -0.40382  -0.40055
 Alpha  occ. eigenvalues --   -0.39050  -0.38666  -0.37851  -0.37676  -0.37506
 Alpha  occ. eigenvalues --   -0.37271  -0.36874  -0.36238  -0.36074  -0.35722
 Alpha  occ. eigenvalues --   -0.34864  -0.34575  -0.34076  -0.32244  -0.32068
 Alpha  occ. eigenvalues --   -0.31231  -0.31207  -0.30897  -0.30556  -0.30097
 Alpha  occ. eigenvalues --   -0.29845  -0.29243  -0.28400  -0.27289  -0.26066
 Alpha virt. eigenvalues --   -0.11073  -0.03521  -0.02882  -0.01572  -0.01185
 Alpha virt. eigenvalues --   -0.00183  -0.00031   0.00055   0.01455   0.01630
 Alpha virt. eigenvalues --    0.01825   0.01955   0.02428   0.03316   0.03621

  Beta  occ. eigenvalues -- -256.20772-101.52273-101.52172-101.52111 -30.11409
  Beta  occ. eigenvalues --  -25.98163 -25.98144 -25.98084 -19.20624 -19.17248
  Beta  occ. eigenvalues --  -19.15627 -10.33417 -10.32607 -10.25272 -10.24954
  Beta  occ. eigenvalues --  -10.22570 -10.22054 -10.21255 -10.21103 -10.20954
  Beta  occ. eigenvalues --  -10.20859 -10.20704 -10.20585 -10.20137 -10.20110
  Beta  occ. eigenvalues --  -10.19971 -10.19571 -10.18576  -9.44001  -9.43906
  Beta  occ. eigenvalues --   -9.43848  -7.19743  -7.19648  -7.19594  -7.19487
  Beta  occ. eigenvalues --   -7.19474  -7.19392  -7.19381  -7.19328  -7.19318
  Beta  occ. eigenvalues --   -3.47156  -2.23419  -2.23371  -2.23323  -1.12531
  Beta  occ. eigenvalues --   -1.06606  -1.04000  -0.87968  -0.86402  -0.83356
  Beta  occ. eigenvalues --   -0.79254  -0.78893  -0.78436  -0.78344  -0.78144
  Beta  occ. eigenvalues --   -0.76547  -0.75022  -0.71769  -0.70477  -0.66491
  Beta  occ. eigenvalues --   -0.64482  -0.62415  -0.61569  -0.59222  -0.57225
  Beta  occ. eigenvalues --   -0.55515  -0.54416  -0.52235  -0.51482  -0.50141
  Beta  occ. eigenvalues --   -0.49600  -0.48901  -0.47993  -0.47532  -0.46953
  Beta  occ. eigenvalues --   -0.45800  -0.44880  -0.43900  -0.43487  -0.42571
  Beta  occ. eigenvalues --   -0.42386  -0.41041  -0.40393  -0.40359  -0.40060
  Beta  occ. eigenvalues --   -0.39041  -0.38505  -0.38215  -0.37758  -0.37488
  Beta  occ. eigenvalues --   -0.37225  -0.36912  -0.36289  -0.36121  -0.36056
  Beta  occ. eigenvalues --   -0.35924  -0.35762  -0.34720  -0.33372  -0.33252
  Beta  occ. eigenvalues --   -0.32638  -0.32442  -0.32023  -0.31439  -0.30369
  Beta  occ. eigenvalues --   -0.29724  -0.29214  -0.28512  -0.27296  -0.25967
  Beta virt. eigenvalues --   -0.14916  -0.14475  -0.13557  -0.13329  -0.13072
  Beta virt. eigenvalues --   -0.10194  -0.03484  -0.02845  -0.01482  -0.01136
  Beta virt. eigenvalues --   -0.00140  -0.00003   0.00084   0.01472   0.01657

 Mulliken charges and spin densities:
               1          2
     1  C   -0.067299  -0.002357
     2  C    3.119089   0.013041
     3  C   -0.703099  -0.008824
     4  C    0.019289   0.004623
     5  C    0.250024  -0.001921
     6  C   -0.023467   0.002903
     7  C   -2.655322  -0.011086
     8  C    0.702600   0.007468
     9  C    0.634556   0.001206
    10  C    0.742339   0.001065
    11  C    0.618062   0.008825
    12  C   -0.232453   0.031902
    13  C    0.051191  -0.005274
    14  O   -0.397016   0.140843
    15  Fe   0.629362   4.069268
    16  Cl  -0.511482   0.242444
    17  C    0.333373  -0.000927
    18  Cl  -0.475596   0.250735
    19  Cl  -0.486711   0.244952
    20  H   -0.213124   0.001750
    21  H   -0.156400   0.000006
    22  H   -0.155337   0.000031
    23  H   -0.157535   0.000133
    24  H   -0.196006  -0.000069
    25  H   -0.194088   0.000383
    26  C    0.808998  -0.003139
    27  H   -0.165475   0.000290
    28  H   -0.033697  -0.000074
    29  H   -0.087797   0.000056
    30  H   -0.132744   0.000799
    31  H   -0.226561  -0.000867
    32  H    0.015589   0.000010
    33  H    0.077138   0.001544
    34  H    0.000090   0.001597
    35  H    0.010791   0.000712
    36  H    0.115114   0.004565
    37  H    0.007458   0.000174
    38  O   -0.694361   0.002327
    39  O   -0.627151   0.000945
    40  C    0.437431   0.000903
    41  C    0.046509  -0.000758
    42  H   -0.028851   0.000032
    43  H   -0.033825   0.000023
    44  H   -0.008619   0.000022
    45  H    0.022122  -0.000022
    46  H    0.022887  -0.000260
 Sum of Mulliken charges =  -0.00000   5.00000

 Dipole moment (field-independent basis, Debye):
    X=             10.0638    Y=             -7.1909    Z=             -1.1224  Tot=             12.4197
 Quadrupole moment (field-independent basis, Debye-Ang):
   XX=           -197.6218   YY=           -153.4545   ZZ=           -173.2567
   XY=             -1.0280   XZ=             12.6529   YZ=              5.3858

 Normal termination of Gaussian 16 at Sun Jun 20 10:03:45 2021.
