 Gaussian 16, Revision A.03,

 -----------------------------------------------------------
 #p opt=modredundant freq=noraman ub3lyp jul-cc-pvdz pop=cm5
 -----------------------------------------------------------

 -----
 title
 -----
 Symbolic Z-matrix:
 Charge =  0 Multiplicity = 6

 SCF Done:  E(UB3LYP) =  -3531.43423031     A.U. after   25 cycles
 SCF Done:  E(UB3LYP) =  -3531.43360808     A.U. after   17 cycles
 SCF Done:  E(UB3LYP) =  -3531.43210295     A.U. after   17 cycles
 SCF Done:  E(UB3LYP) =  -3531.43218916     A.U. after   18 cycles
 SCF Done:  E(UB3LYP) =  -3531.43473908     A.U. after   12 cycles
 SCF Done:  E(UB3LYP) =  -3531.43380871     A.U. after   18 cycles
 SCF Done:  E(UB3LYP) =  -3531.43521075     A.U. after   17 cycles
 SCF Done:  E(UB3LYP) =  -3531.43523716     A.U. after   15 cycles
 SCF Done:  E(UB3LYP) =  -3531.43543382     A.U. after   15 cycles
 SCF Done:  E(UB3LYP) =  -3531.43545780     A.U. after   14 cycles
 SCF Done:  E(UB3LYP) =  -3531.43615335     A.U. after   12 cycles
 SCF Done:  E(UB3LYP) =  -3531.43615020     A.U. after   12 cycles
 SCF Done:  E(UB3LYP) =  -3531.43614989     A.U. after   11 cycles
 SCF Done:  E(UB3LYP) =  -3531.43614898     A.U. after   11 cycles
 SCF Done:  E(UB3LYP) =  -3531.43614893     A.U. after   11 cycles
 SCF Done:  E(UB3LYP) =  -3531.43614897     A.U. after   10 cycles
 SCF Done:  E(UB3LYP) =  -3531.43614908     A.U. after   11 cycles
 Optimization completed.
    -- Stationary point found.
 Normal termination of Gaussian 16 at Sun Jun 20 23:22:27 2021.

 ----------------------------------------------------------------------
 #P Geom=AllCheck Guess=TCheck SCRF=Check GenChk UB3LYP/Jul-CC-pVDZ Fre
 q
 ----------------------------------------------------------------------

 Structure from the checkpoint file:  "checkpoint.chk"
 -----
 title
 -----
 Charge =  0 Multiplicity = 6

 SCF Done:  E(UB3LYP) =  -3531.43614908     A.U. after    2 cycles

  Exact polarizability: 316.978  13.953 305.952  15.341   6.820 300.356
 Approx polarizability: 487.511  47.937 465.804  17.560   1.170 497.576

 ******    1 imaginary frequencies (negative Signs) ******

                      1                      2                      3
                      A                      A                      A
 Frequencies --    -20.1957                15.8950                22.7259
 Red. masses --      6.3866                 4.9003                 5.8180
 Frc consts  --      0.0015                 0.0007                 0.0018
 IR Inten    --      0.3359                 0.1884                 1.2580

                      4                      5                      6
                      A                      A                      A
 Frequencies --     27.8134                47.7395                49.9994
 Red. masses --      8.5952                 5.1871                 3.8411
 Frc consts  --      0.0039                 0.0070                 0.0057
 IR Inten    --      0.4111                 1.5156                 0.8628

                      7                      8                      9
                      A                      A                      A
 Frequencies --     58.0540                63.5043                79.7801
 Red. masses --      5.2713                 3.2847                 9.5895
 Frc consts  --      0.0105                 0.0078                 0.0360
 IR Inten    --      1.4762                 1.5809                 0.3227

                     10                     11                     12
                      A                      A                      A
 Frequencies --     86.7883                91.8686                99.5786
 Red. masses --      8.8490                 8.3944                 4.0085
 Frc consts  --      0.0393                 0.0417                 0.0234
 IR Inten    --      0.6617                 4.4058                 0.6202

                     13                     14                     15
                      A                      A                      A
 Frequencies --    104.0996               115.1497               120.3792
 Red. masses --      5.6215                 6.4835                 2.1310
 Frc consts  --      0.0359                 0.0507                 0.0182
 IR Inten    --      0.5548                 0.6997                 1.2685

                     16                     17                     18
                      A                      A                      A
 Frequencies --    124.8840               139.5967               146.0183
 Red. masses --      8.5695                 2.9829                 3.6852
 Frc consts  --      0.0787                 0.0342                 0.0463
 IR Inten    --      1.9463                 4.5555                 1.6687

                     19                     20                     21
                      A                      A                      A
 Frequencies --    159.0288               171.9944               183.9935
 Red. masses --      1.8669                 5.3787                 1.1918
 Frc consts  --      0.0278                 0.0937                 0.0238
 IR Inten    --      5.4508                19.7851                 3.9675

                     22                     23                     24
                      A                      A                      A
 Frequencies --    201.9781               204.7662               223.8162
 Red. masses --      3.8880                 2.1813                 3.2561
 Frc consts  --      0.0935                 0.0539                 0.0961
 IR Inten    --      2.2375                 1.7187                 8.6539

                     25                     26                     27
                      A                      A                      A
 Frequencies --    259.1311               267.6979               291.7488
 Red. masses --      1.6449                 4.3523                 3.9302
 Frc consts  --      0.0651                 0.1838                 0.1971
 IR Inten    --      5.1706                76.7278                 2.7397

                     28                     29                     30
                      A                      A                      A
 Frequencies --    317.3274               327.0579               346.3171
 Red. masses --      2.3262                10.2773                15.4018
 Frc consts  --      0.1380                 0.6477                 1.0884
 IR Inten    --      1.3805                 3.8655                52.6396

                     31                     32                     33
                      A                      A                      A
 Frequencies --    352.9970               379.0735               394.9834
 Red. masses --      5.4444                 4.5900                10.2309
 Frc consts  --      0.3997                 0.3886                 0.9404
 IR Inten    --      2.2799                16.7741                73.8127

                     34                     35                     36
                      A                      A                      A
 Frequencies --    397.5359               400.6504               410.5330
 Red. masses --      3.9250                 9.9118                 2.8618
 Frc consts  --      0.3655                 0.9374                 0.2842
 IR Inten    --     26.7309                61.3727                 0.9090

                     37                     38                     39
                      A                      A                      A
 Frequencies --    424.0675               453.1573               478.1906
 Red. masses --      3.7759                 3.5393                 2.9623
 Frc consts  --      0.4001                 0.4282                 0.3991
 IR Inten    --     46.6017                 1.4232                 8.5542

                     40                     41                     42
                      A                      A                      A
 Frequencies --    505.5249               517.8425               547.1964
 Red. masses --      3.0396                 2.9857                 3.2749
 Frc consts  --      0.4577                 0.4717                 0.5777
 IR Inten    --     12.0774                 3.3574                25.3744

                     43                     44                     45
                      A                      A                      A
 Frequencies --    585.0780               624.6774               646.4515
 Red. masses --      4.3858                 6.2302                 4.1217
 Frc consts  --      0.8846                 1.4324                 1.0148
 IR Inten    --     76.2461                 7.1486                90.3474

                     46                     47                     48
                      A                      A                      A
 Frequencies --    690.4658               701.7990               753.6153
 Red. masses --      1.6144                 6.1997                 4.4943
 Frc consts  --      0.4535                 1.7991                 1.5039
 IR Inten    --     57.5406                14.6141                 6.3847

                     49                     50                     51
                      A                      A                      A
 Frequencies --    767.7724               791.7160               804.1020
 Red. masses --      2.3305                 2.2619                 1.2730
 Frc consts  --      0.8094                 0.8354                 0.4850
 IR Inten    --     19.5515                12.3440                 1.9936

                     52                     53                     54
                      A                      A                      A
 Frequencies --    822.8286               842.0086               856.8986
 Red. masses --      3.2900                 1.2612                 1.5393
 Frc consts  --      1.3124                 0.5268                 0.6659
 IR Inten    --     15.8922                 0.9451                 9.5940

                     55                     56                     57
                      A                      A                      A
 Frequencies --    865.6725               900.1718               919.9141
 Red. masses --      2.5648                 1.9514                 2.0005
 Frc consts  --      1.1324                 0.9317                 0.9974
 IR Inten    --     41.3736                 3.6817                18.0535

                     58                     59                     60
                      A                      A                      A
 Frequencies --    944.9880               958.8063               969.4714
 Red. masses --      1.4206                 1.3958                 3.3399
 Frc consts  --      0.7474                 0.7560                 1.8495
 IR Inten    --      0.3732                 4.0502                27.5486

                     61                     62                     63
                      A                      A                      A
 Frequencies --    986.9906               988.5586               991.3678
 Red. masses --      1.7993                 1.4413                 1.6418
 Frc consts  --      1.0327                 0.8299                 0.9507
 IR Inten    --     12.1068                22.0753                12.0646

                     64                     65                     66
                      A                      A                      A
 Frequencies --   1003.1688              1008.6542              1014.4944
 Red. masses --      3.1814                 1.5613                 2.0055
 Frc consts  --      1.8863                 0.9359                 1.2161
 IR Inten    --      1.2480                 1.3241                 4.7179

                     67                     68                     69
                      A                      A                      A
 Frequencies --   1036.7063              1047.1586              1072.8737
 Red. masses --      2.6620                 2.3914                 2.2877
 Frc consts  --      1.6857                 1.5450                 1.5515
 IR Inten    --     42.9293                 3.0224                 3.0445

                     70                     71                     72
                      A                      A                      A
 Frequencies --   1089.1231              1095.7097              1112.7115
 Red. masses --      1.8025                 1.9497                 1.5613
 Frc consts  --      1.2597                 1.3791                 1.1389
 IR Inten    --      5.7248                14.4954                 8.7642

                     73                     74                     75
                      A                      A                      A
 Frequencies --   1132.8732              1137.9803              1162.1145
 Red. masses --      2.1408                 2.2282                 1.6829
 Frc consts  --      1.6188                 1.7001                 1.3391
 IR Inten    --     14.5492                 8.9315                72.5782

                     76                     77                     78
                      A                      A                      A
 Frequencies --   1170.7488              1177.1975              1200.3451
 Red. masses --      1.5641                 1.0867                 1.4000
 Frc consts  --      1.2631                 0.8872                 1.1884
 IR Inten    --      3.0937                 1.6725                48.4305

                     79                     80                     81
                      A                      A                      A
 Frequencies --   1206.7655              1225.5744              1254.3259
 Red. masses --      1.3776                 2.1192                 1.9756
 Frc consts  --      1.1820                 1.8755                 1.8313
 IR Inten    --     50.0410               142.7438                21.1034

                     82                     83                     84
                      A                      A                      A
 Frequencies --   1262.9843              1285.9011              1324.4526
 Red. masses --      2.5649                 1.1172                 1.4697
 Frc consts  --      2.4106                 1.0884                 1.5190
 IR Inten    --    141.1053                 0.4418                36.6129

                     85                     86                     87
                      A                      A                      A
 Frequencies --   1329.1638              1333.3525              1336.8987
 Red. masses --      1.4339                 1.5881                 1.6438
 Frc consts  --      1.4925                 1.6634                 1.7310
 IR Inten    --     81.5088                80.6525                22.3329

                     88                     89                     90
                      A                      A                      A
 Frequencies --   1363.4042              1366.0405              1376.3749
 Red. masses --      2.3329                 1.8327                 1.3106
 Frc consts  --      2.5550                 2.0149                 1.4628
 IR Inten    --      3.1806                15.3210                 9.2873

                     91                     92                     93
                      A                      A                      A
 Frequencies --   1382.5150              1398.7029              1409.2481
 Red. masses --      1.3847                 1.2986                 1.4647
 Frc consts  --      1.5593                 1.4968                 1.7138
 IR Inten    --     27.1228                11.1351                18.9792

                     94                     95                     96
                      A                      A                      A
 Frequencies --   1415.7949              1455.5309              1460.8553
 Red. masses --      1.4075                 1.2646                 1.8404
 Frc consts  --      1.6623                 1.5785                 2.3141
 IR Inten    --     13.6907                73.3372                94.6134

                     97                     98                     99
                      A                      A                      A
 Frequencies --   1468.4212              1473.4813              1476.4972
 Red. masses --      1.0755                 1.0387                 1.0595
 Frc consts  --      1.3663                 1.3287                 1.3609
 IR Inten    --      1.4992                 6.0140                16.0130

                    100                    101                    102
                      A                      A                      A
 Frequencies --   1479.7167              1487.9588              1493.2534
 Red. masses --      1.1039                 1.0565                 1.1977
 Frc consts  --      1.4241                 1.3781                 1.5735
 IR Inten    --      9.0386                 4.6084                46.6098

                    103                    104                    105
                      A                      A                      A
 Frequencies --   1497.0749              1504.9108              1506.0754
 Red. masses --      1.2650                 2.3416                 1.0952
 Frc consts  --      1.6704                 3.1246                 1.4637
 IR Inten    --    116.5692               349.1296                24.1658

                    106                    107                    108
                      A                      A                      A
 Frequencies --   1518.3097              1618.7539              1639.8158
 Red. masses --      2.0278                 5.5075                 5.6518
 Frc consts  --      2.7542                 8.5029                 8.9541
 IR Inten    --     59.4430                 8.2405                34.2699

                    109                    110                    111
                      A                      A                      A
 Frequencies --   1688.0637              1767.6954              3018.1096
 Red. masses --      6.0697                11.4962                 1.0421
 Frc consts  --     10.1905                21.1650                 5.5928
 IR Inten    --    133.6386               224.9228                 4.1428

                    112                    113                    114
                      A                      A                      A
 Frequencies --   3024.3029              3036.9019              3042.2077
 Red. masses --      1.0446                 1.0669                 1.0359
 Frc consts  --      5.6290                 5.7973                 5.6486
 IR Inten    --     10.6185                27.1500                18.0292

                    115                    116                    117
                      A                      A                      A
 Frequencies --   3061.2444              3066.8444              3075.0821
 Red. masses --      1.0590                 1.0655                 1.0972
 Frc consts  --      5.8473                 5.9045                 6.1131
 IR Inten    --     14.3836                28.4602                 7.6023

                    118                    119                    120
                      A                      A                      A
 Frequencies --   3078.4299              3093.2963              3098.0009
 Red. masses --      1.0854                 1.0902                 1.0931
 Frc consts  --      6.0603                 6.1462                 6.1812
 IR Inten    --      0.8584                 3.8941                 1.0231

                    121                    122                    123
                      A                      A                      A
 Frequencies --   3109.6261              3118.3524              3123.3100
 Red. masses --      1.1060                 1.1022                 1.0985
 Frc consts  --      6.3013                 6.3148                 6.3138
 IR Inten    --      8.8434                16.3754                14.1050

                    124                    125                    126
                      A                      A                      A
 Frequencies --   3130.5764              3139.9134              3152.6257
 Red. masses --      1.1014                 1.1046                 1.0894
 Frc consts  --      6.3598                 6.4165                 6.3792
 IR Inten    --     10.4169                14.1030                 6.6399

                    127                    128                    129
                      A                      A                      A
 Frequencies --   3154.7072              3174.6014              3187.7788
 Red. masses --      1.0978                 1.0862                 1.0912
 Frc consts  --      6.4370                 6.4495                 6.5335
 IR Inten    --     18.8340                 0.4797                 6.6446

                    130                    131                    132
                      A                      A                      A
 Frequencies --   3196.9738              3224.8807              3243.6863
 Red. masses --      1.0969                 1.0927                 1.0915
 Frc consts  --      6.6052                 6.6956                 6.7662
 IR Inten    --     12.3347                 1.8031                 1.6906

 - Thermochemistry -
 -------------------
 Temperature   298.150 Kelvin.  Pressure   1.00000 Atm.
 Atom     1 has atomic number  6 and mass  12.00000

 Molecular mass:   434.99839 amu.
 Principal axes and moments of inertia in atomic units:
                           1         2         3
     Eigenvalues --  9369.76163********************
           X            0.99739  -0.07101   0.01321
           Y            0.07065   0.99716   0.02627
           Z           -0.01504  -0.02527   0.99957
 This molecule is an asymmetric top.
 Rotational symmetry number  1.
 Warning -- assumption of classical behavior for rotation
           may cause significant error
 Rotational temperatures (Kelvin)      0.00924     0.00779     0.00657
 Rotational constants (GHZ):           0.19261     0.16235     0.13686
    1 imaginary frequencies ignored.
 Zero-point vibrational energy     944123.1 (Joules/Mol)
                                  225.65085 (Kcal/Mol)
 Warning -- explicit consideration of  42 degrees of freedom as
           vibrations may cause significant error
 Vibrational temperatures:     22.87    32.70    40.02    68.69    71.94
          (Kelvin)             83.53    91.37   114.79   124.87   132.18
                              143.27   149.78   165.67   173.20   179.68
                              200.85   210.09   228.81   247.46   264.73
                              290.60   294.61   322.02   372.83   385.16
                              419.76   456.56   470.56   498.27   507.88
                              545.40   568.29   571.97   576.45   590.67
                              610.14   651.99   688.01   727.34   745.06
                              787.29   841.80   898.77   930.10   993.43
                             1009.73  1084.28  1104.65  1139.10  1156.92
                             1183.87  1211.46  1232.89  1245.51  1295.15
                             1323.55  1359.63  1379.51  1394.85  1420.06
                             1422.32  1426.36  1443.34  1451.23  1459.63
                             1491.59  1506.63  1543.63  1567.01  1576.48
                             1600.94  1629.95  1637.30  1672.02  1684.45
                             1693.72  1727.03  1736.27  1763.33  1804.70
                             1817.15  1850.12  1905.59  1912.37  1918.40
                             1923.50  1961.63  1965.43  1980.30  1989.13
                             2012.42  2027.59  2037.01  2094.18  2101.84
                             2112.73  2120.01  2124.35  2128.98  2140.84
                             2148.46  2153.96  2165.23  2166.91  2184.51
                             2329.03  2359.33  2428.75  2543.32  4342.39
                             4351.30  4369.42  4377.06  4404.45  4412.51
                             4424.36  4429.17  4450.56  4457.33  4474.06
                             4486.61  4493.75  4504.20  4517.64  4535.93
                             4538.92  4567.54  4586.50  4599.73  4639.88
                             4666.94

 Zero-point correction=                           0.359598 (Hartree/Particle)
 Thermal correction to Energy=                    0.387128
 Thermal correction to Enthalpy=                  0.388072
 Thermal correction to Gibbs Free Energy=         0.296725
 Sum of electronic and zero-point Energies=          -3531.076552
 Sum of electronic and thermal Energies=             -3531.049021
 Sum of electronic and thermal Enthalpies=           -3531.048077
 Sum of electronic and thermal Free Energies=        -3531.139424

                     E (Thermal)             CV                S
                      KCal/Mol        Cal/Mol-Kelvin    Cal/Mol-Kelvin
 Total                  242.927             97.677            192.256
 Electronic               0.000              0.000              3.561
 Translational            0.889              2.981             44.100
 Rotational               0.889              2.981             35.572
 Vibrational            241.149             91.715            109.023
 Vibration     1          0.593              1.986              7.090
 Vibration     2          0.593              1.985              6.381
 Vibration     3          0.593              1.984              5.980
 Vibration     4          0.595              1.978              4.909
 Vibration     5          0.595              1.978              4.817
 Vibration     6          0.596              1.974              4.522
 Vibration     7          0.597              1.972              4.345
 Vibration     8          0.600              1.963              3.896
 Vibration     9          0.601              1.958              3.731
 Vibration    10          0.602              1.955              3.620
 Vibration    11          0.604              1.949              3.463
 Vibration    12          0.605              1.946              3.376
 Vibration    13          0.608              1.937              3.180
 Vibration    14          0.609              1.932              3.094
 Vibration    15          0.610              1.928              3.023
 Vibration    16          0.615              1.914              2.809
 Vibration    17          0.617              1.907              2.723
 Vibration    18          0.621              1.892              2.561
 Vibration    19          0.626              1.877              2.414
 Vibration    20          0.631              1.862              2.288
 Vibration    21          0.639              1.837              2.115
 Vibration    22          0.640              1.833              2.090
 Vibration    23          0.649              1.805              1.928
 Vibration    24          0.668              1.747              1.668
 Vibration    25          0.673              1.732              1.611
 Vibration    26          0.687              1.689              1.464
 Vibration    27          0.704              1.640              1.324
 Vibration    28          0.711              1.621              1.275
 Vibration    29          0.724              1.583              1.183
 Vibration    30          0.729              1.569              1.153
 Vibration    31          0.749              1.515              1.043
 Vibration    32          0.762              1.481              0.981
 Vibration    33          0.764              1.475              0.972
 Vibration    34          0.766              1.469              0.960
 Vibration    35          0.775              1.447              0.925
 Vibration    36          0.786              1.418              0.878
 Vibration    37          0.812              1.354              0.786
 Vibration    38          0.835              1.298              0.715
 Vibration    39          0.861              1.238              0.644
 Vibration    40          0.873              1.210              0.615
 Vibration    41          0.902              1.146              0.550
 Vibration    42          0.942              1.064              0.476

                           ! Non-Optimized Parameters !
 Normal termination of Gaussian 16 at Mon Jun 21 03:09:28 2021.

 ----------------------------------------------------------------------
 #p ub3lyp jul-cc-pvdz pop=cm5 scrf=(pcm,solvent=dichloroethane) guess=
 read geom=allcheck
 ----------------------------------------------------------------------

 Structure from the checkpoint file:  "checkpoint.chk"
 -----
 title
 -----
 Charge =  0 Multiplicity = 6

 SCF Done:  E(UB3LYP) =  -3531.45388800     A.U. after   18 cycles
 Normal termination of Gaussian 16 at Mon Jun 21 03:32:49 2021.
 Gaussian 16:  ES64L-G16RevA.03 25-Dec-2016

 ----------------------------------------------------------------------
 #p ub3lyp jul-cc-pvdz pop=cm5 scrf=(pcm,solvent=water) guess=read geom
 =allcheck
 ----------------------------------------------------------------------

 Structure from the checkpoint file:  "checkpoint.chk"
 -----
 title
 -----
 Charge =  0 Multiplicity = 6

                         Standard orientation:
 ---------------------------------------------------------------------
 Center     Atomic      Atomic             Coordinates (Angstroms)
 Number     Number       Type             X           Y           Z
 ---------------------------------------------------------------------
      1          6           0        3.223961    0.300600    0.508807
      2          6           0        1.939973   -0.240892    0.724235
      3          6           0        1.625339   -0.753087    2.000636
      4          6           0        2.570584   -0.739182    3.023849
      5          6           0        3.845875   -0.212580    2.792929
      6          6           0        4.166054    0.311988    1.535319
      7          6           0        0.877945   -0.245006   -0.314977
      8          6           0        0.915383    0.684698   -1.549249
      9          6           0        1.911510    0.295089   -2.652346
     10          6           0        1.745768   -1.196503   -2.970981
     11          6           0        1.794889   -1.983726   -1.691953
     12          6           0        0.822446   -2.777468   -1.181064
     13          6           0       -0.521898   -2.983824   -1.812384
     14          8           0       -0.247006   -0.729231    0.010989
     15         26           0       -2.126438   -0.330703    0.428416
     16         17           0       -3.060008    0.410000   -1.429160
     17          6           0        1.058786   -3.571373    0.068937
     18         17           0       -2.073965    1.127065    2.081314
     19         17           0       -2.956599   -2.262573    1.105098
     20          1           0        0.625531   -1.137453    2.188243
     21          1           0        2.307575   -1.130496    4.007057
     22          1           0        4.585990   -0.199469    3.594678
     23          1           0        5.152787    0.739723    1.355045
     24          1           0        3.489345    0.735459   -0.449713
     25          1           0       -0.103900    0.621804   -1.951269
     26          6           0        1.119680    2.145340   -1.108056
     27          1           0        1.716000    0.916741   -3.536968
     28          1           0        2.939213    0.516997   -2.343609
     29          1           0        0.802224   -1.362431   -3.505417
     30          1           0        2.553550   -1.520836   -3.645051
     31          1           0        2.763050   -1.991475   -1.186890
     32          1           0        2.073434   -3.443690    0.463706
     33          1           0        0.327878   -3.291194    0.843221
     34          1           0        0.894071   -4.641772   -0.133393
     35          1           0       -0.532848   -3.972133   -2.302137
     36          1           0       -1.312111   -3.005439   -1.050679
     37          1           0       -0.781669   -2.233659   -2.565166
     38          8           0       -0.018069    2.655082   -0.629454
     39          8           0        2.165573    2.751535   -1.207910
     40          6           0        0.019940    4.042897   -0.175139
     41          6           0       -1.406617    4.485875    0.072051
     42          1           0        0.632822    4.076436    0.736126
     43          1           0        0.520795    4.639293   -0.948290
     44          1           0       -1.401611    5.525417    0.430764
     45          1           0       -1.997394    4.440164   -0.852931
     46          1           0       -1.889324    3.853764    0.827872
 ---------------------------------------------------------------------

 SCF Done:  E(UB3LYP) =  -3531.45722931     A.U. after   16 cycles

 The electronic state is 6-A.
 Alpha  occ. eigenvalues -- -256.21323-101.52603-101.52588-101.52584 -30.20710
 Alpha  occ. eigenvalues --  -26.06128 -26.05894 -26.05807 -19.20924 -19.18854
 Alpha  occ. eigenvalues --  -19.15931 -10.33875 -10.33391 -10.25072 -10.23155
 Alpha  occ. eigenvalues --  -10.22589 -10.22413 -10.21612 -10.21591 -10.21512
 Alpha  occ. eigenvalues --  -10.20992 -10.20949 -10.20442 -10.19711 -10.19592
 Alpha  occ. eigenvalues --  -10.18894 -10.18778 -10.18609  -9.44322  -9.44314
 Alpha  occ. eigenvalues --   -9.44307  -7.20189  -7.20182  -7.20177  -7.19876
 Alpha  occ. eigenvalues --   -7.19863  -7.19863  -7.19861  -7.19853  -7.19845
 Alpha  occ. eigenvalues --   -3.68373  -2.46064  -2.45624  -2.45450  -1.12830
 Alpha  occ. eigenvalues --   -1.09320  -1.04329  -0.88352  -0.85450  -0.82791
 Alpha  occ. eigenvalues --   -0.80634  -0.79870  -0.79861  -0.78741  -0.78698
 Alpha  occ. eigenvalues --   -0.77000  -0.75036  -0.70622  -0.69946  -0.67101
 Alpha  occ. eigenvalues --   -0.64720  -0.62727  -0.61759  -0.59863  -0.57741
 Alpha  occ. eigenvalues --   -0.56058  -0.53824  -0.53257  -0.51878  -0.50588
 Alpha  occ. eigenvalues --   -0.49974  -0.49256  -0.48985  -0.48546  -0.48427
 Alpha  occ. eigenvalues --   -0.48112  -0.47435  -0.47129  -0.46983  -0.45804
 Alpha  occ. eigenvalues --   -0.45596  -0.45048  -0.44003  -0.43110  -0.42678
 Alpha  occ. eigenvalues --   -0.42372  -0.41113  -0.40466  -0.40066  -0.39623
 Alpha  occ. eigenvalues --   -0.38897  -0.38320  -0.38012  -0.37756  -0.37723
 Alpha  occ. eigenvalues --   -0.37239  -0.37113  -0.36457  -0.36144  -0.35267
 Alpha  occ. eigenvalues --   -0.34888  -0.34300  -0.33876  -0.32466  -0.32291
 Alpha  occ. eigenvalues --   -0.31422  -0.31413  -0.31053  -0.30957  -0.30277
 Alpha  occ. eigenvalues --   -0.29977  -0.29673  -0.28531  -0.27681  -0.25263
 Alpha virt. eigenvalues --   -0.10984  -0.03336  -0.02327  -0.01709  -0.01072
 Alpha virt. eigenvalues --   -0.00161   0.00012   0.00071   0.01123   0.01511
 Alpha virt. eigenvalues --    0.01687   0.01997   0.02458   0.02741   0.03168

  Beta  occ. eigenvalues -- -256.21138-101.52414-101.52401-101.52392 -30.11766
  Beta  occ. eigenvalues --  -25.98548 -25.98485 -25.98431 -19.20924 -19.18452
  Beta  occ. eigenvalues --  -19.15930 -10.33874 -10.33373 -10.25072 -10.23144
  Beta  occ. eigenvalues --  -10.22571 -10.22386 -10.21612 -10.21590 -10.21513
  Beta  occ. eigenvalues --  -10.20990 -10.20949 -10.20440 -10.19711 -10.19562
  Beta  occ. eigenvalues --  -10.18895 -10.18780 -10.18608  -9.44137  -9.44130
  Beta  occ. eigenvalues --   -9.44118  -7.19882  -7.19873  -7.19865  -7.19619
  Beta  occ. eigenvalues --   -7.19610  -7.19607  -7.19602  -7.19599  -7.19584
  Beta  occ. eigenvalues --   -3.47514  -2.23792  -2.23730  -2.23667  -1.12825
  Beta  occ. eigenvalues --   -1.08547  -1.04326  -0.88316  -0.85389  -0.82733
  Beta  occ. eigenvalues --   -0.79413  -0.78729  -0.78676  -0.78554  -0.78498
  Beta  occ. eigenvalues --   -0.76995  -0.75006  -0.70602  -0.69844  -0.66965
  Beta  occ. eigenvalues --   -0.64664  -0.62698  -0.61661  -0.59429  -0.57505
  Beta  occ. eigenvalues --   -0.55530  -0.53641  -0.52714  -0.51798  -0.50408
  Beta  occ. eigenvalues --   -0.49549  -0.48980  -0.47782  -0.47400  -0.46898
  Beta  occ. eigenvalues --   -0.45652  -0.45143  -0.44008  -0.43128  -0.42672
  Beta  occ. eigenvalues --   -0.42334  -0.41151  -0.40428  -0.40071  -0.39620
  Beta  occ. eigenvalues --   -0.38779  -0.38456  -0.38178  -0.37978  -0.37708
  Beta  occ. eigenvalues --   -0.37192  -0.37128  -0.36491  -0.36295  -0.36235
  Beta  occ. eigenvalues --   -0.36110  -0.35262  -0.34031  -0.33577  -0.33331
  Beta  occ. eigenvalues --   -0.32821  -0.32671  -0.32232  -0.31442  -0.30597
  Beta  occ. eigenvalues --   -0.29846  -0.29655  -0.28663  -0.27681  -0.25130
  Beta virt. eigenvalues --   -0.15384  -0.14858  -0.13954  -0.13608  -0.13486
  Beta virt. eigenvalues --   -0.10131  -0.03321  -0.02285  -0.01611  -0.00996
  Beta virt. eigenvalues --   -0.00121   0.00045   0.00106   0.01248   0.01531

 Mulliken charges and spin densities:
               1          2
     1  C    0.243189   0.000281
     2  C    3.020929  -0.000287
     3  C   -0.627972  -0.005297
     4  C    0.055741   0.002182
     5  C    0.298691   0.001783
     6  C   -0.104598   0.001573
     7  C   -2.383193  -0.002770
     8  C    0.422203   0.009927
     9  C    0.514387   0.003048
    10  C    0.646634  -0.001475
    11  C    0.257122   0.017830
    12  C   -0.037361   0.016602
    13  C    0.153603  -0.001085
    14  O   -0.269450   0.116104
    15  Fe   0.668212   4.067935
    16  Cl  -0.504798   0.250374
    17  C    0.265366  -0.000257
    18  Cl  -0.464121   0.259303
    19  Cl  -0.478900   0.256612
    20  H   -0.250970  -0.000320
    21  H   -0.157138   0.000015
    22  H   -0.150564  -0.000019
    23  H   -0.153629   0.000144
    24  H   -0.228585  -0.000109
    25  H   -0.183352  -0.000555
    26  C    0.737876   0.001155
    27  H   -0.130408   0.000250
    28  H   -0.008602  -0.000015
    29  H   -0.087690   0.000030
    30  H   -0.113206   0.001099
    31  H   -0.269261  -0.000862
    32  H   -0.013682   0.000013
    33  H    0.066174   0.000494
    34  H   -0.024775   0.001105
    35  H   -0.009679   0.001283
    36  H    0.058052   0.001812
    37  H    0.035847  -0.000134
    38  O   -0.657939   0.002043
    39  O   -0.580141   0.000956
    40  C    0.425160   0.000882
    41  C    0.040755  -0.001429
    42  H   -0.033476   0.000036
    43  H   -0.036017   0.000018
    44  H   -0.006763   0.000047
    45  H    0.027339   0.000073
    46  H    0.028991  -0.000395
 Sum of Mulliken charges =  -0.00000   5.00000

 Dipole moment (field-independent basis, Debye):
    X=             10.4172    Y=             -1.4474    Z=             -2.2120  Tot=             10.7474
 Quadrupole moment (field-independent basis, Debye-Ang):
   XX=           -188.2939   YY=           -167.0326   ZZ=           -168.2591
   XY=            -11.9994   XZ=              9.9120   YZ=              4.4429

 Normal termination of Gaussian 16 at Mon Jun 21 03:53:21 2021.
