 Gaussian 16, Revision A.03,

 -----------------------------------------------------------
 #p opt=modredundant freq=noraman ub3lyp jul-cc-pvdz pop=cm5
 -----------------------------------------------------------

 -----
 title
 -----
 Symbolic Z-matrix:
 Charge =  0 Multiplicity = 6

 SCF Done:  E(UB3LYP) =  -3531.41175900     A.U. after   26 cycles
 SCF Done:  E(UB3LYP) =  -3531.41229118     A.U. after   16 cycles
 SCF Done:  E(UB3LYP) =  -3531.41168369     A.U. after   15 cycles
 SCF Done:  E(UB3LYP) =  -3531.41245612     A.U. after   14 cycles
 SCF Done:  E(UB3LYP) =  -3531.41252751     A.U. after   15 cycles
 SCF Done:  E(UB3LYP) =  -3531.41260354     A.U. after   15 cycles
 SCF Done:  E(UB3LYP) =  -3531.41262525     A.U. after   14 cycles
 SCF Done:  E(UB3LYP) =  -3531.41263466     A.U. after   14 cycles
 SCF Done:  E(UB3LYP) =  -3531.41267782     A.U. after   14 cycles
 SCF Done:  E(UB3LYP) =  -3531.41271121     A.U. after   15 cycles
 SCF Done:  E(UB3LYP) =  -3531.41288656     A.U. after   12 cycles
 SCF Done:  E(UB3LYP) =  -3531.41288691     A.U. after   12 cycles
 SCF Done:  E(UB3LYP) =  -3531.41288845     A.U. after   12 cycles
 SCF Done:  E(UB3LYP) =  -3531.41288854     A.U. after   10 cycles
 SCF Done:  E(UB3LYP) =  -3531.41288853     A.U. after   11 cycles
 SCF Done:  E(UB3LYP) =  -3531.41288852     A.U. after    8 cycles
 SCF Done:  E(UB3LYP) =  -3531.41288848     A.U. after    8 cycles
 Optimization completed.
    -- Stationary point found.
 Normal termination of Gaussian 16 at Sun Jun 20 09:29:42 2021.

 ----------------------------------------------------------------------
 #P Geom=AllCheck Guess=TCheck SCRF=Check GenChk UB3LYP/Jul-CC-pVDZ Fre
 q
 ----------------------------------------------------------------------

 Structure from the checkpoint file:  "checkpoint.chk"
 -----
 title
 -----
 Charge =  0 Multiplicity = 6

 SCF Done:  E(UB3LYP) =  -3531.41288848     A.U. after    2 cycles

  Exact polarizability: 327.741  13.214 290.300  10.889   8.695 286.707
 Approx polarizability: 497.045  25.067 442.271   2.790  21.911 478.255

 ******    1 imaginary frequencies (negative Signs) ******

                      1                      2                      3
                      A                      A                      A
 Frequencies --   -256.5675                10.8710                18.5325
 Red. masses --      8.0755                 5.1239                 3.3538
 Frc consts  --      0.3132                 0.0004                 0.0007
 IR Inten    --    292.8307                 1.2798                 1.1234

                      4                      5                      6
                      A                      A                      A
 Frequencies --     22.3851                34.8824                45.9376
 Red. masses --      6.8987                 7.4321                 6.5464
 Frc consts  --      0.0020                 0.0053                 0.0081
 IR Inten    --      0.7305                 0.8493                 1.9098

                      7                      8                      9
                      A                      A                      A
 Frequencies --     56.8399                67.0066                68.6394
 Red. masses --      3.5916                 3.1204                 3.2959
 Frc consts  --      0.0068                 0.0083                 0.0091
 IR Inten    --      0.8191                 0.4966                 2.8332

                     10                     11                     12
                      A                      A                      A
 Frequencies --     81.7592                85.6880                92.0240
 Red. masses --      1.8100                 4.6480                 6.0769
 Frc consts  --      0.0071                 0.0201                 0.0303
 IR Inten    --      0.5950                 1.9351                 1.5062

                     13                     14                     15
                      A                      A                      A
 Frequencies --     96.8993               103.9871               117.0783
 Red. masses --     10.8332                 5.3360                 6.6277
 Frc consts  --      0.0599                 0.0340                 0.0535
 IR Inten    --      0.3165                11.3872                 2.8959

                     16                     17                     18
                      A                      A                      A
 Frequencies --    120.7269               131.2041               141.6095
 Red. masses --      9.4408                 4.9965                 1.9566
 Frc consts  --      0.0811                 0.0507                 0.0231
 IR Inten    --      1.5613                 2.3685                 1.3185

                     19                     20                     21
                      A                      A                      A
 Frequencies --    153.3289               165.0166               171.3724
 Red. masses --      2.7790                 2.1187                 2.4505
 Frc consts  --      0.0385                 0.0340                 0.0424
 IR Inten    --      0.4378                 2.6591                12.6293

                     22                     23                     24
                      A                      A                      A
 Frequencies --    188.9212               216.7301               234.2101
 Red. masses --      2.4554                 2.8903                 5.5125
 Frc consts  --      0.0516                 0.0800                 0.1782
 IR Inten    --      3.7092                 2.8160                13.7649

                     25                     26                     27
                      A                      A                      A
 Frequencies --    252.0401               258.9160               291.6095
 Red. masses --      1.9870                 2.8059                 3.7736
 Frc consts  --      0.0744                 0.1108                 0.1891
 IR Inten    --      1.4832                 4.6594                 2.0094

                     28                     29                     30
                      A                      A                      A
 Frequencies --    305.5507               311.2342               337.3404
 Red. masses --      5.4853                 3.0813                25.3297
 Frc consts  --      0.3017                 0.1759                 1.6983
 IR Inten    --      4.3581                12.7420                51.4237

                     31                     32                     33
                      A                      A                      A
 Frequencies --    356.3035               373.1810               374.3628
 Red. masses --      4.5018                10.2293                 7.2264
 Frc consts  --      0.3367                 0.8393                 0.5967
 IR Inten    --      6.6610                59.8295                40.4627

                     34                     35                     36
                      A                      A                      A
 Frequencies --    392.6548               412.3694               416.8260
 Red. masses --     26.4058                 3.2148                 2.9472
 Frc consts  --      2.3987                 0.3221                 0.3017
 IR Inten    --     73.6999                 5.3263                 1.5053

                     37                     38                     39
                      A                      A                      A
 Frequencies --    438.5747               454.6825               481.5415
 Red. masses --      4.2560                 4.2182                 2.0333
 Frc consts  --      0.4823                 0.5138                 0.2778
 IR Inten    --     11.9874                29.8531                 7.2013

                     40                     41                     42
                      A                      A                      A
 Frequencies --    504.7412               536.3885               549.3763
 Red. masses --      2.8796                 2.9432                 3.4453
 Frc consts  --      0.4322                 0.4989                 0.6126
 IR Inten    --      2.9060                 5.4415                33.9880

                     43                     44                     45
                      A                      A                      A
 Frequencies --    613.3298               627.1390               656.3864
 Red. masses --      4.4311                 6.3101                 4.5777
 Frc consts  --      0.9821                 1.4622                 1.1620
 IR Inten    --     18.6689                 1.2687               112.6504

                     46                     47                     48
                      A                      A                      A
 Frequencies --    704.2892               711.7180               762.7663
 Red. masses --      3.6403                 1.8718                 3.4001
 Frc consts  --      1.0639                 0.5586                 1.1655
 IR Inten    --      5.2670                82.1867                 7.1827

                     49                     50                     51
                      A                      A                      A
 Frequencies --    768.8488               804.1682               809.9715
 Red. masses --      2.7269                 1.1984                 2.0289
 Frc consts  --      0.9497                 0.4566                 0.7842
 IR Inten    --     13.9036                 4.3292                14.9684

                     52                     53                     54
                      A                      A                      A
 Frequencies --    823.7910               852.3719               867.3998
 Red. masses --      3.5872                 1.2537                 2.0850
 Frc consts  --      1.4343                 0.5367                 0.9243
 IR Inten    --     25.3706                 2.9194                 8.1967

                     55                     56                     57
                      A                      A                      A
 Frequencies --    870.9247               890.1592               925.3355
 Red. masses --      2.0519                 1.9476                 2.5846
 Frc consts  --      0.9170                 0.9093                 1.3039
 IR Inten    --     17.4555                 0.9793                10.4931

                     58                     59                     60
                      A                      A                      A
 Frequencies --    939.1867               959.1739               967.2074
 Red. masses --      1.4984                 2.2231                 1.5075
 Frc consts  --      0.7787                 1.2050                 0.8309
 IR Inten    --      3.4200                 2.7453                10.1800

                     61                     62                     63
                      A                      A                      A
 Frequencies --    987.7895               993.6546               999.8240
 Red. masses --      1.4074                 3.1034                 1.9327
 Frc consts  --      0.8091                 1.8054                 1.1383
 IR Inten    --      1.2908                47.2862                 6.3814

                     64                     65                     66
                      A                      A                      A
 Frequencies --   1002.5394              1007.6384              1018.1076
 Red. masses --      1.7772                 2.6806                 1.4345
 Frc consts  --      1.0524                 1.6036                 0.8761
 IR Inten    --      3.8059                 3.2295                35.8471

                     67                     68                     69
                      A                      A                      A
 Frequencies --   1039.2024              1045.3612              1055.5688
 Red. masses --      2.9857                 2.2983                 2.0763
 Frc consts  --      1.8997                 1.4797                 1.3630
 IR Inten    --     38.1304                 8.5699                 9.0781

                     70                     71                     72
                      A                      A                      A
 Frequencies --   1064.5886              1091.9452              1103.4518
 Red. masses --      1.7997                 1.5611                 1.5852
 Frc consts  --      1.2018                 1.0967                 1.1372
 IR Inten    --     17.6178                32.8421                18.0000

                     73                     74                     75
                      A                      A                      A
 Frequencies --   1127.5439              1133.9555              1159.9874
 Red. masses --      2.7648                 2.2344                 1.9248
 Frc consts  --      2.0710                 1.6928                 1.5260
 IR Inten    --     17.7519                11.4764                 6.5958

                     76                     77                     78
                      A                      A                      A
 Frequencies --   1167.6983              1173.4828              1178.6026
 Red. masses --      1.5534                 1.0924                 2.0814
 Frc consts  --      1.2479                 0.8863                 1.7035
 IR Inten    --      2.9179                 0.2428                97.3802

                     79                     80                     81
                      A                      A                      A
 Frequencies --   1192.0297              1201.6833              1230.1529
 Red. masses --      1.7795                 1.3521                 1.8991
 Frc consts  --      1.4898                 1.1504                 1.6932
 IR Inten    --     79.8711                29.3033               146.5536

                     82                     83                     84
                      A                      A                      A
 Frequencies --   1249.3126              1262.4579              1282.2518
 Red. masses --      2.5697                 1.7118                 1.1024
 Frc consts  --      2.3631                 1.6074                 1.0679
 IR Inten    --    310.9843                25.2239                 0.4511

                     85                     86                     87
                      A                      A                      A
 Frequencies --   1314.9926              1322.5981              1325.9429
 Red. masses --      1.5028                 1.5050                 1.4042
 Frc consts  --      1.5311                 1.5511                 1.4546
 IR Inten    --     67.8400                63.1459                34.0297

                     88                     89                     90
                      A                      A                      A
 Frequencies --   1331.4205              1352.4831              1357.3733
 Red. masses --      1.5694                 1.3796                 3.0494
 Frc consts  --      1.6392                 1.4869                 3.3103
 IR Inten    --     10.7828                61.1441                 3.9925

                     91                     92                     93
                      A                      A                      A
 Frequencies --   1362.2782              1364.9838              1385.7282
 Red. masses --      1.4280                 1.2117                 1.5146
 Frc consts  --      1.5614                 1.3301                 1.7136
 IR Inten    --     23.2146                30.0773                83.6110

                     94                     95                     96
                      A                      A                      A
 Frequencies --   1393.9041              1417.2140              1423.6518
 Red. masses --      1.7169                 1.4486                 1.1427
 Frc consts  --      1.9655                 1.7142                 1.3645
 IR Inten    --     93.0611                 6.0359                 9.9569

                     97                     98                     99
                      A                      A                      A
 Frequencies --   1431.5090              1467.8119              1473.5300
 Red. masses --      1.1000                 2.0604                 1.0392
 Frc consts  --      1.3281                 2.6154                 1.3295
 IR Inten    --      3.1659                12.7378                 6.1107

                    100                    101                    102
                      A                      A                      A
 Frequencies --   1477.1585              1480.8072              1483.3407
 Red. masses --      1.2703                 1.1020                 1.0519
 Frc consts  --      1.6330                 1.4237                 1.3637
 IR Inten    --     25.5796                 9.1341                 6.4344

                    103                    104                    105
                      A                      A                      A
 Frequencies --   1491.8160              1498.3729              1505.4653
 Red. masses --      1.1787                 1.1219                 1.0874
 Frc consts  --      1.5456                 1.4840                 1.4520
 IR Inten    --     29.8307                11.8440                 8.5799

                    106                    107                    108
                      A                      A                      A
 Frequencies --   1513.7771              1542.2801              1620.0739
 Red. masses --      2.1308                 2.5209                 5.7688
 Frc consts  --      2.8769                 3.5329                 8.9208
 IR Inten    --      4.9330                80.8163                 0.6606

                    109                    110                    111
                      A                      A                      A
 Frequencies --   1639.6366              1760.6896              2986.5707
 Red. masses --      5.6882                11.7919                 1.0520
 Frc consts  --      9.0098                21.5377                 5.5284
 IR Inten    --      3.6563               222.3580                21.4122

                    112                    113                    114
                      A                      A                      A
 Frequencies --   2995.1491              3042.3866              3054.5776
 Red. masses --      1.0538                 1.0360                 1.0631
 Frc consts  --      5.5699                 5.6498                 5.8444
 IR Inten    --      5.2445                13.5444                17.6565

                    115                    116                    117
                      A                      A                      A
 Frequencies --   3057.1097              3062.2166              3082.1823
 Red. masses --      1.0580                 1.0632                 1.0788
 Frc consts  --      5.8257                 5.8739                 6.0380
 IR Inten    --     17.0939                19.3394                 8.5745

                    118                    119                    120
                      A                      A                      A
 Frequencies --   3087.2137              3087.7558              3102.3417
 Red. masses --      1.0816                 1.0836                 1.1080
 Frc consts  --      6.0736                 6.0870                 6.2831
 IR Inten    --      4.3722                 2.9727                 6.1297

                    121                    122                    123
                      A                      A                      A
 Frequencies --   3108.1189              3118.7817              3120.0051
 Red. masses --      1.1016                 1.1006                 1.1019
 Frc consts  --      6.2701                 6.3073                 6.3199
 IR Inten    --      9.0110                26.3937                 6.7054

                    124                    125                    126
                      A                      A                      A
 Frequencies --   3135.0854              3141.3827              3161.9565
 Red. masses --      1.1048                 1.0879                 1.1027
 Frc consts  --      6.3979                 6.3251                 6.4957
 IR Inten    --     22.2259                 5.1233                 7.7928

                    127                    128                    129
                      A                      A                      A
 Frequencies --   3170.2325              3172.0536              3180.0239
 Red. masses --      1.0852                 1.1012                 1.0891
 Frc consts  --      6.4262                 6.5283                 6.4893
 IR Inten    --      0.0556                 0.8953                 5.4879

                    130                    131                    132
                      A                      A                      A
 Frequencies --   3189.6692              3197.5526              3216.0133
 Red. masses --      1.0933                 1.0976                 1.0927
 Frc consts  --      6.5538                 6.6117                 6.6585
 IR Inten    --     12.5624                 8.4045                 3.0760

 - Thermochemistry -
 -------------------
 Temperature   298.150 Kelvin.  Pressure   1.00000 Atm.
 Atom     1 has atomic number  6 and mass  12.00000

 Molecular mass:   434.99839 amu.
 Principal axes and moments of inertia in atomic units:
                           1         2         3
     Eigenvalues --  8563.88492********************
           X            0.99741   0.06875   0.02092
           Y           -0.06897   0.99757   0.01028
           Z           -0.02016  -0.01170   0.99973
 This molecule is an asymmetric top.
 Rotational symmetry number  1.
 Warning -- assumption of classical behavior for rotation
           may cause significant error
 Rotational temperatures (Kelvin)      0.01011     0.00749     0.00652
 Rotational constants (GHZ):           0.21074     0.15608     0.13581
    1 imaginary frequencies ignored.
 Zero-point vibrational energy     939089.8 (Joules/Mol)
                                  224.44786 (Kcal/Mol)
 Warning -- explicit consideration of  42 degrees of freedom as
           vibrations may cause significant error
 Vibrational temperatures:     15.64    26.66    32.21    50.19    66.09
          (Kelvin)             81.78    96.41    98.76   117.63   123.29
                              132.40   139.42   149.61   168.45   173.70
                              188.77   203.74   220.61   237.42   246.57
                              271.82   311.83   336.98   362.63   372.52
                              419.56   439.62   447.80   485.36   512.64
                              536.92   538.62   564.94   593.31   599.72
                              631.01   654.19   692.83   726.21   771.74
                              790.43   882.44   902.31   944.39  1013.32
                             1024.00  1097.45  1106.20  1157.02  1165.37
                             1185.25  1226.37  1247.99  1253.07  1280.74
                             1331.35  1351.28  1380.04  1391.60  1421.21
                             1429.65  1438.52  1442.43  1449.77  1464.83
                             1495.18  1504.04  1518.73  1531.71  1571.07
                             1587.62  1622.28  1631.51  1668.96  1680.06
                             1688.38  1695.75  1715.06  1728.95  1769.92
                             1797.48  1816.40  1844.87  1891.98  1902.92
                             1907.74  1915.62  1945.92  1952.96  1960.01
                             1963.91  1993.75  2005.52  2039.05  2048.32
                             2059.62  2111.85  2120.08  2125.30  2130.55
                             2134.20  2146.39  2155.82  2166.03  2177.99
                             2219.00  2330.93  2359.07  2533.24  4297.01
                             4309.35  4377.32  4394.86  4398.50  4405.85
                             4434.57  4441.81  4442.59  4463.58  4471.89
                             4487.23  4488.99  4510.69  4519.75  4549.35
                             4561.26  4563.88  4575.35  4589.22  4600.57
                             4627.13

 Zero-point correction=                           0.357680 (Hartree/Particle)
 Thermal correction to Energy=                    0.385463
 Thermal correction to Enthalpy=                  0.386407
 Thermal correction to Gibbs Free Energy=         0.293161
 Sum of electronic and zero-point Energies=          -3531.055208
 Sum of electronic and thermal Energies=             -3531.027425
 Sum of electronic and thermal Enthalpies=           -3531.026481
 Sum of electronic and thermal Free Energies=        -3531.119727

                     E (Thermal)             CV                S
                      KCal/Mol        Cal/Mol-Kelvin    Cal/Mol-Kelvin
 Total                  241.882             97.876            196.253
 Electronic               0.000              0.000              3.561
 Translational            0.889              2.981             44.100
 Rotational               0.889              2.981             35.530
 Vibrational            240.104             91.914            113.063
 Vibration     1          0.593              1.987              7.845
 Vibration     2          0.593              1.986              6.786
 Vibration     3          0.593              1.985              6.411
 Vibration     4          0.594              1.983              5.530
 Vibration     5          0.595              1.979              4.985
 Vibration     6          0.596              1.975              4.564
 Vibration     7          0.598              1.970              4.239
 Vibration     8          0.598              1.969              4.192
 Vibration     9          0.600              1.962              3.848
 Vibration    10          0.601              1.959              3.756
 Vibration    11          0.602              1.955              3.617
 Vibration    12          0.603              1.951              3.516
 Vibration    13          0.605              1.946              3.378
 Vibration    14          0.608              1.935              3.148
 Vibration    15          0.609              1.932              3.089
 Vibration    16          0.612              1.922              2.928
 Vibration    17          0.615              1.912              2.782
 Vibration    18          0.619              1.899              2.631
 Vibration    19          0.623              1.885              2.491
 Vibration    20          0.626              1.878              2.420
 Vibration    21          0.633              1.855              2.238
 Vibration    22          0.646              1.816              1.986
 Vibration    23          0.654              1.789              1.846
 Vibration    24          0.664              1.759              1.716
 Vibration    25          0.668              1.748              1.669
 Vibration    26          0.687              1.689              1.465
 Vibration    27          0.696              1.663              1.386
 Vibration    28          0.700              1.652              1.356
 Vibration    29          0.718              1.601              1.225
 Vibration    30          0.732              1.562              1.138
 Vibration    31          0.745              1.527              1.067
 Vibration    32          0.745              1.525              1.062
 Vibration    33          0.760              1.486              0.990
 Vibration    34          0.776              1.443              0.918
 Vibration    35          0.780              1.434              0.903
 Vibration    36          0.799              1.386              0.831
 Vibration    37          0.813              1.351              0.782
 Vibration    38          0.838              1.291              0.706
 Vibration    39          0.860              1.239              0.646
 Vibration    40          0.891              1.170              0.573
 Vibration    41          0.905              1.141              0.545
 Vibration    42          0.973              1.004              0.427

 Optimization completed.
    -- Stationary point found.
 Normal termination of Gaussian 16 at Sun Jun 20 14:30:58 2021.

 ----------------------------------------------------------------------
 #p ub3lyp jul-cc-pvdz pop=cm5 scrf=(pcm,solvent=dichloroethane) guess=
 read geom=allcheck
 ----------------------------------------------------------------------

 Structure from the checkpoint file:  "checkpoint.chk"
 -----
 title
 -----
 Charge =  0 Multiplicity = 6

 SCF Done:  E(UB3LYP) =  -3531.43820399     A.U. after   17 cycles
 Normal termination of Gaussian 16 at Sun Jun 20 14:55:30 2021.
 Gaussian 16:  ES64L-G16RevA.03 25-Dec-2016

 ----------------------------------------------------------------------
 #p ub3lyp jul-cc-pvdz pop=cm5 scrf=(pcm,solvent=water) guess=read geom
 =allcheck
 ----------------------------------------------------------------------

 Structure from the checkpoint file:  "checkpoint.chk"
 -----
 title
 -----
 Charge =  0 Multiplicity = 6

                         Standard orientation:
 ---------------------------------------------------------------------
 Center     Atomic      Atomic             Coordinates (Angstroms)
 Number     Number       Type             X           Y           Z
 ---------------------------------------------------------------------
      1          6           0        2.871209   -1.465437    0.183535
      2          6           0        1.616572   -0.984356    0.600203
      3          6           0        1.440138   -0.642098    1.949985
      4          6           0        2.488159   -0.788940    2.864627
      5          6           0        3.726402   -1.277904    2.443383
      6          6           0        3.915607   -1.610991    1.095908
      7          6           0        0.459736   -0.790525   -0.369733
      8          6           0        0.780518    0.046407   -1.685760
      9          6           0        0.838624   -0.881832   -2.902196
     10          6           0       -0.168035   -1.990934   -2.589302
     11          6           0        0.154216   -2.381333   -1.154579
     12          6           0       -0.805985   -2.876438   -0.241427
     13          6           0       -2.260523   -2.729903   -0.437333
     14          8           0       -0.670198   -0.429268    0.251442
     15         26           0       -2.096635    0.815598    0.362779
     16         17           0       -2.969869    0.894459   -1.699812
     17          6           0       -0.368159   -3.520204    1.017794
     18         17           0       -1.402261    2.788713    1.060730
     19         17           0       -3.493600   -0.129275    1.825883
     20          1           0        0.483072   -0.235597    2.270714
     21          1           0        2.332931   -0.512706    3.908484
     22          1           0        4.544689   -1.392570    3.155904
     23          1           0        4.883479   -1.979110    0.753076
     24          1           0        3.051214   -1.711035   -0.862851
     25          1           0       -0.087073    0.710351   -1.779346
     26          6           0        2.016938    0.931499   -1.562394
     27          1           0        0.597985   -0.342499   -3.826759
     28          1           0        1.853635   -1.285871   -3.018560
     29          1           0       -1.190334   -1.606196   -2.681986
     30          1           0       -0.067799   -2.854460   -3.261787
     31          1           0        1.123948   -2.874969   -1.062166
     32          1           0        0.660698   -3.890159    0.990143
     33          1           0       -0.439741   -2.743838    1.803940
     34          1           0       -1.064912   -4.316251    1.314800
     35          1           0       -2.618558   -3.714811   -0.797146
     36          1           0       -2.774713   -2.532875    0.513299
     37          1           0       -2.538559   -1.977157   -1.178645
     38          8           0        1.795535    1.951750   -0.725301
     39          8           0        3.057399    0.747590   -2.161993
     40          6           0        2.897947    2.879836   -0.519266
     41          6           0        2.422646    3.950003    0.441471
     42          1           0        3.753149    2.312599   -0.127147
     43          1           0        3.183683    3.291671   -1.496605
     44          1           0        3.236511    4.669694    0.611992
     45          1           0        1.556981    4.488424    0.034021
     46          1           0        2.131698    3.513893    1.406081
 ---------------------------------------------------------------------

 SCF Done:  E(UB3LYP) =  -3531.44273131     A.U. after   15 cycles

 The electronic state is 6-A.
 Alpha  occ. eigenvalues -- -256.19983-101.51876-101.51875-101.51697 -30.19396
 Alpha  occ. eigenvalues --  -26.04700 -26.04630 -26.04546 -19.20335 -19.15914
 Alpha  occ. eigenvalues --  -19.15329 -10.33001 -10.31279 -10.30073 -10.24832
 Alpha  occ. eigenvalues --  -10.22852 -10.22179 -10.21579 -10.21503 -10.21200
 Alpha  occ. eigenvalues --  -10.20666 -10.20520 -10.20459 -10.20436 -10.20407
 Alpha  occ. eigenvalues --  -10.20317 -10.19928 -10.18598  -9.43613  -9.43571
 Alpha  occ. eigenvalues --   -9.43425  -7.19473  -7.19441  -7.19292  -7.19167
 Alpha  occ. eigenvalues --   -7.19146  -7.19122  -7.19103  -7.18975  -7.18950
 Alpha  occ. eigenvalues --   -3.67101  -2.44618  -2.44425  -2.44300  -1.12241
 Alpha  occ. eigenvalues --   -1.05015  -1.03678  -0.88710  -0.87241  -0.84225
 Alpha  occ. eigenvalues --   -0.79830  -0.79130  -0.79001  -0.78953  -0.77900
 Alpha  occ. eigenvalues --   -0.76174  -0.75379  -0.73737  -0.71523  -0.66418
 Alpha  occ. eigenvalues --   -0.64396  -0.62196  -0.61492  -0.59450  -0.57177
 Alpha  occ. eigenvalues --   -0.56667  -0.54503  -0.52879  -0.51538  -0.51080
 Alpha  occ. eigenvalues --   -0.50212  -0.49186  -0.48878  -0.48191  -0.47631
 Alpha  occ. eigenvalues --   -0.47360  -0.47206  -0.46776  -0.46541  -0.45955
 Alpha  occ. eigenvalues --   -0.44813  -0.44405  -0.44236  -0.43335  -0.42951
 Alpha  occ. eigenvalues --   -0.42299  -0.42042  -0.41059  -0.40462  -0.40391
 Alpha  occ. eigenvalues --   -0.39973  -0.38803  -0.37949  -0.37421  -0.37173
 Alpha  occ. eigenvalues --   -0.37079  -0.36749  -0.36177  -0.35835  -0.35629
 Alpha  occ. eigenvalues --   -0.34969  -0.34163  -0.33779  -0.31869  -0.31727
 Alpha  occ. eigenvalues --   -0.30795  -0.30706  -0.30530  -0.29873  -0.29867
 Alpha  occ. eigenvalues --   -0.29518  -0.28643  -0.28319  -0.26990  -0.26296
 Alpha virt. eigenvalues --   -0.12777  -0.03403  -0.03026  -0.01529  -0.01207
 Alpha virt. eigenvalues --   -0.00187  -0.00049   0.00018   0.01450   0.01572
 Alpha virt. eigenvalues --    0.01827   0.02030   0.02317   0.03526   0.03732

  Beta  occ. eigenvalues -- -256.19798-101.51708-101.51700-101.51533 -30.10456
  Beta  occ. eigenvalues --  -25.97223 -25.97174 -25.97124 -19.20335 -19.15326
  Beta  occ. eigenvalues --  -19.15221 -10.33001 -10.31274 -10.30060 -10.24832
  Beta  occ. eigenvalues --  -10.22816 -10.22163 -10.21555 -10.21503 -10.21200
  Beta  occ. eigenvalues --  -10.20665 -10.20521 -10.20457 -10.20438 -10.20410
  Beta  occ. eigenvalues --  -10.20316 -10.19927 -10.18598  -9.43440  -9.43406
  Beta  occ. eigenvalues --   -9.43264  -7.19185  -7.19149  -7.19009  -7.18925
  Beta  occ. eigenvalues --   -7.18912  -7.18899  -7.18895  -7.18751  -7.18747
  Beta  occ. eigenvalues --   -3.46260  -2.22568  -2.22506  -2.22383  -1.12239
  Beta  occ. eigenvalues --   -1.03687  -1.03670  -0.88552  -0.87218  -0.84172
  Beta  occ. eigenvalues --   -0.78956  -0.78740  -0.77956  -0.77841  -0.77765
  Beta  occ. eigenvalues --   -0.76167  -0.75346  -0.73728  -0.71410  -0.66261
  Beta  occ. eigenvalues --   -0.64309  -0.62144  -0.61446  -0.59187  -0.57007
  Beta  occ. eigenvalues --   -0.56226  -0.54378  -0.52020  -0.51413  -0.50781
  Beta  occ. eigenvalues --   -0.50155  -0.48725  -0.48355  -0.48032  -0.46692
  Beta  occ. eigenvalues --   -0.45839  -0.44673  -0.44310  -0.43375  -0.42932
  Beta  occ. eigenvalues --   -0.42254  -0.42072  -0.41093  -0.40456  -0.40371
  Beta  occ. eigenvalues --   -0.39985  -0.38790  -0.37840  -0.37668  -0.37218
  Beta  occ. eigenvalues --   -0.37073  -0.36899  -0.36151  -0.35868  -0.35722
  Beta  occ. eigenvalues --   -0.35483  -0.35345  -0.34914  -0.32944  -0.32687
  Beta  occ. eigenvalues --   -0.32315  -0.31864  -0.31832  -0.31491  -0.30037
  Beta  occ. eigenvalues --   -0.29412  -0.28767  -0.28204  -0.26994  -0.26277
  Beta virt. eigenvalues --   -0.13807  -0.13647  -0.13078  -0.12621  -0.12137
  Beta virt. eigenvalues --   -0.11546  -0.03355  -0.03001  -0.01417  -0.01169
  Beta virt. eigenvalues --   -0.00143  -0.00018   0.00048   0.01462   0.01601

 Mulliken charges and spin densities:
               1          2
     1  C   -0.116991   0.000404
     2  C    2.979348  -0.006367
     3  C   -0.600618  -0.005761
     4  C    0.001238   0.003908
     5  C    0.247930  -0.001755
     6  C   -0.056005   0.002344
     7  C   -2.290842   0.025263
     8  C    0.597399   0.009231
     9  C    0.585186   0.000635
    10  C    0.731127  -0.000588
    11  C    0.628094   0.020695
    12  C   -0.372914   0.002304
    13  C    0.235652  -0.000802
    14  O   -0.464546   0.211465
    15  Fe   0.592800   4.054973
    16  Cl  -0.547339   0.219028
    17  C    0.335622   0.000894
    18  Cl  -0.488208   0.244018
    19  Cl  -0.527651   0.222757
    20  H   -0.200455   0.000706
    21  H   -0.156024  -0.000005
    22  H   -0.161670   0.000032
    23  H   -0.158991   0.000194
    24  H   -0.186752  -0.000102
    25  H   -0.243536   0.000726
    26  C    0.823525  -0.007085
    27  H   -0.162093   0.000397
    28  H   -0.071137  -0.000162
    29  H   -0.089894  -0.000421
    30  H   -0.143360   0.000567
    31  H   -0.199457  -0.000412
    32  H    0.014822   0.000116
    33  H    0.141841   0.000163
    34  H   -0.006317   0.000127
    35  H    0.059097   0.000029
    36  H    0.082534   0.000394
    37  H    0.056347   0.000465
    38  O   -0.680491  -0.000076
    39  O   -0.649881   0.001337
    40  C    0.444073   0.000988
    41  C    0.063168  -0.000628
    42  H   -0.034343   0.000006
    43  H   -0.040926   0.000005
    44  H   -0.009365   0.000026
    45  H    0.022631  -0.000046
    46  H    0.017370   0.000014
 Sum of Mulliken charges =  -0.00000   5.00000

 Dipole moment (field-independent basis, Debye):
    X=              7.6936    Y=            -12.3317    Z=             -1.0745  Tot=             14.5745
 Quadrupole moment (field-independent basis, Debye-Ang):
   XX=           -196.3432   YY=           -149.9646   ZZ=           -177.2940
   XY=             17.3549   XZ=             15.5003   YZ=              1.5519

 Normal termination of Gaussian 16 at Sun Jun 20 15:17:00 2021.
