 Gaussian 16, Revision A.03,

 -----------------------------------------------------------
 #p opt=modredundant freq=noraman ub3lyp jul-cc-pvdz pop=cm5
 -----------------------------------------------------------

 -----
 title
 -----
 Symbolic Z-matrix:
 Charge =  0 Multiplicity = 6

 SCF Done:  E(UB3LYP) =  -3531.44529994     A.U. after   24 cycles
 SCF Done:  E(UB3LYP) =  -3531.44463803     A.U. after   18 cycles
 SCF Done:  E(UB3LYP) =  -3531.44372374     A.U. after   18 cycles
 SCF Done:  E(UB3LYP) =  -3531.44365958     A.U. after   17 cycles
 SCF Done:  E(UB3LYP) =  -3531.44549565     A.U. after   12 cycles
 SCF Done:  E(UB3LYP) =  -3531.44523128     A.U. after   17 cycles
 SCF Done:  E(UB3LYP) =  -3531.44576871     A.U. after   16 cycles
 SCF Done:  E(UB3LYP) =  -3531.44582761     A.U. after   15 cycles
 SCF Done:  E(UB3LYP) =  -3531.44596642     A.U. after   14 cycles
 SCF Done:  E(UB3LYP) =  -3531.44596306     A.U. after   14 cycles
 SCF Done:  E(UB3LYP) =  -3531.44598993     A.U. after   11 cycles
 SCF Done:  E(UB3LYP) =  -3531.44599016     A.U. after   12 cycles
 SCF Done:  E(UB3LYP) =  -3531.44599028     A.U. after   11 cycles
 SCF Done:  E(UB3LYP) =  -3531.44599029     A.U. after   11 cycles
 SCF Done:  E(UB3LYP) =  -3531.44599037     A.U. after   11 cycles
 SCF Done:  E(UB3LYP) =  -3531.44599038     A.U. after   11 cycles
 SCF Done:  E(UB3LYP) =  -3531.44599042     A.U. after    9 cycles
 Optimization completed.
    -- Stationary point found.
 Normal termination of Gaussian 16 at Sun Jun 20 18:14:10 2021.

 ----------------------------------------------------------------------
 #P Geom=AllCheck Guess=TCheck SCRF=Check GenChk UB3LYP/Jul-CC-pVDZ Fre
 q
 ----------------------------------------------------------------------

 Structure from the checkpoint file:  "checkpoint.chk"
 -----
 title
 -----
 Charge =  0 Multiplicity = 6

 SCF Done:  E(UB3LYP) =  -3531.44599042     A.U. after    1 cycles

  Exact polarizability: 306.857   8.439 308.237  25.525   4.929 305.395
 Approx polarizability: 467.049  43.103 482.668  53.259   1.118 491.072

 ******    1 imaginary frequencies (negative Signs) ******

                      1                      2                      3
                      A                      A                      A
 Frequencies --    -10.6884                16.5542                20.9092
 Red. masses --      5.9188                 7.2257                 8.9356
 Frc consts  --      0.0004                 0.0012                 0.0023
 IR Inten    --      0.3483                 0.5677                 0.4150

                      4                      5                      6
                      A                      A                      A
 Frequencies --     33.1492                44.2475                54.8620
 Red. masses --      4.5486                 6.8956                 4.5336
 Frc consts  --      0.0029                 0.0080                 0.0080
 IR Inten    --      1.2215                 1.2656                 0.9389

                      7                      8                      9
                      A                      A                      A
 Frequencies --     62.1706                66.9032                77.4982
 Red. masses --      3.1665                 4.0430                 5.2325
 Frc consts  --      0.0072                 0.0107                 0.0185
 IR Inten    --      0.2722                 1.2346                 0.8219

                     10                     11                     12
                      A                      A                      A
 Frequencies --     81.0899                87.9529               100.4577
 Red. masses --      9.0240                 7.9447                 3.6324
 Frc consts  --      0.0350                 0.0362                 0.0216
 IR Inten    --      0.3228                 2.0777                 0.6907

                     13                     14                     15
                      A                      A                      A
 Frequencies --    105.1233               109.9454               114.4977
 Red. masses --      4.1120                 1.7580                 6.6626
 Frc consts  --      0.0268                 0.0125                 0.0515
 IR Inten    --      2.1827                 0.1938                 0.0437

                     16                     17                     18
                      A                      A                      A
 Frequencies --    118.8370               122.8549               142.3004
 Red. masses --      6.7219                 4.7493                 2.2073
 Frc consts  --      0.0559                 0.0422                 0.0263
 IR Inten    --      1.3436                 1.9270                 1.2053

                     19                     20                     21
                      A                      A                      A
 Frequencies --    150.3324               160.3218               185.4285
 Red. masses --      3.4635                 7.1619                 3.8713
 Frc consts  --      0.0461                 0.1085                 0.0784
 IR Inten    --      3.1479                14.4229                 8.8061

                     22                     23                     24
                      A                      A                      A
 Frequencies --    207.3068               211.5904               213.9984
 Red. masses --      3.5621                 1.4344                 2.1022
 Frc consts  --      0.0902                 0.0378                 0.0567
 IR Inten    --      0.7396                 4.6037                 5.6152

                     25                     26                     27
                      A                      A                      A
 Frequencies --    258.8818               268.3208               285.2577
 Red. masses --      1.5234                 3.4151                 4.0618
 Frc consts  --      0.0602                 0.1449                 0.1947
 IR Inten    --      1.7833                30.2013                 3.3994

                     28                     29                     30
                      A                      A                      A
 Frequencies --    315.7179               322.1368               342.1792
 Red. masses --      2.4696                 7.8908                14.9672
 Frc consts  --      0.1450                 0.4824                 1.0325
 IR Inten    --      1.1632                 6.6029                30.9736

                     31                     32                     33
                      A                      A                      A
 Frequencies --    353.2347               379.0680               392.2236
 Red. masses --      6.7183                 3.8356                 2.9322
 Frc consts  --      0.4939                 0.3247                 0.2658
 IR Inten    --     31.6839                 3.2662                14.9037

                     34                     35                     36
                      A                      A                      A
 Frequencies --    397.8725               405.6107               414.9332
 Red. masses --     16.0017                30.9418                 3.0223
 Frc consts  --      1.4925                 2.9993                 0.3066
 IR Inten    --     64.5763                77.3101                 3.5031

                     37                     38                     39
                      A                      A                      A
 Frequencies --    421.6842               448.9995               476.1480
 Red. masses --      3.7786                 2.9602                 3.1700
 Frc consts  --      0.3959                 0.3516                 0.4234
 IR Inten    --     32.6782                 7.0820                 2.5613

                     40                     41                     42
                      A                      A                      A
 Frequencies --    499.3470               513.5210               543.3577
 Red. masses --      2.6235                 2.8024                 4.0679
 Frc consts  --      0.3854                 0.4354                 0.7076
 IR Inten    --     14.8687                 1.4580                18.9673

                     43                     44                     45
                      A                      A                      A
 Frequencies --    582.8387               624.2527               649.5161
 Red. masses --      4.4968                 6.3719                 4.4513
 Frc consts  --      0.9000                 1.4630                 1.1064
 IR Inten    --     67.3856                 3.6610                62.4398

                     46                     47                     48
                      A                      A                      A
 Frequencies --    697.4741               699.9239               754.0833
 Red. masses --      1.6165                 5.8831                 4.4358
 Frc consts  --      0.4633                 1.6981                 1.4861
 IR Inten    --     50.8127                15.3055                 5.1630

                     49                     50                     51
                      A                      A                      A
 Frequencies --    772.6484               789.1266               805.1181
 Red. masses --      2.3124                 2.2911                 1.1545
 Frc consts  --      0.8133                 0.8406                 0.4409
 IR Inten    --     29.5953                 4.5547                 1.9056

                     52                     53                     54
                      A                      A                      A
 Frequencies --    829.2774               847.4473               852.5784
 Red. masses --      4.4712                 1.4621                 1.2486
 Frc consts  --      1.8117                 0.6186                 0.5347
 IR Inten    --     11.7516                19.2760                 0.6048

                     55                     56                     57
                      A                      A                      A
 Frequencies --    865.8070               900.2238               911.6101
 Red. masses --      2.7868                 2.0709                 2.1036
 Frc consts  --      1.2308                 0.9888                 1.0300
 IR Inten    --     30.5471                 1.4888                15.2783

                     58                     59                     60
                      A                      A                      A
 Frequencies --    959.3089               960.6538               973.0932
 Red. masses --      1.5020                 1.4007                 3.0992
 Frc consts  --      0.8144                 0.7616                 1.7291
 IR Inten    --      3.1761                 1.9644                23.8774

                     61                     62                     63
                      A                      A                      A
 Frequencies --    989.2027               992.8943               998.1014
 Red. masses --      1.7752                 1.6317                 1.6346
 Frc consts  --      1.0235                 0.9477                 0.9594
 IR Inten    --     36.6697                 9.2238                 5.1162

                     64                     65                     66
                      A                      A                      A
 Frequencies --   1003.7394              1013.6576              1018.1211
 Red. masses --      3.0921                 1.3600                 2.0559
 Frc consts  --      1.8354                 0.8233                 1.2556
 IR Inten    --      0.4683                 1.0260                 0.3901

                     67                     68                     69
                      A                      A                      A
 Frequencies --   1036.4444              1047.2836              1076.8714
 Red. masses --      2.6231                 2.4086                 2.1772
 Frc consts  --      1.6602                 1.5565                 1.4876
 IR Inten    --     39.6659                 3.0115                 2.2539

                     70                     71                     72
                      A                      A                      A
 Frequencies --   1093.8758              1099.5840              1116.5223
 Red. masses --      1.7480                 2.0647                 1.5797
 Frc consts  --      1.2323                 1.4708                 1.1602
 IR Inten    --      1.0985                13.7729                 7.6923

                     73                     74                     75
                      A                      A                      A
 Frequencies --   1133.1318              1139.4698              1164.9247
 Red. masses --      2.1742                 2.2033                 1.6736
 Frc consts  --      1.6448                 1.6855                 1.3381
 IR Inten    --     15.3061                10.0067                83.6229

                     76                     77                     78
                      A                      A                      A
 Frequencies --   1170.3536              1178.9479              1203.8687
 Red. masses --      1.6086                 1.0863                 1.5232
 Frc consts  --      1.2981                 0.8896                 1.3007
 IR Inten    --     22.0074                 1.3369                43.8924

                     79                     80                     81
                      A                      A                      A
 Frequencies --   1209.8212              1227.5019              1254.7554
 Red. masses --      1.2943                 2.0465                 1.9788
 Frc consts  --      1.1161                 1.8168                 1.8355
 IR Inten    --     53.7629               158.4621                23.4069

                     82                     83                     84
                      A                      A                      A
 Frequencies --   1273.4691              1284.8585              1323.8929
 Red. masses --      2.2864                 1.1246                 1.3879
 Frc consts  --      2.1846                 1.0939                 1.4332
 IR Inten    --    177.7220                 3.1370                 6.1241

                     85                     86                     87
                      A                      A                      A
 Frequencies --   1328.4258              1336.4710              1341.9247
 Red. masses --      1.6347                 1.5290                 1.7284
 Frc consts  --      1.6997                 1.6091                 1.8338
 IR Inten    --    124.2683                29.2637                22.4964

                     88                     89                     90
                      A                      A                      A
 Frequencies --   1366.8010              1370.8940              1379.0230
 Red. masses --      2.0832                 1.8141                 1.3120
 Frc consts  --      2.2930                 2.0087                 1.4700
 IR Inten    --      3.8624                12.2648                 8.3925

                     91                     92                     93
                      A                      A                      A
 Frequencies --   1381.6797              1406.0349              1408.6514
 Red. masses --      1.3822                 1.3900                 1.3333
 Frc consts  --      1.5547                 1.6190                 1.5588
 IR Inten    --     22.0210                 6.5894                20.2463

                     94                     95                     96
                      A                      A                      A
 Frequencies --   1415.7251              1460.9343              1465.4496
 Red. masses --      1.4081                 1.0917                 1.3557
 Frc consts  --      1.6628                 1.3728                 1.7153
 IR Inten    --     13.6266                 9.3084                14.3684

                     97                     98                     99
                      A                      A                      A
 Frequencies --   1465.9964              1474.0189              1480.1640
 Red. masses --      1.5528                 1.0386                 1.0793
 Frc consts  --      1.9662                 1.3296                 1.3932
 IR Inten    --     28.8651                 4.9155                 2.2706

                    100                    101                    102
                      A                      A                      A
 Frequencies --   1482.9772              1486.1252              1489.1059
 Red. masses --      1.0510                 1.0542                 1.1025
 Frc consts  --      1.3618                 1.3718                 1.4404
 IR Inten    --     20.1587                 1.6582                 7.4682

                    103                    104                    105
                      A                      A                      A
 Frequencies --   1490.3886              1504.5740              1517.9934
 Red. masses --      1.0968                 1.0836                 2.1594
 Frc consts  --      1.4355                 1.4453                 2.9317
 IR Inten    --      9.1137                 6.4090                14.9085

                    106                    107                    108
                      A                      A                      A
 Frequencies --   1543.3936              1619.5143              1640.7420
 Red. masses --      6.1600                 5.4323                 5.6262
 Frc consts  --      8.6454                 8.3947                 8.9238
 IR Inten    --    652.8736                27.0621                39.7630

                    109                    110                    111
                      A                      A                      A
 Frequencies --   1703.4800              1768.3022              3016.2698
 Red. masses --      6.2398                11.4049                 1.0385
 Frc consts  --     10.6682                21.0115                 5.5664
 IR Inten    --    100.0903               215.7976                11.4024

                    112                    113                    114
                      A                      A                      A
 Frequencies --   3027.7971              3032.5283              3042.0320
 Red. masses --      1.0415                 1.0651                 1.0356
 Frc consts  --      5.6256                 5.7712                 5.6463
 IR Inten    --     11.4468                29.8622                15.8016

                    115                    116                    117
                      A                      A                      A
 Frequencies --   3062.6996              3067.2983              3072.4199
 Red. masses --      1.0581                 1.0658                 1.0974
 Frc consts  --      5.8479                 5.9081                 6.1037
 IR Inten    --     13.0280                28.5960                 2.8978

                    118                    119                    120
                      A                      A                      A
 Frequencies --   3080.2380              3083.1737              3088.7990
 Red. masses --      1.0970                 1.0849                 1.0960
 Frc consts  --      6.1324                 6.0764                 6.1611
 IR Inten    --     19.1402                 1.0690                 4.3226

                    121                    122                    123
                      A                      A                      A
 Frequencies --   3109.1928              3118.8505              3122.4223
 Red. masses --      1.1069                 1.1023                 1.1014
 Frc consts  --      6.3047                 6.3172                 6.3266
 IR Inten    --      7.5675                15.6534                 9.5408

                    124                    125                    126
                      A                      A                      A
 Frequencies --   3125.4290              3136.3353              3138.1020
 Red. masses --      1.0978                 1.0886                 1.1052
 Frc consts  --      6.3179                 6.3091                 6.4126
 IR Inten    --      7.7524                17.1114                17.2486

                    127                    128                    129
                      A                      A                      A
 Frequencies --   3141.9865              3175.2872              3189.0065
 Red. masses --      1.0969                 1.0863                 1.0912
 Frc consts  --      6.3801                 6.4533                 6.5383
 IR Inten    --     26.4319                 0.9813                 7.2192

                    130                    131                    132
                      A                      A                      A
 Frequencies --   3197.6035              3220.2354              3231.8750
 Red. masses --      1.0965                 1.0936                 1.0929
 Frc consts  --      6.6055                 6.6814                 6.7256
 IR Inten    --      9.2864                 4.5689                 6.3983

 - Thermochemistry -
 -------------------
 Temperature   298.150 Kelvin.  Pressure   1.00000 Atm.
 Atom     1 has atomic number  6 and mass  12.00000

 Molecular mass:   434.99839 amu.
 Principal axes and moments of inertia in atomic units:
                           1         2         3
     Eigenvalues --  9866.89167********************
           X            0.98761  -0.15691   0.00218
           Y            0.15678   0.98720   0.02935
           Z           -0.00676  -0.02865   0.99957
 This molecule is an asymmetric top.
 Rotational symmetry number  1.
 Warning -- assumption of classical behavior for rotation
           may cause significant error
 Rotational temperatures (Kelvin)      0.00878     0.00780     0.00664
 Rotational constants (GHZ):           0.18291     0.16245     0.13842
    1 imaginary frequencies ignored.
 Zero-point vibrational energy     944221.3 (Joules/Mol)
                                  225.67431 (Kcal/Mol)
 Warning -- explicit consideration of  42 degrees of freedom as
           vibrations may cause significant error
 Vibrational temperatures:     23.82    30.08    47.69    63.66    78.93
          (Kelvin)             89.45    96.26   111.50   116.67   126.54
                              144.54   151.25   158.19   164.74   170.98
                              176.76   204.74   216.29   230.67   266.79
                              298.27   304.43   307.90   372.47   386.05
                              410.42   454.25   463.48   492.32   508.23
                              545.39   564.32   572.45   583.58   597.00
                              606.71   646.01   685.07   718.45   738.84
                              781.77   838.57   898.16   934.51  1003.51
                             1007.03  1084.96  1111.67  1135.38  1158.39
                             1193.15  1219.29  1226.67  1245.70  1295.22
                             1311.60  1380.23  1382.17  1400.06  1423.24
                             1428.55  1436.05  1444.16  1458.43  1464.85
                             1491.21  1506.81  1549.38  1573.84  1582.06
                             1606.43  1630.32  1639.44  1676.07  1683.88
                             1696.24  1732.10  1740.66  1766.10  1805.31
                             1832.24  1848.62  1904.79  1911.31  1922.88
                             1930.73  1966.52  1972.41  1984.11  1987.93
                             2022.97  2026.74  2036.91  2101.96  2108.46
                             2109.24  2120.78  2129.63  2133.67  2138.20
                             2142.49  2144.34  2164.75  2184.05  2220.60
                             2330.12  2360.66  2450.93  2544.19  4339.74
                             4356.32  4363.13  4376.81  4406.54  4413.16
                             4420.53  4431.78  4436.00  4444.09  4473.44
                             4487.33  4492.47  4496.80  4512.49  4515.03
                             4520.62  4568.53  4588.27  4600.64  4633.20
                             4649.95

 Zero-point correction=                           0.359635 (Hartree/Particle)
 Thermal correction to Energy=                    0.387271
 Thermal correction to Enthalpy=                  0.388215
 Thermal correction to Gibbs Free Energy=         0.296582
 Sum of electronic and zero-point Energies=          -3531.086356
 Sum of electronic and thermal Energies=             -3531.058720
 Sum of electronic and thermal Enthalpies=           -3531.057776
 Sum of electronic and thermal Free Energies=        -3531.149409

                     E (Thermal)             CV                S
                      KCal/Mol        Cal/Mol-Kelvin    Cal/Mol-Kelvin
 Total                  243.016             97.682            192.858
 Electronic               0.000              0.000              3.561
 Translational            0.889              2.981             44.100
 Rotational               0.889              2.981             35.612
 Vibrational            241.238             91.721            109.585
 Vibration     1          0.593              1.986              7.010
 Vibration     2          0.593              1.986              6.546
 Vibration     3          0.594              1.983              5.631
 Vibration     4          0.595              1.980              5.059
 Vibration     5          0.596              1.976              4.634
 Vibration     6          0.597              1.972              4.387
 Vibration     7          0.598              1.970              4.242
 Vibration     8          0.599              1.964              3.953
 Vibration     9          0.600              1.962              3.864
 Vibration    10          0.601              1.958              3.705
 Vibration    11          0.604              1.949              3.445
 Vibration    12          0.605              1.945              3.357
 Vibration    13          0.606              1.941              3.270
 Vibration    14          0.607              1.937              3.191
 Vibration    15          0.609              1.934              3.119
 Vibration    16          0.610              1.930              3.055
 Vibration    17          0.616              1.911              2.773
 Vibration    18          0.618              1.902              2.668
 Vibration    19          0.622              1.891              2.546
 Vibration    20          0.632              1.860              2.273
 Vibration    21          0.641              1.829              2.067
 Vibration    22          0.643              1.823              2.030
 Vibration    23          0.644              1.820              2.009
 Vibration    24          0.668              1.748              1.669
 Vibration    25          0.673              1.731              1.607
 Vibration    26          0.683              1.701              1.502
 Vibration    27          0.703              1.644              1.332
 Vibration    28          0.707              1.631              1.299
 Vibration    29          0.721              1.591              1.202
 Vibration    30          0.729              1.569              1.152
 Vibration    31          0.749              1.515              1.043
 Vibration    32          0.760              1.487              0.992
 Vibration    33          0.764              1.475              0.971
 Vibration    34          0.771              1.458              0.942
 Vibration    35          0.778              1.438              0.909
 Vibration    36          0.784              1.423              0.886
 Vibration    37          0.808              1.363              0.799
 Vibration    38          0.833              1.303              0.721
 Vibration    39          0.855              1.251              0.660
 Vibration    40          0.869              1.220              0.625
 Vibration    41          0.898              1.154              0.558
 Vibration    42          0.940              1.068              0.480

 Optimization completed.
    -- Stationary point found.
 Normal termination of Gaussian 16 at Sun Jun 20 22:21:11 2021.

 ----------------------------------------------------------------------
 #p ub3lyp jul-cc-pvdz pop=cm5 scrf=(pcm,solvent=dichloroethane) guess=
 read geom=allcheck
 ----------------------------------------------------------------------

 Structure from the checkpoint file:  "checkpoint.chk"
 -----
 title
 -----
 Charge =  0 Multiplicity = 6

 SCF Done:  E(UB3LYP) =  -3531.46324081     A.U. after   18 cycles
 Normal termination of Gaussian 16 at Sun Jun 20 22:46:53 2021.
 Gaussian 16:  ES64L-G16RevA.03 25-Dec-2016

 ----------------------------------------------------------------------
 #p ub3lyp jul-cc-pvdz pop=cm5 scrf=(pcm,solvent=water) guess=read geom
 =allcheck
 ----------------------------------------------------------------------

 Structure from the checkpoint file:  "checkpoint.chk"
 -----
 title
 -----
 Charge =  0 Multiplicity = 6

                         Standard orientation:
 ---------------------------------------------------------------------
 Center     Atomic      Atomic             Coordinates (Angstroms)
 Number     Number       Type             X           Y           Z
 ---------------------------------------------------------------------
      1          6           0        2.803096    0.722373    1.240370
      2          6           0        1.724533   -0.127239    0.914895
      3          6           0        1.375239   -1.159817    1.812819
      4          6           0        2.095628   -1.349252    2.987774
      5          6           0        3.168737   -0.504313    3.296662
      6          6           0        3.512966    0.534316    2.425468
      7          6           0        0.905461    0.060853   -0.300402
      8          6           0        1.187315    1.142762   -1.355587
      9          6           0        2.536723    1.045149   -2.082120
     10          6           0        2.632935   -0.310198   -2.798486
     11          6           0        2.372749   -1.437061   -1.837711
     12          6           0        1.353596   -2.323545   -1.858335
     13          6           0        0.226486   -2.314528   -2.851061
     14          8           0       -0.206808   -0.520770   -0.390295
     15         26           0       -2.043035   -0.680506    0.332481
     16         17           0       -3.392554   -0.167056   -1.324134
     17          6           0        1.290370   -3.442830   -0.855817
     18         17           0       -2.128366    0.719790    2.029514
     19         17           0       -2.235492   -2.786198    0.971003
     20          1           0        0.534933   -1.812174    1.585683
     21          1           0        1.813470   -2.151086    3.670558
     22          1           0        3.729615   -0.649683    4.221373
     23          1           0        4.333987    1.208014    2.672695
     24          1           0        3.068001    1.557466    0.597911
     25          1           0        0.379606    1.003807   -2.085274
     26          6           0        0.957329    2.537601   -0.742238
     27          1           0        2.606326    1.873593   -2.800414
     28          1           0        3.371290    1.171989   -1.383970
     29          1           0        1.925833   -0.331731   -3.637930
     30          1           0        3.640009   -0.415435   -3.231614
     31          1           0        3.145020   -1.582329   -1.076922
     32          1           0        2.114898   -3.399756   -0.133553
     33          1           0        0.332550   -3.432777   -0.313486
     34          1           0        1.339877   -4.413628   -1.375075
     35          1           0        0.185176   -3.282046   -3.375827
     36          1           0       -0.737791   -2.202317   -2.332710
     37          1           0        0.302618   -1.521968   -3.602517
     38          8           0       -0.349794    2.787935   -0.634073
     39          8           0        1.842127    3.304206   -0.425234
     40          6           0       -0.730740    4.066149   -0.037050
     41          6           0       -2.238416    4.175811   -0.117863
     42          1           0       -0.365687    4.071425    0.998675
     43          1           0       -0.216727    4.864077   -0.588727
     44          1           0       -2.553411    5.127647    0.333654
     45          1           0       -2.579443    4.157513   -1.162005
     46          1           0       -2.720496    3.353097    0.425357
 ---------------------------------------------------------------------

 SCF Done:  E(UB3LYP) =  -3531.46650099     A.U. after   14 cycles

 The electronic state is 6-A.
 Alpha  occ. eigenvalues -- -256.21674-101.52915-101.52824-101.52763 -30.21058
 Alpha  occ. eigenvalues --  -26.06514 -26.06202 -26.06158 -19.21119 -19.19714
 Alpha  occ. eigenvalues --  -19.16213 -10.34187 -10.33601 -10.25202 -10.23334
 Alpha  occ. eigenvalues --  -10.22885 -10.21936 -10.21906 -10.21805 -10.21187
 Alpha  occ. eigenvalues --  -10.21180 -10.21175 -10.20411 -10.19532 -10.18972
 Alpha  occ. eigenvalues --  -10.18718 -10.18549 -10.18411  -9.44626  -9.44543
 Alpha  occ. eigenvalues --   -9.44496  -7.20495  -7.20414  -7.20364  -7.20191
 Alpha  occ. eigenvalues --   -7.20160  -7.20097  -7.20082  -7.20044  -7.20040
 Alpha  occ. eigenvalues --   -3.68707  -2.46469  -2.45876  -2.45792  -1.13057
 Alpha  occ. eigenvalues --   -1.10092  -1.04579  -0.88617  -0.85122  -0.82385
 Alpha  occ. eigenvalues --   -0.80871  -0.80130  -0.80070  -0.79016  -0.78659
 Alpha  occ. eigenvalues --   -0.77264  -0.75044  -0.70093  -0.69548  -0.67378
 Alpha  occ. eigenvalues --   -0.64738  -0.62946  -0.61910  -0.59991  -0.57799
 Alpha  occ. eigenvalues --   -0.56465  -0.53804  -0.52977  -0.52109  -0.50868
 Alpha  occ. eigenvalues --   -0.50173  -0.49457  -0.49102  -0.48788  -0.48647
 Alpha  occ. eigenvalues --   -0.48372  -0.47416  -0.47055  -0.46917  -0.45812
 Alpha  occ. eigenvalues --   -0.45415  -0.45147  -0.44230  -0.43218  -0.42700
 Alpha  occ. eigenvalues --   -0.42514  -0.41158  -0.40482  -0.39999  -0.39385
 Alpha  occ. eigenvalues --   -0.38898  -0.38401  -0.37966  -0.37798  -0.37656
 Alpha  occ. eigenvalues --   -0.37231  -0.37043  -0.36654  -0.36324  -0.35246
 Alpha  occ. eigenvalues --   -0.34941  -0.34646  -0.33539  -0.32563  -0.32205
 Alpha  occ. eigenvalues --   -0.31722  -0.31663  -0.31491  -0.31312  -0.30418
 Alpha  occ. eigenvalues --   -0.30214  -0.29861  -0.28735  -0.27906  -0.25005
 Alpha virt. eigenvalues --   -0.11236  -0.03546  -0.02293  -0.01674  -0.00776
 Alpha virt. eigenvalues --   -0.00118   0.00008   0.00107   0.00733   0.01529
 Alpha virt. eigenvalues --    0.01730   0.01931   0.02325   0.02537   0.03250

  Beta  occ. eigenvalues -- -256.21489-101.52715-101.52633-101.52571 -30.12114
  Beta  occ. eigenvalues --  -25.98919 -25.98812 -25.98780 -19.21119 -19.19360
  Beta  occ. eigenvalues --  -19.16210 -10.34184 -10.33573 -10.25202 -10.23320
  Beta  occ. eigenvalues --  -10.22873 -10.21933 -10.21901 -10.21803 -10.21188
  Beta  occ. eigenvalues --  -10.21181 -10.21157 -10.20409 -10.19532 -10.18956
  Beta  occ. eigenvalues --  -10.18717 -10.18550 -10.18411  -9.44430  -9.44355
  Beta  occ. eigenvalues --   -9.44308  -7.20177  -7.20098  -7.20054  -7.19910
  Beta  occ. eigenvalues --   -7.19894  -7.19837  -7.19825  -7.19784  -7.19778
  Beta  occ. eigenvalues --   -3.47848  -2.24153  -2.24043  -2.23992  -1.13049
  Beta  occ. eigenvalues --   -1.09412  -1.04574  -0.88584  -0.85071  -0.82334
  Beta  occ. eigenvalues --   -0.79612  -0.78991  -0.78772  -0.78728  -0.78628
  Beta  occ. eigenvalues --   -0.77258  -0.75007  -0.70077  -0.69440  -0.67267
  Beta  occ. eigenvalues --   -0.64703  -0.62921  -0.61702  -0.59613  -0.57621
  Beta  occ. eigenvalues --   -0.55833  -0.53447  -0.52760  -0.51982  -0.50658
  Beta  occ. eigenvalues --   -0.49812  -0.49224  -0.47530  -0.47017  -0.46562
  Beta  occ. eigenvalues --   -0.45520  -0.45276  -0.44225  -0.43236  -0.42679
  Beta  occ. eigenvalues --   -0.42524  -0.41180  -0.40464  -0.39992  -0.39329
  Beta  occ. eigenvalues --   -0.38847  -0.38589  -0.38314  -0.37829  -0.37670
  Beta  occ. eigenvalues --   -0.37255  -0.37048  -0.36566  -0.36515  -0.36474
  Beta  occ. eigenvalues --   -0.36313  -0.35160  -0.33877  -0.33654  -0.33583
  Beta  occ. eigenvalues --   -0.32984  -0.32788  -0.32386  -0.31645  -0.30753
  Beta  occ. eigenvalues --   -0.30077  -0.29949  -0.28839  -0.27897  -0.24896
  Beta virt. eigenvalues --   -0.15730  -0.15231  -0.14301  -0.13915  -0.13824
  Beta virt. eigenvalues --   -0.10290  -0.03519  -0.02261  -0.01547  -0.00707
  Beta virt. eigenvalues --   -0.00078   0.00044   0.00154   0.00886   0.01554

 Mulliken charges and spin densities:
               1          2
     1  C   -0.106714   0.003439
     2  C    3.176721  -0.001328
     3  C   -0.707168  -0.006294
     4  C    0.093107   0.001593
     5  C    0.276430   0.005948
     6  C   -0.159680  -0.000566
     7  C   -1.911538  -0.011874
     8  C    0.328897   0.014739
     9  C    0.560384   0.002785
    10  C    0.580092  -0.000713
    11  C    0.206682   0.008639
    12  C   -0.008278   0.016100
    13  C    0.142723  -0.001607
    14  O   -0.283064   0.103374
    15  Fe   0.741362   4.071963
    16  Cl  -0.496188   0.261683
    17  C    0.154011  -0.002408
    18  Cl  -0.463833   0.264971
    19  Cl  -0.466329   0.259797
    20  H   -0.267267   0.000102
    21  H   -0.160553   0.000015
    22  H   -0.145732  -0.000077
    23  H   -0.155037   0.000100
    24  H   -0.182800  -0.000088
    25  H   -0.155553  -0.000687
    26  C    0.772319   0.004786
    27  H   -0.133611   0.000516
    28  H   -0.041264   0.000006
    29  H   -0.090195   0.000009
    30  H   -0.114078   0.000816
    31  H   -0.248074  -0.000479
    32  H   -0.012267   0.000085
    33  H    0.066777   0.000860
    34  H   -0.022898   0.000718
    35  H   -0.014293   0.000658
    36  H    0.025094   0.000970
    37  H   -0.008734   0.000023
    38  O   -0.664311   0.001471
    39  O   -0.553569   0.001333
    40  C    0.429418  -0.000180
    41  C    0.041141  -0.000748
    42  H   -0.031661  -0.000026
    43  H   -0.039511   0.000003
    44  H   -0.004852   0.000047
    45  H    0.025097   0.000057
    46  H    0.028795  -0.000532
 Sum of Mulliken charges =  -0.00000   5.00000

 Dipole moment (field-independent basis, Debye):
    X=              9.8140    Y=              1.2735    Z=             -1.6012  Tot=             10.0250
 Quadrupole moment (field-independent basis, Debye-Ang):
   XX=           -185.3373   YY=           -172.8642   ZZ=           -165.2129
   XY=            -14.8609   XZ=              6.5954   YZ=             -0.4951

 Normal termination of Gaussian 16 at Sun Jun 20 23:06:57 2021.
