 Gaussian 16, Revision A.03,

 -----------------------------------------------------------
 #p opt=modredundant freq=noraman ub3lyp jul-cc-pvdz pop=cm5
 -----------------------------------------------------------

 -----
 title
 -----
 Symbolic Z-matrix:
 Charge =  0 Multiplicity = 6

 SCF Done:  E(UB3LYP) =  -3531.40345570     A.U. after   26 cycles
 SCF Done:  E(UB3LYP) =  -3531.40353339     A.U. after   14 cycles
 SCF Done:  E(UB3LYP) =  -3531.40188653     A.U. after   19 cycles
 SCF Done:  E(UB3LYP) =  -3531.40350677     A.U. after   15 cycles
 SCF Done:  E(UB3LYP) =  -3531.40382023     A.U. after   11 cycles
 SCF Done:  E(UB3LYP) =  -3531.39972067     A.U. after   20 cycles
 SCF Done:  E(UB3LYP) =  -3531.40260020     A.U. after   19 cycles
 SCF Done:  E(UB3LYP) =  -3531.40398655     A.U. after   12 cycles
 SCF Done:  E(UB3LYP) =  -3531.40395862     A.U. after   17 cycles
 SCF Done:  E(UB3LYP) =  -3531.40401036     A.U. after   16 cycles
 SCF Done:  E(UB3LYP) =  -3531.40405894     A.U. after   16 cycles
 SCF Done:  E(UB3LYP) =  -3531.40406760     A.U. after   13 cycles
 SCF Done:  E(UB3LYP) =  -3531.40407079     A.U. after   11 cycles
 SCF Done:  E(UB3LYP) =  -3531.40406910     A.U. after   11 cycles
 SCF Done:  E(UB3LYP) =  -3531.40406911     A.U. after   11 cycles
 SCF Done:  E(UB3LYP) =  -3531.40406923     A.U. after   10 cycles
 Optimization completed.
    -- Stationary point found.
 Normal termination of Gaussian 16 at Sun Jun 20 04:26:30 2021.

 ----------------------------------------------------------------------
 #P Geom=AllCheck Guess=TCheck SCRF=Check GenChk UB3LYP/Jul-CC-pVDZ Fre
 q
 ----------------------------------------------------------------------

 Structure from the checkpoint file:  "checkpoint.chk"
 -----
 title
 -----
 Charge =  0 Multiplicity = 6

 SCF Done:  E(UB3LYP) =  -3531.40406923     A.U. after    1 cycles

  Exact polarizability: 321.296  14.279 295.377  12.843  14.990 297.714
 Approx polarizability: 499.663  39.736 448.877  12.346  28.358 495.400

 ******    2 imaginary frequencies (negative Signs) ******

                      1                      2                      3
                      A                      A                      A
 Frequencies --   -450.3305               -15.9820                24.0582
 Red. masses --      8.6121                 5.2919                 6.3955
 Frc consts  --      1.0290                 0.0008                 0.0022
 IR Inten    --    277.9898                 1.4439                 0.3266

                      4                      5                      6
                      A                      A                      A
 Frequencies --     30.9090                41.3849                46.3584
 Red. masses --      7.8875                 4.4727                 4.8229
 Frc consts  --      0.0044                 0.0045                 0.0061
 IR Inten    --      0.5501                 0.5386                 2.4543

                      7                      8                      9
                      A                      A                      A
 Frequencies --     51.6037                62.4228                67.9276
 Red. masses --      3.2162                 6.4705                 4.1482
 Frc consts  --      0.0050                 0.0149                 0.0113
 IR Inten    --      0.1959                 0.8280                 1.2445

                     10                     11                     12
                      A                      A                      A
 Frequencies --     83.8509                90.9783               102.3520
 Red. masses --     10.1919                 7.5090                 5.6852
 Frc consts  --      0.0422                 0.0366                 0.0351
 IR Inten    --      0.8166                 1.2707                 1.5266

                     13                     14                     15
                      A                      A                      A
 Frequencies --    105.2837               108.6595               121.0136
 Red. masses --      6.9820                 4.9036                18.7334
 Frc consts  --      0.0456                 0.0341                 0.1616
 IR Inten    --      3.8448                 4.1107                 0.6837

                     16                     17                     18
                      A                      A                      A
 Frequencies --    129.8031               147.3530               165.6260
 Red. masses --      7.7412                 4.2584                 1.1365
 Frc consts  --      0.0768                 0.0545                 0.0184
 IR Inten    --      1.9866                 1.9662                 2.1870

                     19                     20                     21
                      A                      A                      A
 Frequencies --    170.9979               190.1572               194.9706
 Red. masses --      2.9418                 2.3007                 3.3877
 Frc consts  --      0.0507                 0.0490                 0.0759
 IR Inten    --      5.8588                 1.5327                 1.6831

                     22                     23                     24
                      A                      A                      A
 Frequencies --    200.5632               213.2355               227.5196
 Red. masses --      1.5193                 2.3144                 3.8221
 Frc consts  --      0.0360                 0.0620                 0.1166
 IR Inten    --      1.0898                 1.6698                 7.4259

                     25                     26                     27
                      A                      A                      A
 Frequencies --    246.2719               261.7195               293.9538
 Red. masses --      2.6696                 2.0587                 4.0759
 Frc consts  --      0.0954                 0.0831                 0.2075
 IR Inten    --      4.5352                 3.4867                 5.6842

                     28                     29                     30
                      A                      A                      A
 Frequencies --    318.7368               327.3090               340.2043
 Red. masses --      2.2672                 6.4060                13.6952
 Frc consts  --      0.1357                 0.4043                 0.9339
 IR Inten    --      0.1848                 6.2443                62.4628

                     31                     32                     33
                      A                      A                      A
 Frequencies --    352.7950               377.3437               379.6653
 Red. masses --      7.6881                 8.4162                 6.2241
 Frc consts  --      0.5638                 0.7061                 0.5286
 IR Inten    --      7.0044                47.9388                41.0761

                     34                     35                     36
                      A                      A                      A
 Frequencies --    390.5408               406.0846               410.0264
 Red. masses --     31.8245                 2.8461                 2.8702
 Frc consts  --      2.8599                 0.2765                 0.2843
 IR Inten    --     75.9543                12.1868                 2.0589

                     37                     38                     39
                      A                      A                      A
 Frequencies --    433.7894               449.4495               473.0999
 Red. masses --      3.3247                 4.2742                 3.1811
 Frc consts  --      0.3686                 0.5087                 0.4195
 IR Inten    --      3.2324                29.1047                16.2740

                     40                     41                     42
                      A                      A                      A
 Frequencies --    510.3729               520.5458               566.7888
 Red. masses --      2.6957                 3.3862                 3.2815
 Frc consts  --      0.4137                 0.5406                 0.6211
 IR Inten    --      6.6345                 6.5081                54.2906

                     43                     44                     45
                      A                      A                      A
 Frequencies --    609.3016               627.1970               640.5271
 Red. masses --      3.6830                 5.9900                 4.6225
 Frc consts  --      0.8056                 1.3883                 1.1174
 IR Inten    --     18.6727                 5.8621               105.7519

                     46                     47                     48
                      A                      A                      A
 Frequencies --    694.4173               705.1626               758.3669
 Red. masses --      1.6637                 5.1982                 4.6377
 Frc consts  --      0.4727                 1.5229                 1.5715
 IR Inten    --     43.4644                39.0842                 5.6370

                     49                     50                     51
                      A                      A                      A
 Frequencies --    764.1249               799.6487               802.2445
 Red. masses --      2.3678                 2.5939                 1.3715
 Frc consts  --      0.8145                 0.9773                 0.5201
 IR Inten    --     10.2377                 7.2449                 8.7095

                     52                     53                     54
                      A                      A                      A
 Frequencies --    821.4406               840.2118               860.9608
 Red. masses --      2.9980                 1.2622                 2.0162
 Frc consts  --      1.1919                 0.5250                 0.8805
 IR Inten    --     31.6489                 1.0908                10.1748

                     55                     56                     57
                      A                      A                      A
 Frequencies --    866.7028               880.0116               912.1200
 Red. masses --      1.6030                 1.8104                 2.0262
 Frc consts  --      0.7094                 0.8260                 0.9932
 IR Inten    --     18.4867                 7.6777                14.1584

                     58                     59                     60
                      A                      A                      A
 Frequencies --    935.1846               954.1421               958.8297
 Red. masses --      1.4262                 1.3531                 3.0013
 Frc consts  --      0.7349                 0.7258                 1.6257
 IR Inten    --      7.0258                35.6241                22.4455

                     61                     62                     63
                      A                      A                      A
 Frequencies --    984.4040               993.4074               998.0064
 Red. masses --      1.4288                 2.7398                 1.9966
 Frc consts  --      0.8158                 1.5930                 1.1717
 IR Inten    --      2.9367                24.0309                 3.4471

                     64                     65                     66
                      A                      A                      A
 Frequencies --   1001.4385              1006.8555              1009.3011
 Red. masses --      1.9294                 2.1659                 1.4445
 Frc consts  --      1.1400                 1.2937                 0.8670
 IR Inten    --      1.8618                 2.5907                 3.6688

                     67                     68                     69
                      A                      A                      A
 Frequencies --   1037.1195              1045.9432              1056.3620
 Red. masses --      2.7733                 2.5266                 1.8326
 Frc consts  --      1.7576                 1.6286                 1.2049
 IR Inten    --     46.7521                 7.3652                57.9431

                     70                     71                     72
                      A                      A                      A
 Frequencies --   1065.3320              1092.4634              1109.2417
 Red. masses --      2.1711                 1.8055                 1.5935
 Frc consts  --      1.4517                 1.2696                 1.1552
 IR Inten    --      3.7436                12.5834                15.0244

                     73                     74                     75
                      A                      A                      A
 Frequencies --   1131.6446              1134.5697              1161.8769
 Red. masses --      2.1773                 2.3244                 1.7438
 Frc consts  --      1.6428                 1.7629                 1.3869
 IR Inten    --     11.5072                 9.1449                47.9133

                     76                     77                     78
                      A                      A                      A
 Frequencies --   1169.3225              1175.7039              1181.6028
 Red. masses --      1.6160                 1.0890                 2.5124
 Frc consts  --      1.3019                 0.8869                 2.0667
 IR Inten    --     21.7540                 1.3972                61.4183

                     79                     80                     81
                      A                      A                      A
 Frequencies --   1199.8636              1208.9633              1230.9237
 Red. masses --      1.4081                 1.5964                 2.2167
 Frc consts  --      1.1944                 1.3747                 1.9789
 IR Inten    --     33.5016                35.9595               201.6195

                     82                     83                     84
                      A                      A                      A
 Frequencies --   1256.2591              1257.7908              1286.6483
 Red. masses --      2.3333                 1.9680                 1.1247
 Frc consts  --      2.1696                 1.8344                 1.0970
 IR Inten    --    282.4114                41.3947                 7.2064

                     85                     86                     87
                      A                      A                      A
 Frequencies --   1319.8577              1323.8048              1331.5832
 Red. masses --      1.4075                 1.4636                 1.6594
 Frc consts  --      1.4446                 1.5112                 1.7336
 IR Inten    --     34.3682                37.9627                35.7323

                     88                     89                     90
                      A                      A                      A
 Frequencies --   1342.6060              1359.7221              1360.2104
 Red. masses --      1.5069                 1.6791                 2.5257
 Frc consts  --      1.6004                 1.8290                 2.7532
 IR Inten    --     36.1242                30.9720                17.9862

                     91                     92                     93
                      A                      A                      A
 Frequencies --   1371.6995              1384.9065              1389.5879
 Red. masses --      1.3462                 1.4341                 1.2900
 Frc consts  --      1.4924                 1.6205                 1.4676
 IR Inten    --     48.6001                36.9565                47.8144

                     94                     95                     96
                      A                      A                      A
 Frequencies --   1399.6004              1415.7988              1443.7348
 Red. masses --      1.4043                 1.4268                 1.1024
 Frc consts  --      1.6208                 1.6851                 1.3539
 IR Inten    --     50.5816                 3.6596                21.8000

                     97                     98                     99
                      A                      A                      A
 Frequencies --   1451.4514              1469.5087              1473.1895
 Red. masses --      1.1080                 2.2119                 1.0384
 Frc consts  --      1.3753                 2.8143                 1.3278
 IR Inten    --      6.7359                16.2475                 5.0546

                    100                    101                    102
                      A                      A                      A
 Frequencies --   1474.9574              1486.0719              1488.6896
 Red. masses --      1.1569                 1.1027                 1.0540
 Frc consts  --      1.4828                 1.4348                 1.3763
 IR Inten    --      6.7455                20.3003                 2.3789

                    103                    104                    105
                      A                      A                      A
 Frequencies --   1500.2038              1506.8436              1507.5922
 Red. masses --      1.1695                 1.0845                 1.1258
 Frc consts  --      1.5508                 1.4508                 1.5076
 IR Inten    --      7.3572                 6.3737                23.9479

                    106                    107                    108
                      A                      A                      A
 Frequencies --   1516.4297              1568.6976              1618.1969
 Red. masses --      1.8472                 3.5798                 5.5514
 Frc consts  --      2.5027                 5.1902                 8.5648
 IR Inten    --      2.4023               152.4346                 1.0136

                    109                    110                    111
                      A                      A                      A
 Frequencies --   1639.1531              1763.9648              3003.5893
 Red. masses --      5.6639                11.5309                 1.0529
 Frc consts  --      8.9662                21.1393                 5.5967
 IR Inten    --     18.7491               237.3987                 2.9992

                    112                    113                    114
                      A                      A                      A
 Frequencies --   3015.7017              3041.2731              3055.0422
 Red. masses --      1.0484                 1.0361                 1.0632
 Frc consts  --      5.6178                 5.6463                 5.8468
 IR Inten    --      3.8326                20.6554                23.2638

                    115                    116                    117
                      A                      A                      A
 Frequencies --   3060.7128              3072.1521              3076.5269
 Red. masses --      1.0596                 1.0627                 1.0857
 Frc consts  --      5.8484                 5.9094                 6.0543
 IR Inten    --     14.6217                26.9930                 0.7596

                    118                    119                    120
                      A                      A                      A
 Frequencies --   3096.8000              3100.4419              3109.9606
 Red. masses --      1.0837                 1.1012                 1.1046
 Frc consts  --      6.1236                 6.2366                 6.2947
 IR Inten    --      4.1709                 4.9913                11.2079

                    121                    122                    123
                      A                      A                      A
 Frequencies --   3116.7601              3117.3026              3123.5671
 Red. masses --      1.0803                 1.1028                 1.1001
 Frc consts  --      6.1830                 6.3137                 6.3241
 IR Inten    --      2.7171                15.5025                16.3116

                    124                    125                    126
                      A                      A                      A
 Frequencies --   3140.9166              3153.8276              3172.9938
 Red. masses --      1.1043                 1.1057                 1.0860
 Frc consts  --      6.4188                 6.4796                 6.4420
 IR Inten    --     12.4384                 0.7410                 0.1231

                    127                    128                    129
                      A                      A                      A
 Frequencies --   3173.3355              3174.6293              3185.4730
 Red. masses --      1.1028                 1.0900                 1.0911
 Frc consts  --      6.5430                 6.4723                 6.5230
 IR Inten    --      2.0502                 6.5941                 7.4945

                    130                    131                    132
                      A                      A                      A
 Frequencies --   3195.6742              3227.3197              3232.9780
 Red. masses --      1.0969                 1.0917                 1.0918
 Frc consts  --      6.6003                 6.6996                 6.7238
 IR Inten    --     14.7573                 2.0301                 2.1228

 - Thermochemistry -
 -------------------
 Temperature   298.150 Kelvin.  Pressure   1.00000 Atm.
 Atom     1 has atomic number  6 and mass  12.00000

 Molecular mass:   434.99839 amu.
 Principal axes and moments of inertia in atomic units:
                           1         2         3
     Eigenvalues --  8973.90754********************
           X            0.99984   0.00156   0.01761
           Y           -0.00201   0.99966   0.02582
           Z           -0.01756  -0.02585   0.99951
 This molecule is an asymmetric top.
 Rotational symmetry number  1.
 Warning -- assumption of classical behavior for rotation
           may cause significant error
 Rotational temperatures (Kelvin)      0.00965     0.00796     0.00692
 Rotational constants (GHZ):           0.20111     0.16580     0.14417
    2 imaginary frequencies ignored.
 Zero-point vibrational energy     941559.2 (Joules/Mol)
                                  225.03805 (Kcal/Mol)
 Warning -- explicit consideration of  41 degrees of freedom as
           vibrations may cause significant error
 Vibrational temperatures:     34.61    44.47    59.54    66.70    74.25
          (Kelvin)             89.81    97.73   120.64   130.90   147.26
                              151.48   156.34   174.11   186.76   212.01
                              238.30   246.03   273.59   280.52   288.57
                              306.80   327.35   354.33   376.56   422.93
                              458.59   470.92   489.48   507.59   542.91
                              546.25   561.90   584.27   589.94   624.13
                              646.66   680.69   734.31   748.95   815.48
                              876.65   902.40   921.58   999.11  1014.57
                             1091.12  1099.41  1150.52  1154.25  1181.87
                             1208.88  1238.73  1246.99  1266.14  1312.34
                             1345.52  1372.80  1379.54  1416.34  1429.29
                             1435.91  1440.85  1448.64  1452.16  1492.18
                             1504.88  1519.87  1532.78  1571.81  1595.95
                             1628.18  1632.39  1671.68  1682.39  1691.58
                             1700.06  1726.34  1739.43  1771.02  1807.48
                             1809.68  1851.20  1898.98  1904.66  1915.85
                             1931.71  1956.34  1957.04  1973.57  1992.57
                             1999.31  2013.71  2037.02  2077.21  2088.31
                             2114.30  2119.59  2122.13  2138.13  2141.89
                             2158.46  2168.01  2169.09  2181.80  2257.01
                             2328.22  2358.38  2537.95  4321.50  4338.92
                             4375.71  4395.52  4403.68  4420.14  4426.44
                             4455.60  4460.84  4474.54  4484.32  4485.10
                             4494.12  4519.08  4537.65  4565.23  4565.72
                             4567.58  4583.19  4597.86  4643.39  4651.53

 Zero-point correction=                           0.358621 (Hartree/Particle)
 Thermal correction to Energy=                    0.385207
 Thermal correction to Enthalpy=                  0.386152
 Thermal correction to Gibbs Free Energy=         0.298208
 Sum of electronic and zero-point Energies=          -3531.045448
 Sum of electronic and thermal Energies=             -3531.018862
 Sum of electronic and thermal Enthalpies=           -3531.017918
 Sum of electronic and thermal Free Energies=        -3531.105861

                     E (Thermal)             CV                S
                      KCal/Mol        Cal/Mol-Kelvin    Cal/Mol-Kelvin
 Total                  241.721             95.842            185.092
 Electronic               0.000              0.000              3.561
 Translational            0.889              2.981             44.100
 Rotational               0.889              2.981             35.457
 Vibrational            239.944             89.880            101.974
 Vibration     1          0.593              1.985              6.267
 Vibration     2          0.594              1.984              5.770
 Vibration     3          0.594              1.981              5.192
 Vibration     4          0.595              1.979              4.967
 Vibration     5          0.596              1.977              4.755
 Vibration     6          0.597              1.972              4.379
 Vibration     7          0.598              1.970              4.213
 Vibration     8          0.601              1.960              3.799
 Vibration     9          0.602              1.956              3.639
 Vibration    10          0.604              1.947              3.409
 Vibration    11          0.605              1.945              3.354
 Vibration    12          0.606              1.942              3.293
 Vibration    13          0.609              1.932              3.084
 Vibration    14          0.612              1.923              2.949
 Vibration    15          0.617              1.906              2.706
 Vibration    16          0.624              1.885              2.485
 Vibration    17          0.626              1.878              2.424
 Vibration    18          0.633              1.853              2.226
 Vibration    19          0.636              1.847              2.180
 Vibration    20          0.638              1.839              2.128
 Vibration    21          0.644              1.821              2.016
 Vibration    22          0.651              1.799              1.898
 Vibration    23          0.661              1.769              1.757
 Vibration    24          0.669              1.743              1.650
 Vibration    25          0.689              1.685              1.451
 Vibration    26          0.705              1.638              1.317
 Vibration    27          0.711              1.621              1.273
 Vibration    28          0.720              1.595              1.211
 Vibration    29          0.729              1.570              1.154
 Vibration    30          0.748              1.518              1.050
 Vibration    31          0.750              1.514              1.040
 Vibration    32          0.758              1.490              0.998
 Vibration    33          0.771              1.457              0.941
 Vibration    34          0.774              1.448              0.927
 Vibration    35          0.795              1.397              0.846
 Vibration    36          0.808              1.362              0.797
 Vibration    37          0.830              1.310              0.729
 Vibration    38          0.865              1.227              0.633
 Vibration    39          0.876              1.204              0.609
 Vibration    40          0.923              1.103              0.510
 Vibration    41          0.968              1.012              0.434

                           ! Non-Optimized Parameters !
 Normal termination of Gaussian 16 at Sun Jun 20 09:06:09 2021.

 ----------------------------------------------------------------------
 #p ub3lyp jul-cc-pvdz pop=cm5 scrf=(pcm,solvent=dichloroethane) guess=
 read geom=allcheck
 ----------------------------------------------------------------------

 Structure from the checkpoint file:  "checkpoint.chk"
 -----
 title
 -----
 Charge =  0 Multiplicity = 6

 SCF Done:  E(UB3LYP) =  -3531.42606905     A.U. after   20 cycles
 Normal termination of Gaussian 16 at Sun Jun 20 09:34:57 2021.
 Gaussian 16:  ES64L-G16RevA.03 25-Dec-2016

 ----------------------------------------------------------------------
 #p ub3lyp jul-cc-pvdz pop=cm5 scrf=(pcm,solvent=water) guess=read geom
 =allcheck
 ----------------------------------------------------------------------

 Structure from the checkpoint file:  "checkpoint.chk"
 -----
 title
 -----
 Charge =  0 Multiplicity = 6

                         Standard orientation:
 ---------------------------------------------------------------------
 Center     Atomic      Atomic             Coordinates (Angstroms)
 Number     Number       Type             X           Y           Z
 ---------------------------------------------------------------------
      1          6           0        3.205489   -0.488342    0.496339
      2          6           0        1.819825   -0.606847    0.727360
      3          6           0        1.360617   -0.653027    2.056638
      4          6           0        2.259671   -0.583080    3.123243
      5          6           0        3.630609   -0.473208    2.881141
      6          6           0        4.099556   -0.423118    1.562017
      7          6           0        0.818167   -0.660737   -0.390692
      8          6           0        1.038750    0.223564   -1.661560
      9          6           0        1.901099   -0.482311   -2.714264
     10          6           0        1.448656   -1.952544   -2.745771
     11          6           0        1.214911   -2.387975   -1.317645
     12          6           0       -0.016251   -2.798758   -0.798622
     13          6           0       -1.275727   -2.791777   -1.594563
     14          8           0       -0.448251   -0.796119    0.003135
     15         26           0       -2.058011    0.165570    0.399859
     16         17           0       -2.805178    0.979883   -1.527600
     17          6           0       -0.072205   -3.482124    0.523071
     18         17           0       -1.708371    1.680482    1.973940
     19         17           0       -3.383713   -1.451415    1.185239
     20          1           0        0.293371   -0.712856    2.252042
     21          1           0        1.881558   -0.606552    4.145889
     22          1           0        4.333294   -0.418562    3.714102
     23          1           0        5.167438   -0.324972    1.363380
     24          1           0        3.595292   -0.432901   -0.516638
     25          1           0        0.025430    0.379465   -2.053442
     26          6           0        1.596009    1.606710   -1.306722
     27          1           0        1.782782    0.004326   -3.691436
     28          1           0        2.962607   -0.399109   -2.453572
     29          1           0        0.535984   -2.052208   -3.345644
     30          1           0        2.210885   -2.588305   -3.217702
     31          1           0        2.095023   -2.717556   -0.766573
     32          1           0       -0.168778   -4.562790    0.315292
     33          1           0        0.837895   -3.334510    1.114280
     34          1           0       -0.960085   -3.179295    1.090774
     35          1           0       -1.299255   -3.753295   -2.140235
     36          1           0       -2.159471   -2.746365   -0.950409
     37          1           0       -1.323166   -1.990913   -2.336961
     38          8           0        0.635851    2.393489   -0.812476
     39          8           0        2.750096    1.942424   -1.476888
     40          6           0        1.022294    3.749319   -0.432839
     41          6           0       -0.244457    4.558010   -0.246716
     42          1           0        1.611281    3.677348    0.491998
     43          1           0        1.669300    4.152129   -1.222070
     44          1           0        0.025324    5.580343    0.056088
     45          1           0       -0.815710    4.612179   -1.183499
     46          1           0       -0.882883    4.116548    0.528480
 ---------------------------------------------------------------------

 SCF Done:  E(UB3LYP) =  -3531.43020444     A.U. after   17 cycles

 The electronic state is 6-A.
 Alpha  occ. eigenvalues -- -256.20115-101.51924-101.51918-101.51824 -30.19502
 Alpha  occ. eigenvalues --  -26.04804 -26.04745 -26.04654 -19.20547 -19.16428
 Alpha  occ. eigenvalues --  -19.15469 -10.33318 -10.32382 -10.28536 -10.24852
 Alpha  occ. eigenvalues --  -10.22540 -10.22009 -10.21998 -10.20951 -10.20879
 Alpha  occ. eigenvalues --  -10.20786 -10.20582 -10.20481 -10.20429 -10.20385
 Alpha  occ. eigenvalues --  -10.20316 -10.20234 -10.18470  -9.43652  -9.43633
 Alpha  occ. eigenvalues --   -9.43541  -7.19516  -7.19497  -7.19409  -7.19199
 Alpha  occ. eigenvalues --   -7.19192  -7.19180  -7.19173  -7.19086  -7.19074
 Alpha  occ. eigenvalues --   -3.67210  -2.44729  -2.44537  -2.44410  -1.12403
 Alpha  occ. eigenvalues --   -1.06085  -1.03885  -0.87980  -0.87130  -0.83819
 Alpha  occ. eigenvalues --   -0.79908  -0.79213  -0.79106  -0.78763  -0.78179
 Alpha  occ. eigenvalues --   -0.76448  -0.75161  -0.72787  -0.71310  -0.66599
 Alpha  occ. eigenvalues --   -0.64594  -0.62307  -0.61685  -0.59481  -0.57289
 Alpha  occ. eigenvalues --   -0.56098  -0.54376  -0.52975  -0.51521  -0.50666
 Alpha  occ. eigenvalues --   -0.49941  -0.49657  -0.48929  -0.47952  -0.47843
 Alpha  occ. eigenvalues --   -0.47493  -0.47345  -0.46764  -0.46487  -0.46100
 Alpha  occ. eigenvalues --   -0.44715  -0.44699  -0.43585  -0.43375  -0.42841
 Alpha  occ. eigenvalues --   -0.42528  -0.41394  -0.40914  -0.40206  -0.40025
 Alpha  occ. eigenvalues --   -0.39515  -0.38966  -0.38208  -0.37744  -0.37334
 Alpha  occ. eigenvalues --   -0.36947  -0.36846  -0.36105  -0.35976  -0.35807
 Alpha  occ. eigenvalues --   -0.34503  -0.34165  -0.33614  -0.32082  -0.31763
 Alpha  occ. eigenvalues --   -0.30856  -0.30772  -0.30471  -0.30262  -0.29868
 Alpha  occ. eigenvalues --   -0.29441  -0.28986  -0.28287  -0.27183  -0.25490
 Alpha virt. eigenvalues --   -0.11216  -0.03179  -0.02820  -0.01604  -0.01266
 Alpha virt. eigenvalues --   -0.00140  -0.00001   0.00053   0.01459   0.01600
 Alpha virt. eigenvalues --    0.01789   0.01940   0.02556   0.03249   0.03464

  Beta  occ. eigenvalues -- -256.19931-101.51748-101.51746-101.51657 -30.10571
  Beta  occ. eigenvalues --  -25.97335 -25.97274 -25.97263 -19.20546 -19.15799
  Beta  occ. eigenvalues --  -19.15467 -10.33319 -10.32387 -10.28528 -10.24852
  Beta  occ. eigenvalues --  -10.22525 -10.21979 -10.21937 -10.20951 -10.20882
  Beta  occ. eigenvalues --  -10.20791 -10.20580 -10.20480 -10.20428 -10.20384
  Beta  occ. eigenvalues --  -10.20319 -10.20230 -10.18469  -9.43479  -9.43463
  Beta  occ. eigenvalues --   -9.43377  -7.19226  -7.19209  -7.19119  -7.18963
  Beta  occ. eigenvalues --   -7.18953  -7.18950  -7.18945  -7.18864  -7.18862
  Beta  occ. eigenvalues --   -3.46384  -2.22689  -2.22607  -2.22534  -1.12400
  Beta  occ. eigenvalues --   -1.04887  -1.03882  -0.87869  -0.87047  -0.83777
  Beta  occ. eigenvalues --   -0.78801  -0.78777  -0.78125  -0.77959  -0.77908
  Beta  occ. eigenvalues --   -0.76444  -0.75113  -0.72770  -0.71174  -0.66478
  Beta  occ. eigenvalues --   -0.64533  -0.62269  -0.61642  -0.59113  -0.57052
  Beta  occ. eigenvalues --   -0.55723  -0.54294  -0.52047  -0.51500  -0.50292
  Beta  occ. eigenvalues --   -0.49917  -0.48811  -0.48471  -0.47900  -0.47182
  Beta  occ. eigenvalues --   -0.45888  -0.44887  -0.43572  -0.43394  -0.42917
  Beta  occ. eigenvalues --   -0.42474  -0.41399  -0.40891  -0.40190  -0.40030
  Beta  occ. eigenvalues --   -0.39511  -0.38923  -0.38037  -0.37745  -0.37576
  Beta  occ. eigenvalues --   -0.37107  -0.36874  -0.36108  -0.35953  -0.35861
  Beta  occ. eigenvalues --   -0.35519  -0.35476  -0.34435  -0.33030  -0.32744
  Beta  occ. eigenvalues --   -0.32276  -0.32056  -0.31906  -0.31057  -0.30141
  Beta  occ. eigenvalues --   -0.29379  -0.28989  -0.28451  -0.27183  -0.25549
  Beta virt. eigenvalues --   -0.14000  -0.13688  -0.12779  -0.12684  -0.12247
  Beta virt. eigenvalues --   -0.10855  -0.03098  -0.02800  -0.01547  -0.01188
  Beta virt. eigenvalues --   -0.00099   0.00032   0.00082   0.01488   0.01627

 Mulliken charges and spin densities:
               1          2
     1  C    0.236054   0.000343
     2  C    2.757492   0.000079
     3  C   -0.431658  -0.013300
     4  C    0.043762   0.005780
     5  C    0.261281  -0.002042
     6  C   -0.106129   0.001843
     7  C   -2.247983  -0.010063
     8  C    0.372923   0.013087
     9  C    0.483770   0.004191
    10  C    0.656677  -0.002925
    11  C    0.620217   0.049936
    12  C   -0.473934  -0.000706
    13  C    0.311254   0.001382
    14  O   -0.490232   0.197166
    15  Fe   0.699224   4.053419
    16  Cl  -0.542948   0.228075
    17  C    0.367491  -0.000693
    18  Cl  -0.500686   0.239147
    19  Cl  -0.535098   0.227952
    20  H   -0.248817   0.002170
    21  H   -0.160685  -0.000012
    22  H   -0.157727   0.000041
    23  H   -0.156006   0.000181
    24  H   -0.251998  -0.000114
    25  H   -0.193173  -0.000513
    26  C    0.862531   0.001806
    27  H   -0.136963   0.000311
    28  H   -0.014370  -0.000026
    29  H   -0.083263   0.000128
    30  H   -0.107691   0.001470
    31  H   -0.264007  -0.001338
    32  H    0.027466   0.000382
    33  H    0.035260   0.000102
    34  H    0.068476  -0.000021
    35  H    0.031699  -0.000075
    36  H    0.041638   0.000591
    37  H    0.086359  -0.000434
    38  O   -0.658878   0.002885
    39  O   -0.638820   0.001005
    40  C    0.428443   0.000449
    41  C    0.037242  -0.001439
    42  H   -0.036867   0.000010
    43  H   -0.037592   0.000033
    44  H   -0.007790   0.000038
    45  H    0.025408   0.000069
    46  H    0.028650  -0.000370
 Sum of Mulliken charges =  -0.00000   5.00000

 Dipole moment (field-independent basis, Debye):
    X=              9.9917    Y=             -7.7814    Z=             -3.5584  Tot=             13.1546
 Quadrupole moment (field-independent basis, Debye-Ang):
   XX=           -199.3306   YY=           -152.6505   ZZ=           -169.6980
   XY=             -4.2095   XZ=             10.4918   YZ=              8.3222

 Normal termination of Gaussian 16 at Sun Jun 20 10:00:32 2021.
