 Gaussian 16, Revision A.03,

 -----------------------------------------------------------
 #p opt=modredundant freq=noraman ub3lyp jul-cc-pvdz pop=cm5
 -----------------------------------------------------------

 -----
 title
 -----
 Symbolic Z-matrix:
 Charge =  0 Multiplicity = 6

 SCF Done:  E(UB3LYP) =  -3531.38898152     A.U. after   26 cycles
 SCF Done:  E(UB3LYP) =  -3531.38872343     A.U. after   19 cycles
 SCF Done:  E(UB3LYP) =  -3531.37830319     A.U. after   19 cycles
 SCF Done:  E(UB3LYP) =  -3531.37722648     A.U. after   19 cycles
 SCF Done:  E(UB3LYP) =  -3531.38907316     A.U. after   15 cycles
 SCF Done:  E(UB3LYP) =  -3531.38899542     A.U. after   18 cycles
 SCF Done:  E(UB3LYP) =  -3531.38931192     A.U. after   18 cycles
 SCF Done:  E(UB3LYP) =  -3531.38941821     A.U. after   18 cycles
 SCF Done:  E(UB3LYP) =  -3531.38952600     A.U. after   17 cycles
 SCF Done:  E(UB3LYP) =  -3531.38955902     A.U. after   15 cycles
 SCF Done:  E(UB3LYP) =  -3531.38957824     A.U. after   15 cycles
 SCF Done:  E(UB3LYP) =  -3531.38958039     A.U. after   13 cycles
 SCF Done:  E(UB3LYP) =  -3531.38958296     A.U. after   11 cycles
 SCF Done:  E(UB3LYP) =  -3531.38958325     A.U. after   13 cycles
 SCF Done:  E(UB3LYP) =  -3531.38958411     A.U. after   10 cycles
 SCF Done:  E(UB3LYP) =  -3531.38958448     A.U. after   10 cycles
 SCF Done:  E(UB3LYP) =  -3531.38958467     A.U. after   10 cycles
 Optimization completed.
    -- Stationary point found.
 Normal termination of Gaussian 16 at Sun Jun 20 03:44:04 2021.

 ----------------------------------------------------------------------
 #P Geom=AllCheck Guess=TCheck SCRF=Check GenChk UB3LYP/Jul-CC-pVDZ Fre
 q
 ----------------------------------------------------------------------

 Structure from the checkpoint file:  "checkpoint.chk"
 -----
 title
 -----
 Charge =  0 Multiplicity = 6

 SCF Done:  E(UB3LYP) =  -3531.38958467     A.U. after    2 cycles

  Exact polarizability: 329.992  11.919 295.083  17.148  15.999 306.978
 Approx polarizability: 515.822  37.105 454.452  24.069  35.720 518.022

 ******    1 imaginary frequencies (negative Signs) ******

                      1                      2                      3
                      A                      A                      A
 Frequencies --   -684.7913                11.0694                27.2425
 Red. masses --      9.9318                 4.9924                 7.0286
 Frc consts  --      2.7441                 0.0004                 0.0031
 IR Inten    --    254.9943                 1.3736                 0.1925

                      4                      5                      6
                      A                      A                      A
 Frequencies --     38.5950                45.3381                52.3439
 Red. masses --      7.6241                 5.3594                 3.3402
 Frc consts  --      0.0067                 0.0065                 0.0054
 IR Inten    --      0.1545                 0.8178                 1.6239

                      7                      8                      9
                      A                      A                      A
 Frequencies --     57.4029                63.3306                68.4869
 Red. masses --      4.3672                 8.0001                 3.8145
 Frc consts  --      0.0085                 0.0189                 0.0105
 IR Inten    --      1.5826                 1.3533                 1.6793

                     10                     11                     12
                      A                      A                      A
 Frequencies --     83.2012                96.6467               105.1189
 Red. masses --     10.3670                 7.3085                 5.6373
 Frc consts  --      0.0423                 0.0402                 0.0367
 IR Inten    --      0.8219                 0.4015                 1.0275

                     13                     14                     15
                      A                      A                      A
 Frequencies --    106.1439               112.7293               119.4109
 Red. masses --      7.0381                 4.3746                18.8747
 Frc consts  --      0.0467                 0.0328                 0.1586
 IR Inten    --      5.7028                 2.2210                 0.5684

                     16                     17                     18
                      A                      A                      A
 Frequencies --    128.6980               148.4291               176.3620
 Red. masses --      7.0244                 4.6484                 2.9068
 Frc consts  --      0.0685                 0.0603                 0.0533
 IR Inten    --      2.8263                 2.2376                 2.8354

                     19                     20                     21
                      A                      A                      A
 Frequencies --    192.9695               198.1580               206.9738
 Red. masses --      3.1512                 3.5410                 1.5912
 Frc consts  --      0.0691                 0.0819                 0.0402
 IR Inten    --      1.9737                 5.0720                 2.4294

                     22                     23                     24
                      A                      A                      A
 Frequencies --    211.9594               227.2016               241.7348
 Red. masses --      1.8465                 2.8251                 1.5400
 Frc consts  --      0.0489                 0.0859                 0.0530
 IR Inten    --      0.4395                 0.2792                 6.0188

                     25                     26                     27
                      A                      A                      A
 Frequencies --    249.7781               262.3151               293.8339
 Red. masses --      1.7256                 2.1586                 4.1540
 Frc consts  --      0.0634                 0.0875                 0.2113
 IR Inten    --      5.3215                 4.8331                 2.1185

                     28                     29                     30
                      A                      A                      A
 Frequencies --    308.1585               320.2993               335.5041
 Red. masses --      4.2018                 2.3872                24.7526
 Frc consts  --      0.2351                 0.1443                 1.6416
 IR Inten    --     59.5600                16.1552                39.5860

                     31                     32                     33
                      A                      A                      A
 Frequencies --    355.7916               380.3560               383.7067
 Red. masses --      6.5108                 5.8298                10.4217
 Frc consts  --      0.4856                 0.4969                 0.9040
 IR Inten    --      1.3920                24.9839                65.3437

                     34                     35                     36
                      A                      A                      A
 Frequencies --    392.7309               401.8975               412.0499
 Red. masses --     24.5372                 2.9818                 3.0185
 Frc consts  --      2.2298                 0.2838                 0.3019
 IR Inten    --     73.0973                15.3880                15.7787

                     37                     38                     39
                      A                      A                      A
 Frequencies --    423.0037               436.1609               469.7013
 Red. masses --      3.2118                 4.0112                 3.7211
 Frc consts  --      0.3386                 0.4496                 0.4837
 IR Inten    --     33.4066                20.7073                 5.8165

                     40                     41                     42
                      A                      A                      A
 Frequencies --    504.9889               507.8864               564.8761
 Red. masses --      3.2205                 2.7796                 3.5977
 Frc consts  --      0.4839                 0.4224                 0.6764
 IR Inten    --      4.9416                 1.8866                48.4281

                     43                     44                     45
                      A                      A                      A
 Frequencies --    598.9051               625.9444               639.1021
 Red. masses --      3.2615                 6.2059                 4.3232
 Frc consts  --      0.6893                 1.4326                 1.0404
 IR Inten    --     17.7490                 2.2766                91.7736

                     46                     47                     48
                      A                      A                      A
 Frequencies --    693.9640               700.5654               757.9036
 Red. masses --      1.8480                 3.8864                 4.3060
 Frc consts  --      0.5244                 1.1238                 1.4573
 IR Inten    --     31.1022                44.8623                 9.5029

                     49                     50                     51
                      A                      A                      A
 Frequencies --    767.2702               785.5919               801.9920
 Red. masses --      2.4649                 2.3007                 1.4190
 Frc consts  --      0.8550                 0.8366                 0.5377
 IR Inten    --      4.6216                 4.4088                 9.0965

                     52                     53                     54
                      A                      A                      A
 Frequencies --    819.1611               839.8140               844.7607
 Red. masses --      2.5923                 1.3175                 1.4234
 Frc consts  --      1.0249                 0.5475                 0.5985
 IR Inten    --     23.8768                 7.4861                13.5463

                     55                     56                     57
                      A                      A                      A
 Frequencies --    861.5219               879.0502               899.8125
 Red. masses --      2.4573                 1.9406                 1.3363
 Frc consts  --      1.0746                 0.8835                 0.6375
 IR Inten    --     24.7577                 7.1737                 7.2346

                     58                     59                     60
                      A                      A                      A
 Frequencies --    920.4599               940.2015               957.8631
 Red. masses --      2.0405                 1.4311                 3.1149
 Frc consts  --      1.0186                 0.7454                 1.6839
 IR Inten    --      6.4677                 2.1412                28.5987

                     61                     62                     63
                      A                      A                      A
 Frequencies --    986.3416               989.4032               992.0716
 Red. masses --      1.4367                 1.9912                 2.7563
 Frc consts  --      0.8235                 1.1485                 1.5983
 IR Inten    --      2.4713                18.7814                 9.9199

                     64                     65                     66
                      A                      A                      A
 Frequencies --   1001.2615              1006.7201              1015.5500
 Red. masses --      2.5533                 1.7734                 1.3739
 Frc consts  --      1.5081                 1.0590                 0.8348
 IR Inten    --      3.6398                 1.6723                 2.8459

                     67                     68                     69
                      A                      A                      A
 Frequencies --   1030.5210              1041.1631              1044.2749
 Red. masses --      2.1125                 2.3388                 2.6915
 Frc consts  --      1.3218                 1.4937                 1.7293
 IR Inten    --    104.7349                24.0688                 6.6247

                     70                     71                     72
                      A                      A                      A
 Frequencies --   1064.6214              1083.2293              1106.6890
 Red. masses --      2.2464                 2.0429                 1.6978
 Frc consts  --      1.5001                 1.4123                 1.2251
 IR Inten    --      1.4312                 7.5403                30.2075

                     73                     74                     75
                      A                      A                      A
 Frequencies --   1130.4742              1133.9830              1152.9311
 Red. masses --      2.2335                 2.2260                 2.7287
 Frc consts  --      1.6817                 1.6865                 2.1371
 IR Inten    --     14.6200                12.4422                56.7253

                     76                     77                     78
                      A                      A                      A
 Frequencies --   1162.3637              1171.7190              1176.3795
 Red. masses --      1.6535                 1.6205                 1.0860
 Frc consts  --      1.3162                 1.3109                 0.8855
 IR Inten    --     54.7736                 3.5093                 1.1151

                     79                     80                     81
                      A                      A                      A
 Frequencies --   1202.6730              1210.7201              1229.3286
 Red. masses --      1.2365                 1.3910                 2.6480
 Frc consts  --      1.0538                 1.2014                 2.3578
 IR Inten    --     18.1698                31.3793               253.7250

                     82                     83                     84
                      A                      A                      A
 Frequencies --   1252.4430              1267.8064              1286.9151
 Red. masses --      1.8756                 2.5044                 1.1334
 Frc consts  --      1.7334                 2.3717                 1.1060
 IR Inten    --     37.1832               155.0889                 6.0687

                     85                     86                     87
                      A                      A                      A
 Frequencies --   1316.7822              1322.8415              1334.5854
 Red. masses --      1.3774                 1.4660                 1.7076
 Frc consts  --      1.4071                 1.5115                 1.7920
 IR Inten    --     17.8827                40.5916                43.5180

                     88                     89                     90
                      A                      A                      A
 Frequencies --   1338.0935              1356.6745              1362.8741
 Red. masses --      1.5546                 1.5839                 2.7875
 Frc consts  --      1.6400                 1.7176                 3.0505
 IR Inten    --      5.9334                47.1991                24.7698

                     91                     92                     93
                      A                      A                      A
 Frequencies --   1367.5593              1384.2899              1391.4621
 Red. masses --      1.5935                 1.4208                 1.3303
 Frc consts  --      1.7559                 1.6041                 1.5176
 IR Inten    --     65.8824                36.0686                40.2615

                     94                     95                     96
                      A                      A                      A
 Frequencies --   1404.2711              1416.1489              1444.8036
 Red. masses --      1.2836                 1.4215                 1.2615
 Frc consts  --      1.4914                 1.6797                 1.5516
 IR Inten    --     37.4704                 5.6064                61.9261

                     97                     98                     99
                      A                      A                      A
 Frequencies --   1453.2076              1469.4693              1473.2396
 Red. masses --      1.1053                 2.2371                 1.0385
 Frc consts  --      1.3753                 2.8461                 1.3280
 IR Inten    --      0.4534                16.9788                 5.3066

                    100                    101                    102
                      A                      A                      A
 Frequencies --   1475.0262              1486.1324              1488.2963
 Red. masses --      1.1186                 1.0953                 1.0539
 Frc consts  --      1.4339                 1.4252                 1.3754
 IR Inten    --      1.8211                17.5393                 2.8101

                    103                    104                    105
                      A                      A                      A
 Frequencies --   1496.6073              1499.4391              1506.7727
 Red. masses --      1.1395                 1.3589                 1.0843
 Frc consts  --      1.5037                 1.8001                 1.4504
 IR Inten    --      8.1608                98.0155                 6.7018

                    106                    107                    108
                      A                      A                      A
 Frequencies --   1515.8360              1516.7462              1613.8569
 Red. masses --      2.0254                 1.4927                 5.3906
 Frc consts  --      2.7419                 2.0232                 8.2722
 IR Inten    --      1.1815                47.5991                 0.5344

                    109                    110                    111
                      A                      A                      A
 Frequencies --   1638.1207              1763.6811              3010.0321
 Red. masses --      5.5978                11.5541                 1.0504
 Frc consts  --      8.8503                21.1752                 5.6075
 IR Inten    --     26.5623               240.7526                 0.4745

                    112                    113                    114
                      A                      A                      A
 Frequencies --   3017.9545              3041.7220              3050.5469
 Red. masses --      1.0497                 1.0361                 1.0618
 Frc consts  --      5.6330                 5.6479                 5.8219
 IR Inten    --      6.1819                19.7967                27.4618

                    115                    116                    117
                      A                      A                      A
 Frequencies --   3060.6561              3067.9333              3074.8913
 Red. masses --      1.0592                 1.0625                 1.0853
 Frc consts  --      5.8462                 5.8920                 6.0460
 IR Inten    --     15.0170                31.5069                 0.5377

                    118                    119                    120
                      A                      A                      A
 Frequencies --   3093.1478              3102.4844              3109.4602
 Red. masses --      1.1025                 1.0834                 1.1056
 Frc consts  --      6.2148                 6.1440                 6.2984
 IR Inten    --      6.2755                 3.0995                10.0542

                    121                    122                    123
                      A                      A                      A
 Frequencies --   3117.6641              3118.6400              3122.3618
 Red. masses --      1.1021                 1.0984                 1.0841
 Frc consts  --      6.3115                 6.2942                 6.2272
 IR Inten    --     15.5509                12.4769                 7.2705

                    124                    125                    126
                      A                      A                      A
 Frequencies --   3140.6001              3157.6339              3173.3370
 Red. masses --      1.1044                 1.1062                 1.1031
 Frc consts  --      6.4182                 6.4982                 6.5448
 IR Inten    --     13.0634                 1.0566                 2.0521

                    127                    128                    129
                      A                      A                      A
 Frequencies --   3173.6895              3174.6041              3186.3904
 Red. masses --      1.0861                 1.0899                 1.0912
 Frc consts  --      6.4454                 6.4715                 6.5276
 IR Inten    --      0.1853                 5.2342                 7.3281

                    130                    131                    132
                      A                      A                      A
 Frequencies --   3196.3138              3232.7345              3235.4215
 Red. masses --      1.0970                 1.0920                 1.0918
 Frc consts  --      6.6033                 6.7235                 6.7337
 IR Inten    --     14.5155                 1.6636                 1.1723

 - Thermochemistry -
 -------------------
 Temperature   298.150 Kelvin.  Pressure   1.00000 Atm.
 Atom     1 has atomic number  6 and mass  12.00000

 Molecular mass:   434.99839 amu.
 Principal axes and moments of inertia in atomic units:
                           1         2         3
     Eigenvalues --  9043.88598********************
           X            0.99956   0.02091   0.02126
           Y           -0.02152   0.99935   0.02897
           Z           -0.02064  -0.02941   0.99935
 This molecule is an asymmetric top.
 Rotational symmetry number  1.
 Warning -- assumption of classical behavior for rotation
           may cause significant error
 Rotational temperatures (Kelvin)      0.00958     0.00799     0.00702
 Rotational constants (GHZ):           0.19955     0.16647     0.14632
    1 imaginary frequencies ignored.
 Zero-point vibrational energy     940809.6 (Joules/Mol)
                                  224.85890 (Kcal/Mol)
 Warning -- explicit consideration of  42 degrees of freedom as
           vibrations may cause significant error
 Vibrational temperatures:     15.93    39.20    55.53    65.23    75.31
          (Kelvin)             82.59    91.12    98.54   119.71   139.05
                              151.24   152.72   162.19   171.81   185.17
                              213.56   253.75   277.64   285.11   297.79
                              304.96   326.89   347.80   359.38   377.41
                              422.76   443.37   460.84   482.72   511.90
                              547.25   552.07   565.05   578.24   592.85
                              608.61   627.54   675.80   726.57   730.74
                              812.73   861.69   900.59   919.53   998.46
                             1007.96  1090.45  1103.93  1130.29  1153.89
                             1178.59  1208.30  1215.42  1239.54  1264.76
                             1294.63  1324.34  1352.74  1378.15  1419.13
                             1423.53  1427.37  1440.59  1448.45  1461.15
                             1482.69  1498.00  1502.48  1531.75  1558.53
                             1592.28  1626.50  1631.55  1658.81  1672.38
                             1685.84  1692.55  1730.38  1741.96  1768.73
                             1801.99  1824.09  1851.58  1894.56  1903.27
                             1920.17  1925.22  1951.95  1960.87  1967.61
                             1991.68  2002.00  2020.43  2037.52  2078.75
                             2090.84  2114.24  2119.66  2122.23  2138.21
                             2141.33  2153.28  2157.36  2167.91  2180.95
                             2182.26  2321.98  2356.89  2537.54  4330.76
                             4342.16  4376.36  4389.06  4403.60  4414.07
                             4424.08  4450.35  4463.78  4473.82  4485.62
                             4487.03  4492.38  4518.62  4543.13  4565.72
                             4566.23  4567.55  4584.51  4598.78  4651.18
                             4655.05

 Zero-point correction=                           0.358335 (Hartree/Particle)
 Thermal correction to Energy=                    0.385698
 Thermal correction to Enthalpy=                  0.386642
 Thermal correction to Gibbs Free Energy=         0.296020
 Sum of electronic and zero-point Energies=          -3531.031249
 Sum of electronic and thermal Energies=             -3531.003887
 Sum of electronic and thermal Enthalpies=           -3531.002943
 Sum of electronic and thermal Free Energies=        -3531.093565

                     E (Thermal)             CV                S
                      KCal/Mol        Cal/Mol-Kelvin    Cal/Mol-Kelvin
 Total                  242.029             98.017            190.730
 Electronic               0.000              0.000              3.561
 Translational            0.889              2.981             44.100
 Rotational               0.889              2.981             35.446
 Vibrational            240.252             92.055            107.623
 Vibration     1          0.593              1.987              7.809
 Vibration     2          0.593              1.984              6.021
 Vibration     3          0.594              1.981              5.330
 Vibration     4          0.595              1.979              5.011
 Vibration     5          0.596              1.977              4.727
 Vibration     6          0.596              1.975              4.545
 Vibration     7          0.597              1.972              4.351
 Vibration     8          0.598              1.969              4.196
 Vibration     9          0.600              1.961              3.814
 Vibration    10          0.603              1.952              3.521
 Vibration    11          0.605              1.945              3.357
 Vibration    12          0.605              1.944              3.338
 Vibration    13          0.607              1.939              3.221
 Vibration    14          0.609              1.933              3.110
 Vibration    15          0.611              1.925              2.965
 Vibration    16          0.618              1.904              2.692
 Vibration    17          0.628              1.871              2.367
 Vibration    18          0.635              1.850              2.199
 Vibration    19          0.637              1.842              2.150
 Vibration    20          0.641              1.830              2.070
 Vibration    21          0.643              1.823              2.027
 Vibration    22          0.651              1.800              1.901
 Vibration    23          0.658              1.776              1.790
 Vibration    24          0.663              1.763              1.732
 Vibration    25          0.670              1.742              1.646
 Vibration    26          0.689              1.685              1.452
 Vibration    27          0.698              1.658              1.372
 Vibration    28          0.706              1.635              1.309
 Vibration    29          0.717              1.605              1.233
 Vibration    30          0.731              1.563              1.140
 Vibration    31          0.750              1.512              1.038
 Vibration    32          0.753              1.505              1.025
 Vibration    33          0.760              1.486              0.990
 Vibration    34          0.768              1.466              0.956
 Vibration    35          0.776              1.444              0.919
 Vibration    36          0.785              1.420              0.882
 Vibration    37          0.797              1.391              0.839
 Vibration    38          0.827              1.317              0.738
 Vibration    39          0.860              1.239              0.646
 Vibration    40          0.863              1.233              0.639
 Vibration    41          0.921              1.107              0.514
 Vibration    42          0.957              1.034              0.452

                           ! Non-Optimized Parameters !
 Normal termination of Gaussian 16 at Sun Jun 20 07:01:03 2021.

 ----------------------------------------------------------------------
 #p ub3lyp jul-cc-pvdz pop=cm5 scrf=(pcm,solvent=dichloroethane) guess=
 read geom=allcheck
 ----------------------------------------------------------------------

 Structure from the checkpoint file:  "checkpoint.chk"
 -----
 title
 -----
 Charge =  0 Multiplicity = 6

 SCF Done:  E(UB3LYP) =  -3531.41020455     A.U. after   21 cycles
 Normal termination of Gaussian 16 at Sun Jun 20 07:25:13 2021.
 Gaussian 16:  ES64L-G16RevA.03 25-Dec-2016

 ----------------------------------------------------------------------
 #p ub3lyp jul-cc-pvdz pop=cm5 scrf=(pcm,solvent=water) guess=read geom
 =allcheck
 ----------------------------------------------------------------------

 Structure from the checkpoint file:  "checkpoint.chk"
 -----
 title
 -----
 Charge =  0 Multiplicity = 6

                         Standard orientation:
 ---------------------------------------------------------------------
 Center     Atomic      Atomic             Coordinates (Angstroms)
 Number     Number       Type             X           Y           Z
 ---------------------------------------------------------------------
      1          6           0        3.147171   -0.589725    0.562075
      2          6           0        1.753616   -0.734856    0.743774
      3          6           0        1.262083   -0.934572    2.050604
      4          6           0        2.133927   -0.981193    3.139146
      5          6           0        3.510199   -0.842264    2.944068
      6          6           0        4.012312   -0.645013    1.650593
      7          6           0        0.804061   -0.689081   -0.392224
      8          6           0        1.088540    0.176393   -1.645636
      9          6           0        1.913299   -0.586946   -2.695305
     10          6           0        1.322081   -2.006517   -2.815517
     11          6           0        0.991707   -2.504206   -1.431505
     12          6           0       -0.327917   -2.654412   -0.920889
     13          6           0       -1.536614   -2.514370   -1.791218
     14          8           0       -0.510570   -0.856840   -0.063349
     15         26           0       -2.004437    0.285232    0.433564
     16         17           0       -2.681289    1.265095   -1.439625
     17          6           0       -0.506026   -3.452471    0.329865
     18         17           0       -1.432289    1.681345    2.047487
     19         17           0       -3.487165   -1.202047    1.177252
     20          1           0        0.191399   -1.021146    2.212973
     21          1           0        1.732017   -1.118557    4.143514
     22          1           0        4.191761   -0.879953    3.795325
     23          1           0        5.084738   -0.526495    1.491730
     24          1           0        3.560456   -0.421026   -0.428304
     25          1           0        0.093857    0.400059   -2.052551
     26          6           0        1.728251    1.527386   -1.300634
     27          1           0        1.891051   -0.050344   -3.653538
     28          1           0        2.965251   -0.628397   -2.388699
     29          1           0        0.430192   -1.984046   -3.454713
     30          1           0        2.043504   -2.676385   -3.304551
     31          1           0        1.779023   -3.016895   -0.879250
     32          1           0       -0.595746   -4.506318    0.011705
     33          1           0        0.363853   -3.383543    0.992560
     34          1           0       -1.421792   -3.178216    0.863552
     35          1           0       -1.607745   -3.450411   -2.373687
     36          1           0       -2.449135   -2.408438   -1.196554
     37          1           0       -1.470250   -1.685480   -2.500662
     38          8           0        0.817729    2.364740   -0.795627
     39          8           0        2.896376    1.801841   -1.484312
     40          6           0        1.280679    3.698119   -0.422909
     41          6           0        0.060189    4.560404   -0.177940
     42          1           0        1.905195    3.592720    0.474967
     43          1           0        1.910779    4.078698   -1.236686
     44          1           0        0.387637    5.568305    0.116151
     45          1           0       -0.549416    4.644100   -1.087890
     46          1           0       -0.562250    4.143070    0.623236
 ---------------------------------------------------------------------

 SCF Done:  E(UB3LYP) =  -3531.41423591     A.U. after   19 cycles

 The electronic state is 6-A.
 Alpha  occ. eigenvalues -- -256.19960-101.51995-101.51915-101.51895 -30.19291
 Alpha  occ. eigenvalues --  -26.04605 -26.04529 -26.04461 -19.20573 -19.17248
 Alpha  occ. eigenvalues --  -19.15546 -10.33414 -10.32293 -10.29140 -10.24883
 Alpha  occ. eigenvalues --  -10.22703 -10.22254 -10.21599 -10.21126 -10.21122
 Alpha  occ. eigenvalues --  -10.21057 -10.20715 -10.20632 -10.20319 -10.20191
 Alpha  occ. eigenvalues --  -10.20136 -10.20135 -10.18487  -9.43720  -9.43635
 Alpha  occ. eigenvalues --   -9.43610  -7.19582  -7.19497  -7.19473  -7.19268
 Alpha  occ. eigenvalues --   -7.19262  -7.19179  -7.19176  -7.19157  -7.19153
 Alpha  occ. eigenvalues --   -3.67001  -2.44535  -2.44337  -2.44194  -1.12463
 Alpha  occ. eigenvalues --   -1.05816  -1.03949  -0.87981  -0.86435  -0.83847
 Alpha  occ. eigenvalues --   -0.79966  -0.79262  -0.79163  -0.78713  -0.78402
 Alpha  occ. eigenvalues --   -0.76641  -0.75034  -0.72517  -0.70904  -0.66737
 Alpha  occ. eigenvalues --   -0.64663  -0.62414  -0.61643  -0.59415  -0.57224
 Alpha  occ. eigenvalues --   -0.55885  -0.54238  -0.52817  -0.51535  -0.50891
 Alpha  occ. eigenvalues --   -0.50000  -0.49634  -0.48784  -0.47896  -0.47634
 Alpha  occ. eigenvalues --   -0.47419  -0.47242  -0.46741  -0.46319  -0.46014
 Alpha  occ. eigenvalues --   -0.44745  -0.44619  -0.43679  -0.43395  -0.42830
 Alpha  occ. eigenvalues --   -0.42484  -0.41189  -0.40847  -0.40114  -0.39937
 Alpha  occ. eigenvalues --   -0.39327  -0.38723  -0.38417  -0.37772  -0.37323
 Alpha  occ. eigenvalues --   -0.36937  -0.36850  -0.36147  -0.36004  -0.35834
 Alpha  occ. eigenvalues --   -0.34431  -0.34207  -0.33621  -0.32146  -0.31879
 Alpha  occ. eigenvalues --   -0.30907  -0.30814  -0.30547  -0.30498  -0.29909
 Alpha  occ. eigenvalues --   -0.29433  -0.29216  -0.28550  -0.27336  -0.24090
 Alpha virt. eigenvalues --   -0.11420  -0.03096  -0.02817  -0.01639  -0.01351
 Alpha virt. eigenvalues --   -0.00122  -0.00002   0.00061   0.01367   0.01629
 Alpha virt. eigenvalues --    0.01768   0.01946   0.02520   0.02975   0.03254

  Beta  occ. eigenvalues -- -256.19776-101.51817-101.51747-101.51723 -30.10407
  Beta  occ. eigenvalues --  -25.97172 -25.97113 -25.97094 -19.20573 -19.16657
  Beta  occ. eigenvalues --  -19.15544 -10.33416 -10.32318 -10.29151 -10.24883
  Beta  occ. eigenvalues --  -10.22691 -10.22238 -10.21470 -10.21129 -10.21126
  Beta  occ. eigenvalues --  -10.21064 -10.20712 -10.20630 -10.20310 -10.20188
  Beta  occ. eigenvalues --  -10.20141 -10.20133 -10.18486  -9.43545  -9.43470
  Beta  occ. eigenvalues --   -9.43442  -7.19293  -7.19212  -7.19188  -7.19028
  Beta  occ. eigenvalues --   -7.19019  -7.18957  -7.18953  -7.18929  -7.18922
  Beta  occ. eigenvalues --   -3.46265  -2.22589  -2.22502  -2.22410  -1.12461
  Beta  occ. eigenvalues --   -1.04706  -1.03946  -0.87931  -0.86264  -0.83815
  Beta  occ. eigenvalues --   -0.78851  -0.78724  -0.78350  -0.78006  -0.77974
  Beta  occ. eigenvalues --   -0.76638  -0.74969  -0.72493  -0.70734  -0.66648
  Beta  occ. eigenvalues --   -0.64623  -0.62383  -0.61603  -0.59146  -0.57055
  Beta  occ. eigenvalues --   -0.55446  -0.54166  -0.52058  -0.51523  -0.50337
  Beta  occ. eigenvalues --   -0.49770  -0.48956  -0.48351  -0.47813  -0.47063
  Beta  occ. eigenvalues --   -0.45826  -0.44931  -0.43684  -0.43377  -0.42912
  Beta  occ. eigenvalues --   -0.42412  -0.41195  -0.40818  -0.40110  -0.39949
  Beta  occ. eigenvalues --   -0.39287  -0.38705  -0.38143  -0.37768  -0.37612
  Beta  occ. eigenvalues --   -0.37173  -0.36885  -0.36149  -0.35975  -0.35829
  Beta  occ. eigenvalues --   -0.35574  -0.35505  -0.34371  -0.33117  -0.32751
  Beta  occ. eigenvalues --   -0.32297  -0.32214  -0.31914  -0.30915  -0.30337
  Beta  occ. eigenvalues --   -0.29436  -0.29313  -0.28763  -0.27338  -0.24210
  Beta virt. eigenvalues --   -0.14073  -0.13619  -0.12827  -0.12657  -0.12308
  Beta virt. eigenvalues --   -0.11075  -0.03080  -0.02688  -0.01603  -0.01244
  Beta virt. eigenvalues --   -0.00081   0.00039   0.00087   0.01440   0.01648

 Mulliken charges and spin densities:
               1          2
     1  C    0.131980  -0.000947
     2  C    2.833472  -0.008303
     3  C   -0.470407  -0.014355
     4  C    0.078199   0.006514
     5  C    0.270436  -0.002651
     6  C   -0.087114   0.002052
     7  C   -2.120986  -0.007952
     8  C    0.420707   0.013074
     9  C    0.485107   0.006169
    10  C    0.618704  -0.008688
    11  C    0.673803   0.097680
    12  C   -0.635806  -0.017032
    13  C    0.339081   0.002072
    14  O   -0.537310   0.184018
    15  Fe   0.699446   4.046317
    16  Cl  -0.553385   0.227215
    17  C    0.383471   0.000024
    18  Cl  -0.508855   0.239795
    19  Cl  -0.532837   0.229651
    20  H   -0.268281   0.001694
    21  H   -0.158737  -0.000021
    22  H   -0.154539   0.000055
    23  H   -0.155745   0.000130
    24  H   -0.242195  -0.000088
    25  H   -0.186372  -0.000667
    26  C    0.833525   0.001790
    27  H   -0.128148   0.000402
    28  H   -0.016078  -0.000007
    29  H   -0.075376   0.000535
    30  H   -0.110995   0.002275
    31  H   -0.267801  -0.002866
    32  H    0.034446   0.000686
    33  H    0.044201  -0.000058
    34  H    0.044929  -0.000193
    35  H    0.025860  -0.000351
    36  H    0.035196   0.000499
    37  H    0.074178  -0.000661
    38  O   -0.657810   0.002335
    39  O   -0.607725   0.000910
    40  C    0.436931   0.000725
    41  C    0.039765  -0.001517
    42  H   -0.035202   0.000015
    43  H   -0.037033   0.000039
    44  H   -0.008816   0.000048
    45  H    0.025525   0.000048
    46  H    0.028591  -0.000409
 Sum of Mulliken charges =  -0.00000   5.00000

 Dipole moment (field-independent basis, Debye):
    X=              9.1393    Y=             -7.6760    Z=             -3.4278  Tot=             12.4177
 Quadrupole moment (field-independent basis, Debye-Ang):
   XX=           -198.0852   YY=           -155.1362   ZZ=           -169.0079
   XY=             -0.7661   XZ=             12.0670   YZ=              6.7651

 Normal termination of Gaussian 16 at Sun Jun 20 07:46:41 2021.
