 Gaussian 16, Revision A.03,

 -----------------------------------------------------------
 #p opt=modredundant freq=noraman ub3lyp jul-cc-pvdz pop=cm5
 -----------------------------------------------------------

 -----
 title
 -----
 Symbolic Z-matrix:
 Charge =  0 Multiplicity = 6

 SCF Done:  E(UB3LYP) =  -3531.41425251     A.U. after   26 cycles
 SCF Done:  E(UB3LYP) =  -3531.41448896     A.U. after   18 cycles
 SCF Done:  E(UB3LYP) =  -3531.41154986     A.U. after   19 cycles
 SCF Done:  E(UB3LYP) =  -3531.39693164     A.U. after   20 cycles
 SCF Done:  E(UB3LYP) =  -3531.39811001     A.U. after   22 cycles
 SCF Done:  E(UB3LYP) =  -3531.41452666     A.U. after   14 cycles
 SCF Done:  E(UB3LYP) =  -3531.41466638     A.U. after   18 cycles
 SCF Done:  E(UB3LYP) =  -3531.41471305     A.U. after   15 cycles
 SCF Done:  E(UB3LYP) =  -3531.41496320     A.U. after   15 cycles
 SCF Done:  E(UB3LYP) =  -3531.41494874     A.U. after   16 cycles
 SCF Done:  E(UB3LYP) =  -3531.41502358     A.U. after    9 cycles
 SCF Done:  E(UB3LYP) =  -3531.41502358     A.U. after    8 cycles
 SCF Done:  E(UB3LYP) =  -3531.41502354     A.U. after    8 cycles
 SCF Done:  E(UB3LYP) =  -3531.41502350     A.U. after    8 cycles
 SCF Done:  E(UB3LYP) =  -3531.41502345     A.U. after    9 cycles
 SCF Done:  E(UB3LYP) =  -3531.41502339     A.U. after    9 cycles
 SCF Done:  E(UB3LYP) =  -3531.41502335     A.U. after    9 cycles
 Optimization completed.
    -- Stationary point found.
 Normal termination of Gaussian 16 at Sun Jun 20 06:11:26 2021.

 ----------------------------------------------------------------------
 #P Geom=AllCheck Guess=TCheck SCRF=Check GenChk UB3LYP/Jul-CC-pVDZ Fre
 q
 ----------------------------------------------------------------------

 Structure from the checkpoint file:  "checkpoint.chk"
 -----
 title
 -----
 Charge =  0 Multiplicity = 6

 SCF Done:  E(UB3LYP) =  -3531.41502335     A.U. after    2 cycles

  Exact polarizability: 323.177  15.129 296.977  11.398  11.098 290.458
 Approx polarizability: 499.950  32.260 448.715   3.778  24.105 483.570

 ******    2 imaginary frequencies (negative Signs) ******

                      1                      2                      3
                      A                      A                      A
 Frequencies --   -253.4191               -13.4705                 9.9557
 Red. masses --      8.6647                 6.8489                 4.9682
 Frc consts  --      0.3279                 0.0007                 0.0003
 IR Inten    --    360.8530                 0.9738                 1.4430

                      4                      5                      6
                      A                      A                      A
 Frequencies --     26.3948                35.7018                51.9912
 Red. masses --      3.6634                 7.4986                 4.5580
 Frc consts  --      0.0015                 0.0056                 0.0073
 IR Inten    --      0.3681                 0.4278                 2.7385

                      7                      8                      9
                      A                      A                      A
 Frequencies --     59.8711                65.2342                70.4678
 Red. masses --      4.6010                 3.8905                 4.5391
 Frc consts  --      0.0097                 0.0098                 0.0133
 IR Inten    --      0.3742                 2.3370                 0.1232

                     10                     11                     12
                      A                      A                      A
 Frequencies --     84.2673                91.5686                99.5149
 Red. masses --      9.5741                 6.8498                 6.8288
 Frc consts  --      0.0401                 0.0338                 0.0398
 IR Inten    --      0.4707                 1.3275                 0.4663

                     13                     14                     15
                      A                      A                      A
 Frequencies --    100.2507               108.2590               114.8824
 Red. masses --      1.3511                 3.9052                 4.6213
 Frc consts  --      0.0080                 0.0270                 0.0359
 IR Inten    --      2.0755                12.2036                 3.5399

                     16                     17                     18
                      A                      A                      A
 Frequencies --    120.3898               131.1738               132.1390
 Red. masses --     12.0721                 1.7735                 3.2197
 Frc consts  --      0.1031                 0.0180                 0.0331
 IR Inten    --      0.7814                 4.0537                 1.7273

                     19                     20                     21
                      A                      A                      A
 Frequencies --    149.8784               160.0048               165.2635
 Red. masses --      2.2719                 3.0944                 3.1463
 Frc consts  --      0.0301                 0.0467                 0.0506
 IR Inten    --      2.6551                 4.2452                 5.6181

                     22                     23                     24
                      A                      A                      A
 Frequencies --    187.6796               213.1730               224.7698
 Red. masses --      3.0986                 3.3369                 4.4059
 Frc consts  --      0.0643                 0.0893                 0.1311
 IR Inten    --      2.5390                 1.4749                14.0091

                     25                     26                     27
                      A                      A                      A
 Frequencies --    248.6149               259.9480               290.6438
 Red. masses --      2.8396                 1.9657                 4.1848
 Frc consts  --      0.1034                 0.0783                 0.2083
 IR Inten    --      2.8942                 4.0123                 2.0692

                     28                     29                     30
                      A                      A                      A
 Frequencies --    312.6407               320.0624               344.5552
 Red. masses --      2.6338                 6.9025                16.9129
 Frc consts  --      0.1517                 0.4166                 1.1830
 IR Inten    --      4.5097                 2.9430                48.4295

                     31                     32                     33
                      A                      A                      A
 Frequencies --    355.9592               368.3793               379.0981
 Red. masses --      5.7663                 4.2709                33.2827
 Frc consts  --      0.4305                 0.3415                 2.8182
 IR Inten    --     14.9310                10.9272                84.4486

                     34                     35                     36
                      A                      A                      A
 Frequencies --    389.9784               406.4831               414.5515
 Red. masses --     32.7642                 2.9686                 2.9115
 Frc consts  --      2.9358                 0.2890                 0.2948
 IR Inten    --     75.9756                 4.1799                 0.5740

                     37                     38                     39
                      A                      A                      A
 Frequencies --    439.6434               449.8655               482.4403
 Red. masses --      3.8738                 4.5972                 2.0882
 Frc consts  --      0.4412                 0.5482                 0.2864
 IR Inten    --     18.3678                17.1791                 5.9907

                     40                     41                     42
                      A                      A                      A
 Frequencies --    504.2533               533.8270               546.3265
 Red. masses --      2.8155                 3.0433                 3.4505
 Frc consts  --      0.4218                 0.5110                 0.6068
 IR Inten    --      2.4012                 2.7372                31.5749

                     43                     44                     45
                      A                      A                      A
 Frequencies --    613.3859               626.8834               647.4805
 Red. masses --      4.6892                 6.2931                 4.2698
 Frc consts  --      1.0395                 1.4571                 1.0547
 IR Inten    --     19.4084                 3.5208               129.9277

                     46                     47                     48
                      A                      A                      A
 Frequencies --    701.8854               706.4971               759.5750
 Red. masses --      2.6199                 2.4532                 3.8602
 Frc consts  --      0.7605                 0.7214                 1.3122
 IR Inten    --     12.0636                74.2607                 6.4542

                     49                     50                     51
                      A                      A                      A
 Frequencies --    766.8648               802.5045               814.1442
 Red. masses --      2.5067                 1.3454                 2.2831
 Frc consts  --      0.8685                 0.5105                 0.8916
 IR Inten    --     10.4636                11.9148                22.4801

                     52                     53                     54
                      A                      A                      A
 Frequencies --    823.7289               847.9120               866.5596
 Red. masses --      2.9450                 1.2585                 2.4274
 Frc consts  --      1.1774                 0.5331                 1.0740
 IR Inten    --     14.1281                 2.2999                14.5512

                     55                     56                     57
                      A                      A                      A
 Frequencies --    876.8923               892.5184               924.8440
 Red. masses --      1.6238                 1.8158                 2.4258
 Frc consts  --      0.7356                 0.8522                 1.2225
 IR Inten    --     16.8120                 1.9056                14.7614

                     58                     59                     60
                      A                      A                      A
 Frequencies --    938.9284               959.3319               961.8217
 Red. masses --      1.4650                 1.5076                 2.2897
 Frc consts  --      0.7609                 0.8175                 1.2480
 IR Inten    --      1.5738                 2.9333                 6.9397

                     61                     62                     63
                      A                      A                      A
 Frequencies --    986.1714               991.9267              1000.5925
 Red. masses --      1.3946                 3.2709                 1.7747
 Frc consts  --      0.7991                 1.8962                 1.0468
 IR Inten    --      1.3750                53.3733                 1.2483

                     64                     65                     66
                      A                      A                      A
 Frequencies --   1005.3187              1008.1893              1015.1658
 Red. masses --      1.9800                 2.4603                 1.3071
 Frc consts  --      1.1790                 1.4734                 0.7937
 IR Inten    --      5.2252                 2.2522                43.8538

                     67                     68                     69
                      A                      A                      A
 Frequencies --   1039.3932              1046.2403              1061.1225
 Red. masses --      2.9100                 2.3593                 2.1645
 Frc consts  --      1.8522                 1.5216                 1.4359
 IR Inten    --     39.7584                 5.8017                 3.9816

                     70                     71                     72
                      A                      A                      A
 Frequencies --   1069.7562              1091.0644              1107.5874
 Red. masses --      1.8210                 1.6053                 1.5745
 Frc consts  --      1.2278                 1.1259                 1.1380
 IR Inten    --     13.4732                19.0041                13.1990

                     73                     74                     75
                      A                      A                      A
 Frequencies --   1131.2419              1134.9719              1161.0819
 Red. masses --      2.4633                 2.2709                 1.7665
 Frc consts  --      1.8573                 1.7235                 1.4031
 IR Inten    --     12.4828                 9.7704                16.1710

                     76                     77                     78
                      A                      A                      A
 Frequencies --   1168.6046              1174.7088              1191.0806
 Red. masses --      1.5644                 1.0890                 1.9075
 Frc consts  --      1.2587                 0.8854                 1.5944
 IR Inten    --      4.2045                 0.2774                69.0031

                     79                     80                     81
                      A                      A                      A
 Frequencies --   1194.8680              1204.7159              1229.7637
 Red. masses --      1.9625                 1.4152                 1.9989
 Frc consts  --      1.6508                 1.2101                 1.7811
 IR Inten    --     54.1064                26.3853               169.0749

                     82                     83                     84
                      A                      A                      A
 Frequencies --   1262.4871              1265.5500              1284.6871
 Red. masses --      1.8779                 2.3230                 1.1181
 Frc consts  --      1.7635                 2.1921                 1.0872
 IR Inten    --    160.6171               252.3336                 7.5006

                     85                     86                     87
                      A                      A                      A
 Frequencies --   1319.3107              1324.9446              1330.1657
 Red. masses --      1.5033                 1.4215                 1.6885
 Frc consts  --      1.5417                 1.4703                 1.7602
 IR Inten    --     54.1324                22.4581                33.1858

                     88                     89                     90
                      A                      A                      A
 Frequencies --   1341.0184              1358.2557              1361.7191
 Red. masses --      1.5289                 3.3050                 1.3698
 Frc consts  --      1.6199                 3.5924                 1.4965
 IR Inten    --     92.1351                 6.1851                58.9047

                     91                     92                     93
                      A                      A                      A
 Frequencies --   1367.9115              1375.5016              1388.0544
 Red. masses --      1.3418                 1.1987                 1.5105
 Frc consts  --      1.4793                 1.3363                 1.7147
 IR Inten    --     22.3672                26.2942                67.0593

                     94                     95                     96
                      A                      A                      A
 Frequencies --   1403.9198              1417.9055              1435.3112
 Red. masses --      1.7665                 1.4476                 1.1168
 Frc consts  --      2.0514                 1.7147                 1.3555
 IR Inten    --    104.3483                 2.2885                 9.5647

                     97                     98                     99
                      A                      A                      A
 Frequencies --   1442.9203              1469.1642              1473.2054
 Red. masses --      1.0560                 2.1326                 1.0386
 Frc consts  --      1.2953                 2.7121                 1.3280
 IR Inten    --      6.1412                19.5727                 6.3089

                    100                    101                    102
                      A                      A                      A
 Frequencies --   1478.1425              1479.0003              1485.6933
 Red. masses --      1.1805                 1.1159                 1.0530
 Frc consts  --      1.5197                 1.4382                 1.3695
 IR Inten    --     24.5149                14.6877                 6.6754

                    103                    104                    105
                      A                      A                      A
 Frequencies --   1489.3876              1499.1764              1506.4297
 Red. masses --      1.1445                 1.1310                 1.0863
 Frc consts  --      1.4958                 1.4977                 1.4525
 IR Inten    --     24.8808                 9.6697                 8.2686

                    106                    107                    108
                      A                      A                      A
 Frequencies --   1514.6415              1578.1459              1619.9842
 Red. masses --      2.0655                 3.4833                 5.6772
 Frc consts  --      2.7918                 5.1114                 8.7782
 IR Inten    --      3.0130               125.3291                 0.7576

                    109                    110                    111
                      A                      A                      A
 Frequencies --   1639.4955              1761.6350              3002.2887
 Red. masses --      5.6726                11.7027                 1.0484
 Frc consts  --      8.9836                21.3977                 5.5678
 IR Inten    --      8.4782               228.1365                10.7085

                    112                    113                    114
                      A                      A                      A
 Frequencies --   3012.0624              3042.1975              3051.9696
 Red. masses --      1.0484                 1.0362                 1.0638
 Frc consts  --      5.6039                 5.6505                 5.8382
 IR Inten    --      3.0930                16.8223                19.7783

                    115                    116                    117
                      A                      A                      A
 Frequencies --   3057.9994              3064.3917              3076.5049
 Red. masses --      1.0588                 1.0636                 1.0833
 Frc consts  --      5.8339                 5.8844                 6.0408
 IR Inten    --     16.7368                20.3038                 5.0787

                    118                    119                    120
                      A                      A                      A
 Frequencies --   3078.2747              3085.2414              3103.7094
 Red. masses --      1.0855                 1.0873                 1.1018
 Frc consts  --      6.0604                 6.0980                 6.2531
 IR Inten    --     12.7045                 5.3841                 8.2436

                    121                    122                    123
                      A                      A                      A
 Frequencies --   3105.2642              3117.9061              3118.2927
 Red. masses --      1.1068                 1.1013                 1.1029
 Frc consts  --      6.2883                 6.3078                 6.3188
 IR Inten    --      9.4016                17.6022                14.5415

                    124                    125                    126
                      A                      A                      A
 Frequencies --   3138.8553              3155.7424              3162.5591
 Red. masses --      1.1042                 1.1006                 1.0883
 Frc consts  --      6.4096                 6.4580                 6.4134
 IR Inten    --     17.6157                 3.2941                 9.4309

                    127                    128                    129
                      A                      A                      A
 Frequencies --   3171.5734              3174.5734              3182.7599
 Red. masses --      1.0855                 1.0984                 1.0900
 Frc consts  --      6.4331                 6.5219                 6.5057
 IR Inten    --      0.1197                 7.2173                 6.6821

                    130                    131                    132
                      A                      A                      A
 Frequencies --   3193.2352              3203.6280              3221.6934
 Red. masses --      1.0951                 1.0950                 1.0924
 Frc consts  --      6.5789                 6.6211                 6.6806
 IR Inten    --     14.3961                 4.1926                 3.2081

 - Thermochemistry -
 -------------------
 Temperature   298.150 Kelvin.  Pressure   1.00000 Atm.
 Atom     1 has atomic number  6 and mass  12.00000

 Molecular mass:   434.99839 amu.
 Principal axes and moments of inertia in atomic units:
                           1         2         3
     Eigenvalues --  8929.92115********************
           X            0.99791   0.06185   0.01879
           Y           -0.06212   0.99797   0.01412
           Z           -0.01788  -0.01525   0.99972
 This molecule is an asymmetric top.
 Rotational symmetry number  1.
 Warning -- assumption of classical behavior for rotation
           may cause significant error
 Rotational temperatures (Kelvin)      0.00970     0.00778     0.00666
 Rotational constants (GHZ):           0.20210     0.16212     0.13886
    2 imaginary frequencies ignored.
 Zero-point vibrational energy     940204.5 (Joules/Mol)
                                  224.71426 (Kcal/Mol)
 Warning -- explicit consideration of  41 degrees of freedom as
           vibrations may cause significant error
 Vibrational temperatures:     14.32    37.98    51.37    74.80    86.14
          (Kelvin)             93.86   101.39   121.24   131.75   143.18
                              144.24   155.76   165.29   173.21   188.73
                              190.12   215.64   230.21   237.78   270.03
                              306.71   323.39   357.70   374.01   418.17
                              449.82   460.50   495.74   512.15   530.02
                              545.44   561.09   584.84   596.45   632.55
                              647.26   694.12   725.51   768.06   786.04
                              882.53   901.95   931.58  1009.86  1016.49
                             1092.86  1103.35  1154.63  1171.37  1185.16
                             1219.96  1246.79  1261.65  1284.13  1330.64
                             1350.91  1380.26  1383.85  1418.88  1427.16
                             1439.63  1446.43  1450.56  1460.60  1495.45
                             1505.31  1526.72  1539.14  1569.80  1593.57
                             1627.60  1632.97  1670.54  1681.36  1690.14
                             1713.70  1719.15  1733.32  1769.36  1816.44
                             1820.84  1848.38  1898.19  1906.30  1913.81
                             1929.43  1954.23  1959.21  1968.12  1979.04
                             1997.10  2019.93  2040.05  2065.09  2076.04
                             2113.80  2119.61  2126.72  2127.95  2137.58
                             2142.90  2156.98  2167.42  2179.23  2270.60
                             2330.80  2358.87  2534.60  4319.62  4333.69
                             4377.04  4391.10  4399.78  4408.98  4426.40
                             4428.95  4438.97  4465.55  4467.78  4485.97
                             4486.53  4516.11  4540.41  4550.22  4563.19
                             4567.50  4579.28  4594.35  4609.31  4635.30

 Zero-point correction=                           0.358105 (Hartree/Particle)
 Thermal correction to Energy=                    0.384975
 Thermal correction to Enthalpy=                  0.385920
 Thermal correction to Gibbs Free Energy=         0.296189
 Sum of electronic and zero-point Energies=          -3531.056918
 Sum of electronic and thermal Energies=             -3531.030048
 Sum of electronic and thermal Enthalpies=           -3531.029104
 Sum of electronic and thermal Free Energies=        -3531.118835

                     E (Thermal)             CV                S
                      KCal/Mol        Cal/Mol-Kelvin    Cal/Mol-Kelvin
 Total                  241.576             95.885            188.854
 Electronic               0.000              0.000              3.561
 Translational            0.889              2.981             44.100
 Rotational               0.889              2.981             35.512
 Vibrational            239.798             89.923            105.682
 Vibration     1          0.593              1.987              8.020
 Vibration     2          0.593              1.985              6.083
 Vibration     3          0.594              1.982              5.484
 Vibration     4          0.596              1.977              4.740
 Vibration     5          0.597              1.973              4.461
 Vibration     6          0.597              1.971              4.292
 Vibration     7          0.598              1.968              4.140
 Vibration     8          0.601              1.960              3.789
 Vibration     9          0.602              1.955              3.626
 Vibration    10          0.604              1.949              3.464
 Vibration    11          0.604              1.949              3.449
 Vibration    12          0.606              1.943              3.300
 Vibration    13          0.608              1.937              3.185
 Vibration    14          0.609              1.932              3.094
 Vibration    15          0.612              1.922              2.929
 Vibration    16          0.612              1.921              2.915
 Vibration    17          0.618              1.903              2.674
 Vibration    18          0.622              1.891              2.550
 Vibration    19          0.624              1.885              2.489
 Vibration    20          0.632              1.857              2.251
 Vibration    21          0.644              1.821              2.016
 Vibration    22          0.649              1.803              1.920
 Vibration    23          0.662              1.765              1.740
 Vibration    24          0.668              1.746              1.662
 Vibration    25          0.687              1.691              1.470
 Vibration    26          0.701              1.650              1.348
 Vibration    27          0.706              1.635              1.310
 Vibration    28          0.723              1.586              1.191
 Vibration    29          0.731              1.563              1.140
 Vibration    30          0.741              1.537              1.087
 Vibration    31          0.749              1.515              1.043
 Vibration    32          0.758              1.492              1.000
 Vibration    33          0.771              1.456              0.939
 Vibration    34          0.778              1.439              0.911
 Vibration    35          0.800              1.384              0.828
 Vibration    36          0.809              1.361              0.796
 Vibration    37          0.839              1.289              0.704
 Vibration    38          0.860              1.241              0.648
 Vibration    39          0.889              1.175              0.579
 Vibration    40          0.902              1.148              0.552
 Vibration    41          0.973              1.004              0.427

                           ! Non-Optimized Parameters !
 Normal termination of Gaussian 16 at Sun Jun 20 09:58:27 2021.

 ----------------------------------------------------------------------
 #p ub3lyp jul-cc-pvdz pop=cm5 scrf=(pcm,solvent=dichloroethane) guess=
 read geom=allcheck
 ----------------------------------------------------------------------

 Structure from the checkpoint file:  "checkpoint.chk"
 -----
 title
 -----
 Charge =  0 Multiplicity = 6

 SCF Done:  E(UB3LYP) =  -3531.43899952     A.U. after   18 cycles
 Normal termination of Gaussian 16 at Sun Jun 20 10:19:12 2021.
 Gaussian 16:  ES64L-G16RevA.03 25-Dec-2016

 ----------------------------------------------------------------------
 #p ub3lyp jul-cc-pvdz pop=cm5 scrf=(pcm,solvent=water) guess=read geom
 =allcheck
 ----------------------------------------------------------------------

 Structure from the checkpoint file:  "checkpoint.chk"
 -----
 title
 -----
 Charge =  0 Multiplicity = 6

                         Standard orientation:
 ---------------------------------------------------------------------
 Center     Atomic      Atomic             Coordinates (Angstroms)
 Number     Number       Type             X           Y           Z
 ---------------------------------------------------------------------
      1          6           0        3.009612   -1.098422    0.377440
      2          6           0        1.661759   -0.829882    0.682797
      3          6           0        1.315402   -0.547570    2.014471
      4          6           0        2.288776   -0.548280    3.018018
      5          6           0        3.620341   -0.830355    2.706541
      6          6           0        3.978371   -1.099880    1.379230
      7          6           0        0.582042   -0.790318   -0.380907
      8          6           0        0.901223    0.009084   -1.710430
      9          6           0        1.332021   -0.927320   -2.840878
     10          6           0        0.492745   -2.191419   -2.646530
     11          6           0        0.612805   -2.517891   -1.171193
     12          6           0       -0.412090   -3.040983   -0.379762
     13          6           0       -1.839185   -3.021620   -0.771803
     14          8           0       -0.633336   -0.597380    0.099667
     15         26           0       -2.105523    0.598633    0.323867
     16         17           0       -2.685492    1.290856   -1.709046
     17          6           0       -0.111232   -3.588201    0.967949
     18         17           0       -1.534694    2.226392    1.707184
     19         17           0       -3.693007   -0.656943    1.262727
     20          1           0        0.285904   -0.291944    2.254745
     21          1           0        2.001073   -0.317707    4.044553
     22          1           0        4.380461   -0.830689    3.489303
     23          1           0        5.018648   -1.303920    1.122648
     24          1           0        3.317662   -1.290677   -0.649192
     25          1           0       -0.063142    0.466869   -1.964842
     26          6           0        1.896783    1.147040   -1.489802
     27          1           0        1.169963   -0.460149   -3.820575
     28          1           0        2.405229   -1.147256   -2.765414
     29          1           0       -0.548024   -2.002814   -2.935815
     30          1           0        0.858250   -3.030436   -3.255826
     31          1           0        1.612587   -2.843338   -0.882313
     32          1           0        0.950317   -3.799791    1.126314
     33          1           0       -0.442856   -2.841609    1.711839
     34          1           0       -0.711482   -4.490000    1.157028
     35          1           0       -2.113406   -4.059246   -1.038135
     36          1           0       -2.476729   -2.731671    0.075174
     37          1           0       -2.057282   -2.380252   -1.628559
     38          8           0        1.333717    2.153382   -0.812221
     39          8           0        3.039832    1.146494   -1.900267
     40          6           0        2.178140    3.310342   -0.539668
     41          6           0        1.304431    4.388046    0.067068
     42          1           0        2.979384    2.988263    0.139884
     43          1           0        2.639826    3.624923   -1.484654
     44          1           0        1.925240    5.266198    0.297300
     45          1           0        0.514925    4.693514   -0.632721
     46          1           0        0.827993    4.037907    0.991332
 ---------------------------------------------------------------------

 SCF Done:  E(UB3LYP) =  -3531.44345372     A.U. after   16 cycles

 The electronic state is 6-A.
 Alpha  occ. eigenvalues -- -256.20226-101.52024-101.51899-101.51806 -30.19637
 Alpha  occ. eigenvalues --  -26.04947 -26.04875 -26.04777 -19.20464 -19.16279
 Alpha  occ. eigenvalues --  -19.15381 -10.33113 -10.31897 -10.28501 -10.24848
 Alpha  occ. eigenvalues --  -10.22409 -10.22237 -10.21743 -10.20925 -10.20792
 Alpha  occ. eigenvalues --  -10.20652 -10.20588 -10.20554 -10.20507 -10.20409
 Alpha  occ. eigenvalues --  -10.20372 -10.20013 -10.18519  -9.43741  -9.43636
 Alpha  occ. eigenvalues --   -9.43535  -7.19605  -7.19501  -7.19405  -7.19291
 Alpha  occ. eigenvalues --   -7.19280  -7.19184  -7.19171  -7.19081  -7.19065
 Alpha  occ. eigenvalues --   -3.67331  -2.44858  -2.44662  -2.44504  -1.12322
 Alpha  occ. eigenvalues --   -1.05794  -1.03759  -0.88263  -0.87197  -0.83938
 Alpha  occ. eigenvalues --   -0.79946  -0.79257  -0.79122  -0.78887  -0.77982
 Alpha  occ. eigenvalues --   -0.76284  -0.75217  -0.73029  -0.71299  -0.66463
 Alpha  occ. eigenvalues --   -0.64444  -0.62233  -0.61568  -0.59471  -0.57243
 Alpha  occ. eigenvalues --   -0.56388  -0.54514  -0.52855  -0.51482  -0.50741
 Alpha  occ. eigenvalues --   -0.50052  -0.49286  -0.48863  -0.47992  -0.47851
 Alpha  occ. eigenvalues --   -0.47551  -0.47360  -0.46784  -0.46695  -0.46010
 Alpha  occ. eigenvalues --   -0.44803  -0.44554  -0.43975  -0.43354  -0.42686
 Alpha  occ. eigenvalues --   -0.42396  -0.41571  -0.40741  -0.40491  -0.40017
 Alpha  occ. eigenvalues --   -0.39895  -0.38748  -0.38021  -0.37470  -0.37356
 Alpha  occ. eigenvalues --   -0.37132  -0.36746  -0.36170  -0.35896  -0.35725
 Alpha  occ. eigenvalues --   -0.34864  -0.34260  -0.33762  -0.31972  -0.31808
 Alpha  occ. eigenvalues --   -0.30864  -0.30782  -0.30559  -0.30081  -0.29796
 Alpha  occ. eigenvalues --   -0.29503  -0.28802  -0.28301  -0.27068  -0.26228
 Alpha virt. eigenvalues --   -0.12056  -0.03403  -0.02951  -0.01540  -0.01198
 Alpha virt. eigenvalues --   -0.00178  -0.00027   0.00009   0.01457   0.01593
 Alpha virt. eigenvalues --    0.01835   0.01985   0.02427   0.03575   0.03660

  Beta  occ. eigenvalues -- -256.20042-101.51851-101.51722-101.51639 -30.10687
  Beta  occ. eigenvalues --  -25.97448 -25.97403 -25.97369 -19.20464 -19.15649
  Beta  occ. eigenvalues --  -19.15378 -10.33113 -10.31896 -10.28474 -10.24848
  Beta  occ. eigenvalues --  -10.22372 -10.22222 -10.21721 -10.20927 -10.20793
  Beta  occ. eigenvalues --  -10.20654 -10.20589 -10.20558 -10.20504 -10.20411
  Beta  occ. eigenvalues --  -10.20371 -10.20011 -10.18518  -9.43571  -9.43462
  Beta  occ. eigenvalues --   -9.43371  -7.19314  -7.19208  -7.19115  -7.19060
  Beta  occ. eigenvalues --   -7.19054  -7.18946  -7.18934  -7.18859  -7.18853
  Beta  occ. eigenvalues --   -3.46466  -2.22763  -2.22694  -2.22603  -1.12319
  Beta  occ. eigenvalues --   -1.04577  -1.03756  -0.88122  -0.87168  -0.83888
  Beta  occ. eigenvalues --   -0.78893  -0.78833  -0.78048  -0.77956  -0.77853
  Beta  occ. eigenvalues --   -0.76279  -0.75185  -0.73017  -0.71189  -0.66313
  Beta  occ. eigenvalues --   -0.64363  -0.62191  -0.61517  -0.59141  -0.57014
  Beta  occ. eigenvalues --   -0.55988  -0.54389  -0.51891  -0.51456  -0.50457
  Beta  occ. eigenvalues --   -0.50023  -0.48596  -0.48435  -0.47861  -0.46945
  Beta  occ. eigenvalues --   -0.45867  -0.44738  -0.43963  -0.43401  -0.42685
  Beta  occ. eigenvalues --   -0.42370  -0.41581  -0.40746  -0.40429  -0.40031
  Beta  occ. eigenvalues --   -0.39905  -0.38688  -0.37926  -0.37732  -0.37342
  Beta  occ. eigenvalues --   -0.37148  -0.36881  -0.36171  -0.35923  -0.35846
  Beta  occ. eigenvalues --   -0.35541  -0.35492  -0.34794  -0.32974  -0.32865
  Beta  occ. eigenvalues --   -0.32339  -0.32049  -0.31872  -0.31338  -0.29989
  Beta  occ. eigenvalues --   -0.29419  -0.28818  -0.28336  -0.27068  -0.26204
  Beta virt. eigenvalues --   -0.14099  -0.13769  -0.13053  -0.12711  -0.12262
  Beta virt. eigenvalues --   -0.11169  -0.03351  -0.02938  -0.01446  -0.01158
  Beta virt. eigenvalues --   -0.00136   0.00002   0.00040   0.01471   0.01615

 Mulliken charges and spin densities:
               1          2
     1  C   -0.012638  -0.000994
     2  C    2.837021   0.006144
     3  C   -0.545454  -0.011833
     4  C    0.062479   0.005738
     5  C    0.250104  -0.002314
     6  C   -0.059312   0.002674
     7  C   -2.482586   0.005438
     8  C    0.569915   0.005875
     9  C    0.603705   0.001387
    10  C    0.734722   0.000308
    11  C    0.616344   0.016761
    12  C   -0.354006   0.015964
    13  C    0.247382   0.000848
    14  O   -0.380636   0.190465
    15  Fe   0.594706   4.059784
    16  Cl  -0.527332   0.228157
    17  C    0.356661  -0.000391
    18  Cl  -0.485569   0.242416
    19  Cl  -0.512735   0.228335
    20  H   -0.217400   0.002614
    21  H   -0.158442  -0.000010
    22  H   -0.159475   0.000035
    23  H   -0.158225   0.000176
    24  H   -0.200522  -0.000081
    25  H   -0.219050   0.000196
    26  C    0.854303  -0.003696
    27  H   -0.161830   0.000362
    28  H   -0.043310  -0.000099
    29  H   -0.092575  -0.000031
    30  H   -0.131330   0.000798
    31  H   -0.212622  -0.000713
    32  H    0.008375   0.000101
    33  H    0.123474   0.000742
    34  H   -0.006782   0.000444
    35  H    0.039900   0.000357
    36  H    0.087860   0.000978
    37  H    0.045056  -0.000057
    38  O   -0.702444   0.001847
    39  O   -0.654736   0.001130
    40  C    0.424977   0.000908
    41  C    0.053628  -0.000641
    42  H   -0.030924   0.000030
    43  H   -0.037321   0.000027
    44  H   -0.008311   0.000023
    45  H    0.021023   0.000051
    46  H    0.023928  -0.000251
 Sum of Mulliken charges =  -0.00000   5.00000

 Dipole moment (field-independent basis, Debye):
    X=              8.6505    Y=            -10.7887    Z=             -1.7437  Tot=             13.9380
 Quadrupole moment (field-independent basis, Debye-Ang):
   XX=           -200.6542   YY=           -147.9846   ZZ=           -173.9295
   XY=              9.1149   XZ=             13.3974   YZ=              4.4058

 Normal termination of Gaussian 16 at Sun Jun 20 10:37:30 2021.
