 Gaussian 16, Revision A.03,

 -----------------------------------------------------------
 #p opt=modredundant freq=noraman ub3lyp jul-cc-pvdz pop=cm5
 -----------------------------------------------------------

 -----
 title
 -----
 Symbolic Z-matrix:
 Charge =  0 Multiplicity = 6

 SCF Done:  E(UB3LYP) =  -3531.41730142     A.U. after   26 cycles
 SCF Done:  E(UB3LYP) =  -3531.41699899     A.U. after   19 cycles
 SCF Done:  E(UB3LYP) =  -3531.41409463     A.U. after   19 cycles
 SCF Done:  E(UB3LYP) =  -3531.41287871     A.U. after   17 cycles
 SCF Done:  E(UB3LYP) =  -3531.41748648     A.U. after   13 cycles
 SCF Done:  E(UB3LYP) =  -3531.41734661     A.U. after   18 cycles
 SCF Done:  E(UB3LYP) =  -3531.41767685     A.U. after   17 cycles
 SCF Done:  E(UB3LYP) =  -3531.41784786     A.U. after   16 cycles
 SCF Done:  E(UB3LYP) =  -3531.41793802     A.U. after   15 cycles
 SCF Done:  E(UB3LYP) =  -3531.41791721     A.U. after   16 cycles
 SCF Done:  E(UB3LYP) =  -3531.41796883     A.U. after   13 cycles
 SCF Done:  E(UB3LYP) =  -3531.41797064     A.U. after   11 cycles
 SCF Done:  E(UB3LYP) =  -3531.41797130     A.U. after   11 cycles
 SCF Done:  E(UB3LYP) =  -3531.41797136     A.U. after   11 cycles
 SCF Done:  E(UB3LYP) =  -3531.41797135     A.U. after   12 cycles
 SCF Done:  E(UB3LYP) =  -3531.41797129     A.U. after   11 cycles
 SCF Done:  E(UB3LYP) =  -3531.41797118     A.U. after   11 cycles
 Optimization completed.
    -- Stationary point found.
 Normal termination of Gaussian 16 at Sun Jun 20 04:50:19 2021.

 ----------------------------------------------------------------------
 #P Geom=AllCheck Guess=TCheck SCRF=Check GenChk UB3LYP/Jul-CC-pVDZ Fre
 q
 ----------------------------------------------------------------------

 Structure from the checkpoint file:  "checkpoint.chk"
 -----
 title
 -----
 Charge =  0 Multiplicity = 6

 SCF Done:  E(UB3LYP) =  -3531.41797118     A.U. after    2 cycles

  Exact polarizability: 320.133  14.594 300.887  10.001   8.705 289.442
 Approx polarizability: 495.374  29.684 455.261  -0.517  18.021 482.324

 ******    1 imaginary frequencies (negative Signs) ******

                      1                      2                      3
                      A                      A                      A
 Frequencies --   -215.0212                 8.2161                15.3409
 Red. masses --      8.0602                12.3763                 3.8124
 Frc consts  --      0.2196                 0.0005                 0.0005
 IR Inten    --    337.8867                 0.2280                 1.8752

                      4                      5                      6
                      A                      A                      A
 Frequencies --     29.1946                41.3463                47.3922
 Red. masses --      3.8036                 6.5249                 5.8369
 Frc consts  --      0.0019                 0.0066                 0.0077
 IR Inten    --      0.6930                 0.5784                 3.7575

                      7                      8                      9
                      A                      A                      A
 Frequencies --     60.0604                71.1543                72.7432
 Red. masses --      3.5583                 4.2333                 4.8332
 Frc consts  --      0.0076                 0.0126                 0.0151
 IR Inten    --      0.1708                 2.1750                 0.1421

                     10                     11                     12
                      A                      A                      A
 Frequencies --     84.9804                91.9859                97.8805
 Red. masses --      8.7195                 4.9707                 5.0403
 Frc consts  --      0.0371                 0.0248                 0.0285
 IR Inten    --      0.4018                 1.0238                 1.5230

                     13                     14                     15
                      A                      A                      A
 Frequencies --    100.0891               111.2642               115.3841
 Red. masses --      2.4444                 5.6439                 4.9732
 Frc consts  --      0.0144                 0.0412                 0.0390
 IR Inten    --      0.9085                14.9432                 6.2466

                     16                     17                     18
                      A                      A                      A
 Frequencies --    121.5503               128.1750               142.8463
 Red. masses --      3.2864                 4.5053                 1.8787
 Frc consts  --      0.0286                 0.0436                 0.0226
 IR Inten    --      1.2157                 0.9197                 5.7212

                     19                     20                     21
                      A                      A                      A
 Frequencies --    152.9430               158.4971               185.5443
 Red. masses --      3.3646                 2.1302                 2.2809
 Frc consts  --      0.0464                 0.0315                 0.0463
 IR Inten    --      1.2282                 3.3060                 4.1768

                     22                     23                     24
                      A                      A                      A
 Frequencies --    193.9960               215.2386               225.6262
 Red. masses --      2.6897                 3.6032                 3.2735
 Frc consts  --      0.0596                 0.0983                 0.0982
 IR Inten    --      3.7456                 2.6480                11.4425

                     25                     26                     27
                      A                      A                      A
 Frequencies --    250.7997               259.3067               284.1800
 Red. masses --      3.0176                 1.9166                 3.2791
 Frc consts  --      0.1118                 0.0759                 0.1560
 IR Inten    --      2.9184                 3.6125                 0.7194

                     28                     29                     30
                      A                      A                      A
 Frequencies --    300.5606               327.2400               345.5214
 Red. masses --      3.1469                 6.7744                12.5506
 Frc consts  --      0.1675                 0.4274                 0.8828
 IR Inten    --      6.3749                 2.3375                46.4535

                     31                     32                     33
                      A                      A                      A
 Frequencies --    356.8337               369.5391               382.3922
 Red. masses --      4.8346                 4.8560                33.7364
 Frc consts  --      0.3627                 0.3907                 2.9065
 IR Inten    --     16.7501                12.5749                84.4133

                     34                     35                     36
                      A                      A                      A
 Frequencies --    391.2736               403.6999               416.3619
 Red. masses --     32.7966                 2.9624                 2.9323
 Frc consts  --      2.9583                 0.2845                 0.2995
 IR Inten    --     76.4572                 1.6140                 0.3495

                     37                     38                     39
                      A                      A                      A
 Frequencies --    437.3554               452.2438               477.9175
 Red. masses --      3.7056                 4.9507                 2.0679
 Frc consts  --      0.4176                 0.5966                 0.2783
 IR Inten    --     21.7154                15.4407                 2.7103

                     40                     41                     42
                      A                      A                      A
 Frequencies --    504.5759               537.1260               540.6835
 Red. masses --      2.7514                 3.2155                 3.5727
 Frc consts  --      0.4127                 0.5466                 0.6154
 IR Inten    --      4.2245                14.6331                13.7342

                     43                     44                     45
                      A                      A                      A
 Frequencies --    609.5804               626.8143               651.3030
 Red. masses --      4.8917                 6.3581                 4.3485
 Frc consts  --      1.0710                 1.4718                 1.0868
 IR Inten    --     20.9560                 2.2821               127.4094

                     46                     47                     48
                      A                      A                      A
 Frequencies --    699.3729               706.8429               759.8968
 Red. masses --      5.2249                 1.6628                 3.8573
 Frc consts  --      1.5057                 0.4895                 1.3123
 IR Inten    --      9.0574                85.0499                11.4661

                     49                     50                     51
                      A                      A                      A
 Frequencies --    768.8330               802.6928               815.2603
 Red. masses --      2.4420                 1.3187                 2.9192
 Frc consts  --      0.8505                 0.5006                 1.1432
 IR Inten    --      6.5238                 9.7308                29.9809

                     52                     53                     54
                      A                      A                      A
 Frequencies --    826.3097               849.8034               859.9237
 Red. masses --      2.1705                 1.2510                 1.6878
 Frc consts  --      0.8732                 0.5323                 0.7354
 IR Inten    --      7.5171                 1.9266                 4.8127

                     55                     56                     57
                      A                      A                      A
 Frequencies --    869.8522               898.0886               923.5703
 Red. masses --      2.4377                 1.7779                 2.4756
 Frc consts  --      1.0867                 0.8449                 1.2441
 IR Inten    --     14.1354                 3.6148                12.5724

                     58                     59                     60
                      A                      A                      A
 Frequencies --    936.6042               960.1034               977.7632
 Red. masses --      1.4478                 2.4785                 1.4215
 Frc consts  --      0.7483                 1.3461                 0.8007
 IR Inten    --      4.9861                14.8936                 1.5238

                     61                     62                     63
                      A                      A                      A
 Frequencies --    986.8456               991.4520              1000.6060
 Red. masses --      1.3781                 2.3278                 1.7576
 Frc consts  --      0.7907                 1.3482                 1.0368
 IR Inten    --      9.9708                79.1064                 1.9952

                     64                     65                     66
                      A                      A                      A
 Frequencies --   1002.8711              1008.4020              1009.0597
 Red. masses --      1.9544                 1.7085                 2.4121
 Frc consts  --      1.1581                 1.0236                 1.4470
 IR Inten    --     12.5459                 8.8802                 8.9748

                     67                     68                     69
                      A                      A                      A
 Frequencies --   1039.7288              1047.3848              1059.4163
 Red. masses --      2.9726                 2.2987                 2.0674
 Frc consts  --      1.8933                 1.4857                 1.3671
 IR Inten    --     36.5844                10.3331                 5.3695

                     70                     71                     72
                      A                      A                      A
 Frequencies --   1073.8458              1099.8519              1107.7548
 Red. masses --      1.8752                 1.6690                 1.5895
 Frc consts  --      1.2740                 1.1895                 1.1492
 IR Inten    --      5.5782                10.5069                12.0655

                     73                     74                     75
                      A                      A                      A
 Frequencies --   1132.2148              1135.3102              1162.2372
 Red. masses --      2.3819                 2.3582                 1.7296
 Frc consts  --      1.7990                 1.7909                 1.3765
 IR Inten    --      9.5524                12.5001                16.1286

                     76                     77                     78
                      A                      A                      A
 Frequencies --   1168.2365              1174.4721              1194.8878
 Red. masses --      1.5610                 1.0878                 2.2593
 Frc consts  --      1.2552                 0.8841                 1.9005
 IR Inten    --      2.2352                 0.2747                22.7630

                     79                     80                     81
                      A                      A                      A
 Frequencies --   1197.0688              1205.0843              1229.6444
 Red. masses --      1.5924                 1.4480                 2.0825
 Frc consts  --      1.3444                 1.2389                 1.8552
 IR Inten    --     86.4637                22.4422               176.8928

                     82                     83                     84
                      A                      A                      A
 Frequencies --   1263.1612              1272.0215              1283.5934
 Red. masses --      1.7552                 2.2727                 1.1318
 Frc consts  --      1.6500                 2.1666                 1.0987
 IR Inten    --     65.8573               298.9417                13.5184

                     85                     86                     87
                      A                      A                      A
 Frequencies --   1317.4718              1325.1708              1330.9188
 Red. masses --      1.4608                 1.4136                 1.7221
 Frc consts  --      1.4939                 1.4626                 1.7973
 IR Inten    --     30.9390                35.6870                32.5905

                     88                     89                     90
                      A                      A                      A
 Frequencies --   1339.0445              1356.2711              1359.3371
 Red. masses --      1.3447                 1.7276                 2.7618
 Frc consts  --      1.4206                 1.8724                 3.0067
 IR Inten    --     86.3381                26.7474                19.7349

                     91                     92                     93
                      A                      A                      A
 Frequencies --   1365.8564              1370.8923              1387.4334
 Red. masses --      1.4232                 1.2510                 1.5185
 Frc consts  --      1.5643                 1.3852                 1.7222
 IR Inten    --     40.3610                60.1311                45.9953

                     94                     95                     96
                      A                      A                      A
 Frequencies --   1398.5589              1417.7843              1422.2951
 Red. masses --      1.7337                 1.4460                 1.0676
 Frc consts  --      1.9979                 1.7126                 1.2724
 IR Inten    --     89.0034                 3.5046                 2.5641

                     97                     98                     99
                      A                      A                      A
 Frequencies --   1457.6792              1463.9655              1472.0482
 Red. masses --      1.0644                 1.2907                 1.8471
 Frc consts  --      1.3325                 1.6299                 2.3582
 IR Inten    --      4.9457                26.1521                31.1622

                    100                    101                    102
                      A                      A                      A
 Frequencies --   1473.7089              1479.2172              1484.7783
 Red. masses --      1.0386                 1.0911                 1.0524
 Frc consts  --      1.3290                 1.4067                 1.3669
 IR Inten    --      6.4542                 8.3023                 6.7255

                    103                    104                    105
                      A                      A                      A
 Frequencies --   1495.3037              1501.8176              1506.3271
 Red. masses --      1.1477                 1.1687                 1.0873
 Frc consts  --      1.5119                 1.5530                 1.4536
 IR Inten    --      9.0474                 2.4925                 8.4108

                    106                    107                    108
                      A                      A                      A
 Frequencies --   1515.7173              1576.6642              1621.4097
 Red. masses --      2.1024                 3.7036                 5.7013
 Frc consts  --      2.8458                 5.4244                 8.8310
 IR Inten    --      3.2039               124.9473                 0.5081

                    109                    110                    111
                      A                      A                      A
 Frequencies --   1639.7850              1762.9048              2943.3493
 Red. masses --      5.6682                11.8100                 1.0586
 Frc consts  --      8.9798                21.6252                 5.4035
 IR Inten    --      5.0242               234.5871               141.8327

                    112                    113                    114
                      A                      A                      A
 Frequencies --   3019.2704              3041.9269              3048.5434
 Red. masses --      1.0405                 1.0360                 1.0622
 Frc consts  --      5.5883                 5.6482                 5.8160
 IR Inten    --      1.0265                14.9968                19.1811

                    115                    116                    117
                      A                      A                      A
 Frequencies --   3057.4081              3060.0669              3072.0281
 Red. masses --      1.0586                 1.0648                 1.0954
 Frc consts  --      5.8304                 5.8744                 6.0906
 IR Inten    --     16.6670                20.1236                 0.2285

                    118                    119                    120
                      A                      A                      A
 Frequencies --   3075.0551              3090.8737              3101.0345
 Red. masses --      1.0826                 1.0723                 1.1003
 Frc consts  --      6.0312                 6.0354                 6.2341
 IR Inten    --     10.5398                 7.2866                15.6336

                    121                    122                    123
                      A                      A                      A
 Frequencies --   3104.3759              3115.6097              3118.2900
 Red. masses --      1.1073                 1.1037                 1.1009
 Frc consts  --      6.2873                 6.3124                 6.3070
 IR Inten    --      7.3362                11.5924                21.7055

                    124                    125                    126
                      A                      A                      A
 Frequencies --   3136.1527              3151.7421              3156.3991
 Red. masses --      1.1047                 1.0877                 1.1031
 Frc consts  --      6.4018                 6.3659                 6.4750
 IR Inten    --     19.9317                 2.5794                 6.0697

                    127                    128                    129
                      A                      A                      A
 Frequencies --   3158.6314              3171.0701              3181.8647
 Red. masses --      1.0994                 1.0854                 1.0897
 Frc consts  --      6.4627                 6.4307                 6.5000
 IR Inten    --      6.7328                 0.0960                 6.6359

                    130                    131                    132
                      A                      A                      A
 Frequencies --   3191.9151              3199.9834              3223.7116
 Red. masses --      1.0941                 1.0965                 1.0924
 Frc consts  --      6.5678                 6.6155                 6.6887
 IR Inten    --     13.4184                 5.6420                 3.3373

 - Thermochemistry -
 -------------------
 Temperature   298.150 Kelvin.  Pressure   1.00000 Atm.
 Atom     1 has atomic number  6 and mass  12.00000

 Molecular mass:   434.99839 amu.
 Principal axes and moments of inertia in atomic units:
                           1         2         3
     Eigenvalues --  8995.11936********************
           X            0.99763   0.06587   0.01989
           Y           -0.06614   0.99772   0.01324
           Z           -0.01898  -0.01453   0.99971
 This molecule is an asymmetric top.
 Rotational symmetry number  1.
 Warning -- assumption of classical behavior for rotation
           may cause significant error
 Rotational temperatures (Kelvin)      0.00963     0.00784     0.00667
 Rotational constants (GHZ):           0.20064     0.16336     0.13902
    1 imaginary frequencies ignored.
 Zero-point vibrational energy     940016.5 (Joules/Mol)
                                  224.66934 (Kcal/Mol)
 Warning -- explicit consideration of  42 degrees of freedom as
           vibrations may cause significant error
 Vibrational temperatures:     11.82    22.07    42.00    59.49    68.19
          (Kelvin)             86.41   102.38   104.66   122.27   132.35
                              140.83   144.01   160.08   166.01   174.88
                              184.42   205.52   220.05   228.04   266.96
                              279.12   309.68   324.63   360.84   373.08
                              408.87   432.44   470.83   497.13   513.40
                              531.68   550.18   562.96   580.83   599.05
                              629.26   650.68   687.62   725.97   772.80
                              777.92   877.05   901.85   937.08  1006.24
                             1016.99  1093.32  1106.18  1154.90  1172.98
                             1188.88  1222.68  1237.24  1251.52  1292.15
                             1328.81  1347.56  1381.37  1406.78  1419.85
                             1426.48  1439.65  1442.91  1450.87  1451.81
                             1495.94  1506.95  1524.26  1545.02  1582.44
                             1593.81  1629.00  1633.46  1672.20  1680.83
                             1689.80  1719.18  1722.32  1733.85  1769.18
                             1817.41  1830.16  1846.80  1895.55  1906.63
                             1914.90  1926.59  1951.37  1955.78  1965.16
                             1972.41  1996.21  2012.21  2039.88  2046.37
                             2097.28  2106.32  2117.95  2120.34  2128.26
                             2136.26  2151.41  2160.78  2167.27  2180.78
                             2268.47  2332.85  2359.28  2536.43  4234.82
                             4344.06  4376.65  4386.17  4398.93  4402.75
                             4419.96  4424.32  4447.08  4461.70  4466.50
                             4482.67  4486.52  4512.22  4534.65  4541.35
                             4544.57  4562.46  4577.99  4592.45  4604.06
                             4638.20

 Zero-point correction=                           0.358033 (Hartree/Particle)
 Thermal correction to Energy=                    0.385729
 Thermal correction to Enthalpy=                  0.386673
 Thermal correction to Gibbs Free Energy=         0.293836
 Sum of electronic and zero-point Energies=          -3531.059938
 Sum of electronic and thermal Energies=             -3531.032242
 Sum of electronic and thermal Enthalpies=           -3531.031298
 Sum of electronic and thermal Free Energies=        -3531.124135

                     E (Thermal)             CV                S
                      KCal/Mol        Cal/Mol-Kelvin    Cal/Mol-Kelvin
 Total                  242.048             97.819            195.391
 Electronic               0.000              0.000              3.561
 Translational            0.889              2.981             44.100
 Rotational               0.889              2.981             35.510
 Vibrational            240.271             91.857            112.220
 Vibration     1          0.593              1.987              8.401
 Vibration     2          0.593              1.986              7.161
 Vibration     3          0.593              1.984              5.883
 Vibration     4          0.594              1.981              5.194
 Vibration     5          0.595              1.979              4.923
 Vibration     6          0.597              1.973              4.455
 Vibration     7          0.598              1.968              4.121
 Vibration     8          0.599              1.967              4.078
 Vibration     9          0.601              1.960              3.772
 Vibration    10          0.602              1.955              3.617
 Vibration    11          0.603              1.951              3.496
 Vibration    12          0.604              1.949              3.453
 Vibration    13          0.607              1.940              3.247
 Vibration    14          0.608              1.937              3.176
 Vibration    15          0.609              1.931              3.076
 Vibration    16          0.611              1.925              2.973
 Vibration    17          0.616              1.910              2.765
 Vibration    18          0.619              1.899              2.635
 Vibration    19          0.621              1.893              2.568
 Vibration    20          0.632              1.860              2.272
 Vibration    21          0.635              1.848              2.189
 Vibration    22          0.645              1.818              1.999
 Vibration    23          0.650              1.802              1.913
 Vibration    24          0.663              1.761              1.725
 Vibration    25          0.668              1.747              1.666
 Vibration    26          0.683              1.703              1.508
 Vibration    27          0.693              1.673              1.414
 Vibration    28          0.711              1.621              1.274
 Vibration    29          0.724              1.584              1.187
 Vibration    30          0.732              1.561              1.136
 Vibration    31          0.742              1.535              1.082
 Vibration    32          0.752              1.508              1.030
 Vibration    33          0.759              1.489              0.995
 Vibration    34          0.769              1.462              0.949
 Vibration    35          0.780              1.435              0.904
 Vibration    36          0.798              1.389              0.835
 Vibration    37          0.811              1.356              0.789
 Vibration    38          0.834              1.299              0.716
 Vibration    39          0.860              1.240              0.647
 Vibration    40          0.892              1.168              0.572
 Vibration    41          0.896              1.160              0.564
 Vibration    42          0.969              1.012              0.433

                           ! Non-Optimized Parameters !
 Normal termination of Gaussian 16 at Sun Jun 20 08:38:04 2021.

 ----------------------------------------------------------------------
 #p ub3lyp jul-cc-pvdz pop=cm5 scrf=(pcm,solvent=dichloroethane) guess=
 read geom=allcheck
 ----------------------------------------------------------------------

 Structure from the checkpoint file:  "checkpoint.chk"
 -----
 title
 -----
 Charge =  0 Multiplicity = 6

 SCF Done:  E(UB3LYP) =  -3531.44088452     A.U. after   17 cycles
 Normal termination of Gaussian 16 at Sun Jun 20 09:00:59 2021.
 Gaussian 16:  ES64L-G16RevA.03 25-Dec-2016

 ----------------------------------------------------------------------
 #p ub3lyp jul-cc-pvdz pop=cm5 scrf=(pcm,solvent=water) guess=read geom
 =allcheck
 ----------------------------------------------------------------------

 Structure from the checkpoint file:  "checkpoint.chk"
 -----
 title
 -----
 Charge =  0 Multiplicity = 6

                         Standard orientation:
 ---------------------------------------------------------------------
 Center     Atomic      Atomic             Coordinates (Angstroms)
 Number     Number       Type             X           Y           Z
 ---------------------------------------------------------------------
      1          6           0        2.995348   -0.954064    0.332187
      2          6           0        1.640532   -0.762269    0.661459
      3          6           0        1.300828   -0.505406    1.998832
      4          6           0        2.289768   -0.452452    2.985330
      5          6           0        3.630699   -0.655241    2.650910
      6          6           0        3.980718   -0.901390    1.317447
      7          6           0        0.546578   -0.786326   -0.390087
      8          6           0        0.814318   -0.001667   -1.740530
      9          6           0        1.169528   -0.952506   -2.885796
     10          6           0        0.361372   -2.219557   -2.604860
     11          6           0        0.638408   -2.526625   -1.147010
     12          6           0       -0.243314   -3.175745   -0.280178
     13          6           0       -1.688834   -3.290859   -0.540178
     14          8           0       -0.672754   -0.637942    0.087428
     15         26           0       -2.117716    0.608387    0.324314
     16         17           0       -2.574760    1.545298   -1.635009
     17          6           0        0.239606   -3.688618    1.030996
     18         17           0       -1.563185    2.066912    1.890123
     19         17           0       -3.790234   -0.696446    1.006653
     20          1           0        0.262166   -0.316296    2.259859
     21          1           0        2.006688   -0.241890    4.017474
     22          1           0        4.402549   -0.613050    3.420923
     23          1           0        5.026208   -1.045915    1.042188
     24          1           0        3.296338   -1.128405   -0.700159
     25          1           0       -0.157064    0.463050   -1.951419
     26          6           0        1.816985    1.138355   -1.582922
     27          1           0        0.930745   -0.503464   -3.857989
     28          1           0        2.247594   -1.164128   -2.885780
     29          1           0       -0.706316   -2.035361   -2.778808
     30          1           0        0.666702   -3.059708   -3.245260
     31          1           0        1.690138   -2.738229   -0.947464
     32          1           0        1.300396   -3.492138    1.210308
     33          1           0       -0.363484   -3.250232    1.842946
     34          1           0        0.062122   -4.775801    1.072639
     35          1           0       -2.132798   -4.134663    0.002591
     36          1           0       -2.162150   -2.373978   -0.129941
     37          1           0       -1.943954   -3.340373   -1.603297
     38          8           0        1.312886    2.111274   -0.814665
     39          8           0        2.911783    1.170757   -2.107493
     40          6           0        2.162047    3.272179   -0.582807
     41          6           0        1.347750    4.289983    0.188333
     42          1           0        3.048615    2.935919   -0.027436
     43          1           0        2.494882    3.651348   -1.557932
     44          1           0        1.972624    5.171723    0.392102
     45          1           0        0.470370    4.609918   -0.389471
     46          1           0        0.997953    3.876166    1.142811
 ---------------------------------------------------------------------

 SCF Done:  E(UB3LYP) =  -3531.44504698     A.U. after   16 cycles

 The electronic state is 6-A.
 Alpha  occ. eigenvalues -- -256.20471-101.52246-101.52093-101.52082 -30.19878
 Alpha  occ. eigenvalues --  -26.05186 -26.05125 -26.05013 -19.20432 -19.16622
 Alpha  occ. eigenvalues --  -19.15419 -10.33109 -10.31757 -10.28066 -10.24871
 Alpha  occ. eigenvalues --  -10.22395 -10.22150 -10.21691 -10.20911 -10.20744
 Alpha  occ. eigenvalues --  -10.20584 -10.20486 -10.20427 -10.20375 -10.20373
 Alpha  occ. eigenvalues --  -10.20336 -10.19980 -10.18579  -9.43970  -9.43826
 Alpha  occ. eigenvalues --   -9.43807  -7.19833  -7.19692  -7.19675  -7.19521
 Alpha  occ. eigenvalues --   -7.19510  -7.19374  -7.19364  -7.19351  -7.19342
 Alpha  occ. eigenvalues --   -3.67563  -2.45079  -2.44917  -2.44725  -1.12314
 Alpha  occ. eigenvalues --   -1.05946  -1.03781  -0.88218  -0.87116  -0.83894
 Alpha  occ. eigenvalues --   -0.80189  -0.79474  -0.79373  -0.78942  -0.77941
 Alpha  occ. eigenvalues --   -0.76235  -0.75154  -0.72929  -0.71164  -0.66424
 Alpha  occ. eigenvalues --   -0.64394  -0.62227  -0.61525  -0.59462  -0.57232
 Alpha  occ. eigenvalues --   -0.56399  -0.54554  -0.52808  -0.51411  -0.50705
 Alpha  occ. eigenvalues --   -0.49977  -0.49314  -0.48854  -0.48020  -0.47920
 Alpha  occ. eigenvalues --   -0.47785  -0.47507  -0.46831  -0.46819  -0.45912
 Alpha  occ. eigenvalues --   -0.44969  -0.44608  -0.44193  -0.43325  -0.42630
 Alpha  occ. eigenvalues --   -0.42416  -0.41616  -0.41002  -0.40119  -0.40019
 Alpha  occ. eigenvalues --   -0.39717  -0.38782  -0.37796  -0.37484  -0.37343
 Alpha  occ. eigenvalues --   -0.37104  -0.36855  -0.36222  -0.35903  -0.35724
 Alpha  occ. eigenvalues --   -0.34998  -0.34407  -0.33943  -0.32045  -0.31926
 Alpha  occ. eigenvalues --   -0.31024  -0.30996  -0.30748  -0.30257  -0.29892
 Alpha  occ. eigenvalues --   -0.29717  -0.28912  -0.28421  -0.27016  -0.26222
 Alpha virt. eigenvalues --   -0.11949  -0.03506  -0.02903  -0.01519  -0.01142
 Alpha virt. eigenvalues --   -0.00172  -0.00042   0.00035   0.01460   0.01637
 Alpha virt. eigenvalues --    0.01854   0.01992   0.02350   0.03616   0.03782

  Beta  occ. eigenvalues -- -256.20286-101.52069-101.51914-101.51912 -30.10935
  Beta  occ. eigenvalues --  -25.97690 -25.97655 -25.97619 -19.20432 -19.16023
  Beta  occ. eigenvalues --  -19.15416 -10.33110 -10.31757 -10.28029 -10.24871
  Beta  occ. eigenvalues --  -10.22363 -10.22135 -10.21670 -10.20913 -10.20745
  Beta  occ. eigenvalues --  -10.20587 -10.20483 -10.20430 -10.20377 -10.20375
  Beta  occ. eigenvalues --  -10.20336 -10.19979 -10.18578  -9.43796  -9.43651
  Beta  occ. eigenvalues --   -9.43641  -7.19538  -7.19397  -7.19382  -7.19284
  Beta  occ. eigenvalues --   -7.19273  -7.19132  -7.19132  -7.19125  -7.19120
  Beta  occ. eigenvalues --   -3.46713  -2.23003  -2.22934  -2.22866  -1.12312
  Beta  occ. eigenvalues --   -1.04785  -1.03777  -0.88088  -0.87083  -0.83840
  Beta  occ. eigenvalues --   -0.79059  -0.78941  -0.78246  -0.78167  -0.77852
  Beta  occ. eigenvalues --   -0.76230  -0.75126  -0.72917  -0.71062  -0.66278
  Beta  occ. eigenvalues --   -0.64312  -0.62187  -0.61471  -0.59153  -0.57025
  Beta  occ. eigenvalues --   -0.55987  -0.54408  -0.51860  -0.51388  -0.50375
  Beta  occ. eigenvalues --   -0.49954  -0.48677  -0.48360  -0.47707  -0.46869
  Beta  occ. eigenvalues --   -0.45751  -0.44755  -0.44184  -0.43356  -0.42622
  Beta  occ. eigenvalues --   -0.42371  -0.41703  -0.40987  -0.40051  -0.40028
  Beta  occ. eigenvalues --   -0.39697  -0.38689  -0.38016  -0.37554  -0.37282
  Beta  occ. eigenvalues --   -0.37116  -0.36931  -0.36226  -0.35928  -0.35844
  Beta  occ. eigenvalues --   -0.35790  -0.35694  -0.34918  -0.33126  -0.33078
  Beta  occ. eigenvalues --   -0.32462  -0.32150  -0.31887  -0.31480  -0.30148
  Beta  occ. eigenvalues --   -0.29609  -0.28878  -0.28568  -0.27020  -0.26196
  Beta virt. eigenvalues --   -0.14360  -0.14069  -0.13191  -0.12995  -0.12585
  Beta virt. eigenvalues --   -0.11002  -0.03459  -0.02888  -0.01415  -0.01110
  Beta virt. eigenvalues --   -0.00130  -0.00015   0.00065   0.01476   0.01659

 Mulliken charges and spin densities:
               1          2
     1  C   -0.167513  -0.001819
     2  C    3.062018   0.012428
     3  C   -0.752963  -0.011479
     4  C    0.048652   0.005403
     5  C    0.220787  -0.002697
     6  C    0.003008   0.002651
     7  C   -2.704585  -0.001729
     8  C    0.838235   0.004387
     9  C    0.668220   0.000741
    10  C    0.717618   0.001890
    11  C    0.787567   0.012205
    12  C   -0.357163   0.028937
    13  C    0.081351  -0.007397
    14  O   -0.467286   0.178703
    15  Fe   0.602979   4.061291
    16  Cl  -0.524813   0.233900
    17  C    0.367594  -0.000953
    18  Cl  -0.485698   0.241932
    19  Cl  -0.508381   0.230592
    20  H   -0.205039   0.002943
    21  H   -0.156968  -0.000001
    22  H   -0.159376   0.000037
    23  H   -0.159284   0.000152
    24  H   -0.188147  -0.000047
    25  H   -0.223971   0.000451
    26  C    0.840946  -0.003981
    27  H   -0.169591   0.000357
    28  H   -0.050021  -0.000117
    29  H   -0.081774  -0.000067
    30  H   -0.140262   0.000698
    31  H   -0.200155  -0.000843
    32  H    0.036015   0.000041
    33  H    0.097060   0.001291
    34  H    0.019432   0.001250
    35  H    0.014219   0.000151
    36  H    0.160352   0.005352
    37  H    0.033859   0.000316
    38  O   -0.696188   0.001877
    39  O   -0.650284   0.001072
    40  C    0.438677   0.000968
    41  C    0.044195  -0.000754
    42  H   -0.030133   0.000020
    43  H   -0.036928   0.000024
    44  H   -0.008630   0.000012
    45  H    0.020720   0.000014
    46  H    0.021650  -0.000205
 Sum of Mulliken charges =  -0.00000   5.00000

 Dipole moment (field-independent basis, Debye):
    X=              8.8272    Y=            -10.6731    Z=             -1.1351  Tot=             13.8969
 Quadrupole moment (field-independent basis, Debye-Ang):
   XX=           -199.7626   YY=           -147.5460   ZZ=           -175.1234
   XY=              7.7595   XZ=             13.5245   YZ=              3.6648

 Normal termination of Gaussian 16 at Sun Jun 20 09:22:07 2021.
