 Gaussian 16, Revision A.03,

 -----------------------------------------------------------
 #p opt=modredundant freq=noraman ub3lyp jul-cc-pvdz pop=cm5
 -----------------------------------------------------------

 -----
 title
 -----
 Symbolic Z-matrix:
 Charge =  0 Multiplicity = 6

 SCF Done:  E(UB3LYP) =  -3531.41561638     A.U. after   23 cycles
 SCF Done:  E(UB3LYP) =  -3531.41564837     A.U. after   16 cycles
 SCF Done:  E(UB3LYP) =  -3531.41366690     A.U. after   18 cycles
 SCF Done:  E(UB3LYP) =  -3531.41135949     A.U. after   17 cycles
 SCF Done:  E(UB3LYP) =  -3531.41036691     A.U. after   17 cycles
 SCF Done:  E(UB3LYP) =  -3531.41566991     A.U. after   11 cycles
 SCF Done:  E(UB3LYP) =  -3531.41611543     A.U. after   15 cycles
 SCF Done:  E(UB3LYP) =  -3531.41613221     A.U. after   15 cycles
 SCF Done:  E(UB3LYP) =  -3531.41618335     A.U. after   14 cycles
 SCF Done:  E(UB3LYP) =  -3531.41619044     A.U. after   13 cycles
 SCF Done:  E(UB3LYP) =  -3531.41619040     A.U. after   14 cycles
 SCF Done:  E(UB3LYP) =  -3531.41619303     A.U. after   14 cycles
 SCF Done:  E(UB3LYP) =  -3531.41619365     A.U. after   11 cycles
 SCF Done:  E(UB3LYP) =  -3531.41619391     A.U. after   12 cycles
 SCF Done:  E(UB3LYP) =  -3531.41619395     A.U. after   10 cycles
 SCF Done:  E(UB3LYP) =  -3531.41619396     A.U. after   10 cycles
 Optimization completed.
    -- Stationary point found.
 Normal termination of Gaussian 16 at Sun Jun 20 03:27:45 2021.

 ----------------------------------------------------------------------
 #P Geom=AllCheck Guess=TCheck SCRF=Check GenChk UB3LYP/Jul-CC-pVDZ Fre
 q
 ----------------------------------------------------------------------

 Structure from the checkpoint file:  "checkpoint.chk"
 -----
 title
 -----
 Charge =  0 Multiplicity = 6

 SCF Done:  E(UB3LYP) =  -3531.41619396     A.U. after    2 cycles

  Exact polarizability: 283.221   0.999 304.315  23.671   8.048 282.891
 Approx polarizability: 414.894   0.761 482.648  44.300  10.374 446.913

 ******    1 imaginary frequencies (negative Signs) ******

                      1                      2                      3
                      A                      A                      A
 Frequencies --   -198.7742                26.5442                28.5449
 Red. masses --      8.8954                 6.8855                 6.4690
 Frc consts  --      0.2071                 0.0029                 0.0031
 IR Inten    --    208.1386                 0.1473                 1.5062

                      4                      5                      6
                      A                      A                      A
 Frequencies --     29.9932                50.0501                56.8774
 Red. masses --      5.7317                 5.7643                 3.7029
 Frc consts  --      0.0030                 0.0085                 0.0071
 IR Inten    --      0.9171                 2.2873                 1.1520

                      7                      8                      9
                      A                      A                      A
 Frequencies --     67.3988                70.3517                77.8803
 Red. masses --      2.6360                 4.8609                 7.8248
 Frc consts  --      0.0071                 0.0142                 0.0280
 IR Inten    --      0.1390                 0.8511                 0.9250

                     10                     11                     12
                      A                      A                      A
 Frequencies --     84.4448                91.4573               102.7053
 Red. masses --      7.5254                13.1747                 5.8828
 Frc consts  --      0.0316                 0.0649                 0.0366
 IR Inten    --      2.0391                 0.5222                 1.2652

                     13                     14                     15
                      A                      A                      A
 Frequencies --    113.5846               118.2856               120.8112
 Red. masses --     11.4522                 4.3199                 7.0295
 Frc consts  --      0.0871                 0.0356                 0.0604
 IR Inten    --      1.0621                 3.3336                 8.8158

                     16                     17                     18
                      A                      A                      A
 Frequencies --    130.1128               146.0512               162.3307
 Red. masses --      6.6666                 3.7077                 2.6475
 Frc consts  --      0.0665                 0.0466                 0.0411
 IR Inten    --      3.1920                 4.4726                 1.6241

                     19                     20                     21
                      A                      A                      A
 Frequencies --    180.4792               190.4190               202.0096
 Red. masses --      3.1561                 1.5822                 2.1302
 Frc consts  --      0.0606                 0.0338                 0.0512
 IR Inten    --      8.0303                 6.4940                 1.4904

                     22                     23                     24
                      A                      A                      A
 Frequencies --    219.7913               223.7941               248.0643
 Red. masses --      1.3360                 3.2653                 2.6916
 Frc consts  --      0.0380                 0.0964                 0.0976
 IR Inten    --      6.0736                 6.6953                 1.1697

                     25                     26                     27
                      A                      A                      A
 Frequencies --    252.1874               262.4088               290.6359
 Red. masses --      2.3552                 2.0439                 3.6330
 Frc consts  --      0.0883                 0.0829                 0.1808
 IR Inten    --      2.9166                 0.9652                 2.8636

                     28                     29                     30
                      A                      A                      A
 Frequencies --    305.4477               340.6551               341.9454
 Red. masses --      2.8035                19.1815                 4.3048
 Frc consts  --      0.1541                 1.3115                 0.2966
 IR Inten    --      1.7049                30.5317                 8.6406

                     31                     32                     33
                      A                      A                      A
 Frequencies --    376.1739               381.1557               382.3053
 Red. masses --      3.3984                 3.3673                25.7905
 Frc consts  --      0.2833                 0.2882                 2.2209
 IR Inten    --     12.1561                 3.2420                76.2492

                     34                     35                     36
                      A                      A                      A
 Frequencies --    393.7785               396.8630               407.8293
 Red. masses --      8.4532                 9.4036                 3.7141
 Frc consts  --      0.7723                 0.8726                 0.3640
 IR Inten    --     64.1929                48.0393                10.5449

                     37                     38                     39
                      A                      A                      A
 Frequencies --    412.5135               464.9035               512.8208
 Red. masses --      2.9629                 3.7420                 2.9044
 Frc consts  --      0.2971                 0.4765                 0.4500
 IR Inten    --      1.6169                 1.7692                 3.1013

                     40                     41                     42
                      A                      A                      A
 Frequencies --    544.8728               572.4761               626.3225
 Red. masses --      3.7465                 2.4767                 5.6553
 Frc consts  --      0.6553                 0.4782                 1.3071
 IR Inten    --     23.9822                 0.7277                 4.4809

                     43                     44                     45
                      A                      A                      A
 Frequencies --    635.1786               673.8466               698.2978
 Red. masses --      4.7819                 4.1272                 4.2758
 Frc consts  --      1.1367                 1.1042                 1.2284
 IR Inten    --     20.1663                12.6371                17.9802

                     46                     47                     48
                      A                      A                      A
 Frequencies --    707.9585               755.1214               785.0149
 Red. masses --      1.5901                 2.8517                 3.1118
 Frc consts  --      0.4696                 0.9581                 1.1299
 IR Inten    --     42.0449                19.7367                13.9382

                     49                     50                     51
                      A                      A                      A
 Frequencies --    789.6223               802.1822               812.5259
 Red. masses --      3.7475                 1.7651                 1.9514
 Frc consts  --      1.3767                 0.6692                 0.7590
 IR Inten    --      3.4854                16.8680                10.9095

                     52                     53                     54
                      A                      A                      A
 Frequencies --    840.5282               845.7424               872.2043
 Red. masses --      1.8592                 1.2694                 2.5978
 Frc consts  --      0.7739                 0.5349                 1.1644
 IR Inten    --     15.3670                 0.1782                 9.8054

                     55                     56                     57
                      A                      A                      A
 Frequencies --    877.7451               922.0131               931.9539
 Red. masses --      1.3510                 1.5464                 2.0704
 Frc consts  --      0.6133                 0.7746                 1.0595
 IR Inten    --      6.1382                14.7777                26.0311

                     58                     59                     60
                      A                      A                      A
 Frequencies --    944.6356               958.2672               981.0595
 Red. masses --      2.2939                 3.3820                 1.3546
 Frc consts  --      1.2060                 1.8298                 0.7682
 IR Inten    --     28.4973               101.1236                 0.2978

                     61                     62                     63
                      A                      A                      A
 Frequencies --    984.6154              1000.5993              1001.3391
 Red. masses --      2.8576                 1.4277                 1.5918
 Frc consts  --      1.6322                 0.8422                 0.9403
 IR Inten    --     47.9565                 0.3070                 6.6131

                     64                     65                     66
                      A                      A                      A
 Frequencies --   1004.6057              1007.8835              1026.0677
 Red. masses --      3.2910                 3.0998                 2.6566
 Frc consts  --      1.9569                 1.8552                 1.6479
 IR Inten    --      3.8893                11.4799                13.7518

                     67                     68                     69
                      A                      A                      A
 Frequencies --   1043.8187              1043.9676              1058.3126
 Red. masses --      2.1929                 2.6904                 2.0125
 Frc consts  --      1.4077                 1.7276                 1.3280
 IR Inten    --     22.5420                35.0654                 1.7999

                     70                     71                     72
                      A                      A                      A
 Frequencies --   1084.1424              1096.9380              1106.3367
 Red. masses --      1.9284                 2.6105                 1.6387
 Frc consts  --      1.3354                 1.8507                 1.1818
 IR Inten    --     30.4758                23.2811                 4.5980

                     73                     74                     75
                      A                      A                      A
 Frequencies --   1133.0821              1152.2849              1169.1708
 Red. masses --      2.1608                 1.7038                 1.5759
 Frc consts  --      1.6345                 1.3328                 1.2692
 IR Inten    --      6.6028                22.4388                 7.3912

                     76                     77                     78
                      A                      A                      A
 Frequencies --   1175.1620              1187.4562              1203.1013
 Red. masses --      1.0879                 2.7278                 1.4003
 Frc consts  --      0.8852                 2.2662                 1.1942
 IR Inten    --      0.1236                41.2797                 3.6301

                     79                     80                     81
                      A                      A                      A
 Frequencies --   1209.4476              1213.8832              1225.9921
 Red. masses --      1.8260                 1.3651                 1.9557
 Frc consts  --      1.5737                 1.1852                 1.7319
 IR Inten    --     90.8633                16.8640               113.3415

                     82                     83                     84
                      A                      A                      A
 Frequencies --   1258.9122              1279.6610              1283.9116
 Red. masses --      1.8118                 1.4439                 1.1669
 Frc consts  --      1.6918                 1.3931                 1.1333
 IR Inten    --     32.9832                 8.0095                 1.6549

                     85                     86                     87
                      A                      A                      A
 Frequencies --   1290.0538              1306.1952              1320.1486
 Red. masses --      1.8135                 1.6871                 1.5452
 Frc consts  --      1.7782                 1.6960                 1.5867
 IR Inten    --     72.8004                10.4285                25.2439

                     88                     89                     90
                      A                      A                      A
 Frequencies --   1335.5247              1354.9953              1360.4233
 Red. masses --      1.9057                 2.2989                 1.9409
 Frc consts  --      2.0026                 2.4868                 2.1165
 IR Inten    --     15.9286                 6.4441                 0.8547

                     91                     92                     93
                      A                      A                      A
 Frequencies --   1368.0351              1372.9823              1388.1914
 Red. masses --      1.2618                 1.3950                 1.2198
 Frc consts  --      1.3914                 1.5494                 1.3850
 IR Inten    --     19.9806                17.1707                47.4086

                     94                     95                     96
                      A                      A                      A
 Frequencies --   1398.0758              1409.4147              1418.6197
 Red. masses --      1.6349                 1.4552                 1.5930
 Frc consts  --      1.8828                 1.7031                 1.8889
 IR Inten    --     50.0576                29.4544                10.8364

                     97                     98                     99
                      A                      A                      A
 Frequencies --   1439.2514              1462.0479              1470.7905
 Red. masses --      1.1208                 1.1012                 2.2095
 Frc consts  --      1.3679                 1.3869                 2.8160
 IR Inten    --      1.1001                 1.6551                 8.3826

                    100                    101                    102
                      A                      A                      A
 Frequencies --   1474.1037              1478.8388              1488.5688
 Red. masses --      1.0391                 1.1876                 1.0645
 Frc consts  --      1.3304                 1.5302                 1.3898
 IR Inten    --      3.6005                 2.8674                 4.5232

                    103                    104                    105
                      A                      A                      A
 Frequencies --   1488.7378              1499.7062              1507.6483
 Red. masses --      1.0695                 1.0951                 1.0839
 Frc consts  --      1.3966                 1.4512                 1.4516
 IR Inten    --      1.6863                15.9267                 5.8378

                    106                    107                    108
                      A                      A                      A
 Frequencies --   1510.1322              1524.6523              1626.7983
 Red. masses --      1.0921                 2.2216                 5.6930
 Frc consts  --      1.4674                 3.0427                 8.8769
 IR Inten    --      2.3275                 4.0936                 0.7779

                    109                    110                    111
                      A                      A                      A
 Frequencies --   1647.9799              1772.7254              2995.1236
 Red. masses --      5.7514                11.6540                 1.0522
 Frc consts  --      9.2029                21.5779                 5.5613
 IR Inten    --      0.2282               209.0269                 3.5405

                    112                    113                    114
                      A                      A                      A
 Frequencies --   3013.7160              3039.2377              3058.3607
 Red. masses --      1.0495                 1.0355                 1.0584
 Frc consts  --      5.6161                 5.6356                 5.8329
 IR Inten    --      6.7403                21.3187                13.9255

                    115                    116                    117
                      A                      A                      A
 Frequencies --   3063.0420              3070.2917              3080.3718
 Red. masses --      1.0604                 1.0621                 1.0847
 Frc consts  --      5.8617                 5.8990                 6.0642
 IR Inten    --     20.5123                25.3168                 9.6907

                    118                    119                    120
                      A                      A                      A
 Frequencies --   3088.0346              3099.9575              3102.4062
 Red. masses --      1.0900                 1.0846                 1.1064
 Frc consts  --      6.1239                 6.1411                 6.2744
 IR Inten    --      4.7376                 6.0597                 8.0907

                    121                    122                    123
                      A                      A                      A
 Frequencies --   3103.5870              3107.7117              3115.0569
 Red. masses --      1.1005                 1.0784                 1.1025
 Frc consts  --      6.2454                 6.1366                 6.3029
 IR Inten    --      8.6241                 1.0393                20.1245

                    124                    125                    126
                      A                      A                      A
 Frequencies --   3121.3602              3133.5034              3164.4680
 Red. masses --      1.1046                 1.1044                 1.1062
 Frc consts  --      6.3411                 6.3893                 6.5266
 IR Inten    --     23.6845                19.5055                 0.8385

                    127                    128                    129
                      A                      A                      A
 Frequencies --   3166.3242              3167.5939              3176.1273
 Red. masses --      1.0849                 1.1025                 1.0878
 Frc consts  --      6.4082                 6.5175                 6.4656
 IR Inten    --      2.6982                 4.5707                 4.9556

                    130                    131                    132
                      A                      A                      A
 Frequencies --   3184.8496              3194.3247              3201.1911
 Red. masses --      1.0923                 1.0953                 1.0968
 Frc consts  --      6.5281                 6.5848                 6.6219
 IR Inten    --     18.7587                 7.7481                 7.8340

 - Thermochemistry -
 -------------------
 Temperature   298.150 Kelvin.  Pressure   1.00000 Atm.
 Atom     1 has atomic number  6 and mass  12.00000

 Molecular mass:   434.99839 amu.
 Principal axes and moments of inertia in atomic units:
                           1         2         3
     Eigenvalues --  8994.21178********************
           X            0.99714   0.07354   0.01731
           Y           -0.07375   0.99720   0.01207
           Z           -0.01637  -0.01331   0.99978
 This molecule is an asymmetric top.
 Rotational symmetry number  1.
 Warning -- assumption of classical behavior for rotation
           may cause significant error
 Rotational temperatures (Kelvin)      0.00963     0.00755     0.00691
 Rotational constants (GHZ):           0.20066     0.15742     0.14398
    1 imaginary frequencies ignored.
 Zero-point vibrational energy     944769.6 (Joules/Mol)
                                  225.80536 (Kcal/Mol)
 Warning -- explicit consideration of  40 degrees of freedom as
           vibrations may cause significant error
 Vibrational temperatures:     38.19    41.07    43.15    72.01    81.83
          (Kelvin)             96.97   101.22   112.05   121.50   131.59
                              147.77   163.42   170.19   173.82   187.20
                              210.14   233.56   259.67   273.97   290.65
                              316.23   321.99   356.91   362.84   377.55
                              418.16   439.47   490.13   491.98   541.23
                              548.40   550.05   566.56   571.00   586.78
                              593.51   668.89   737.83   783.95   823.67
                              901.14   913.88   969.51  1004.69  1018.59
                             1086.45  1129.46  1136.09  1154.16  1169.04
                             1209.33  1216.83  1254.91  1262.88  1326.57
                             1340.87  1359.12  1378.73  1411.53  1416.64
                             1439.64  1440.70  1445.40  1450.12  1476.28
                             1501.82  1502.04  1522.68  1559.84  1578.25
                             1591.77  1630.25  1657.88  1682.18  1690.80
                             1708.48  1730.99  1740.13  1746.51  1763.93
                             1811.29  1841.15  1847.26  1856.10  1879.32
                             1899.40  1921.52  1949.54  1957.35  1968.30
                             1975.42  1997.30  2011.52  2027.83  2041.08
                             2070.76  2103.56  2116.14  2120.91  2127.72
                             2141.72  2141.96  2157.74  2169.17  2172.74
                             2193.63  2340.60  2371.08  2550.56  4309.31
                             4336.07  4372.79  4400.30  4407.03  4417.46
                             4431.97  4442.99  4460.15  4463.67  4465.37
                             4471.30  4481.87  4490.94  4508.41  4552.96
                             4555.63  4557.46  4569.74  4582.29  4595.92
                             4605.80

 Zero-point correction=                           0.359844 (Hartree/Particle)
 Thermal correction to Energy=                    0.386782
 Thermal correction to Enthalpy=                  0.387726
 Thermal correction to Gibbs Free Energy=         0.298707
 Sum of electronic and zero-point Energies=          -3531.056350
 Sum of electronic and thermal Energies=             -3531.029412
 Sum of electronic and thermal Enthalpies=           -3531.028468
 Sum of electronic and thermal Free Energies=        -3531.117487

                     E (Thermal)             CV                S
                      KCal/Mol        Cal/Mol-Kelvin    Cal/Mol-Kelvin
 Total                  242.709             96.505            187.356
 Electronic               0.000              0.000              3.561
 Translational            0.889              2.981             44.100
 Rotational               0.889              2.981             35.512
 Vibrational            240.932             90.543            104.183
 Vibration     1          0.593              1.984              6.072
 Vibration     2          0.593              1.984              5.928
 Vibration     3          0.594              1.984              5.830
 Vibration     4          0.595              1.978              4.815
 Vibration     5          0.596              1.975              4.563
 Vibration     6          0.598              1.970              4.228
 Vibration     7          0.598              1.968              4.143
 Vibration     8          0.599              1.964              3.944
 Vibration     9          0.601              1.960              3.785
 Vibration    10          0.602              1.955              3.629
 Vibration    11          0.605              1.947              3.402
 Vibration    12          0.607              1.938              3.207
 Vibration    13          0.608              1.934              3.128
 Vibration    14          0.609              1.932              3.087
 Vibration    15          0.612              1.923              2.944
 Vibration    16          0.617              1.907              2.723
 Vibration    17          0.622              1.889              2.522
 Vibration    18          0.629              1.866              2.323
 Vibration    19          0.634              1.853              2.224
 Vibration    20          0.639              1.837              2.115
 Vibration    21          0.647              1.811              1.961
 Vibration    22          0.649              1.805              1.928
 Vibration    23          0.662              1.766              1.744
 Vibration    24          0.664              1.759              1.715
 Vibration    25          0.670              1.742              1.646
 Vibration    26          0.687              1.691              1.470
 Vibration    27          0.696              1.663              1.387
 Vibration    28          0.720              1.594              1.209
 Vibration    29          0.721              1.592              1.203
 Vibration    30          0.747              1.521              1.055
 Vibration    31          0.751              1.510              1.035
 Vibration    32          0.752              1.508              1.030
 Vibration    33          0.761              1.483              0.986
 Vibration    34          0.763              1.477              0.974
 Vibration    35          0.772              1.453              0.934
 Vibration    36          0.776              1.443              0.918
 Vibration    37          0.822              1.328              0.752
 Vibration    38          0.868              1.222              0.627
 Vibration    39          0.900              1.151              0.555
 Vibration    40          0.929              1.091              0.499

                           ! Non-Optimized Parameters !
 Normal termination of Gaussian 16 at Sun Jun 20 07:13:25 2021.

 ----------------------------------------------------------------------
 #p ub3lyp jul-cc-pvdz pop=cm5 scrf=(pcm,solvent=dichloroethane) guess=
 read geom=allcheck
 ----------------------------------------------------------------------

 Structure from the checkpoint file:  "checkpoint.chk"
 -----
 title
 -----
 Charge =  0 Multiplicity = 6

 SCF Done:  E(UB3LYP) =  -3531.43941680     A.U. after   18 cycles
 Normal termination of Gaussian 16 at Sun Jun 20 07:37:06 2021.
 Gaussian 16:  ES64L-G16RevA.03 25-Dec-2016

 ----------------------------------------------------------------------
 #p ub3lyp jul-cc-pvdz pop=cm5 scrf=(pcm,solvent=water) guess=read geom
 =allcheck
 ----------------------------------------------------------------------

 Structure from the checkpoint file:  "checkpoint.chk"
 -----
 title
 -----
 Charge =  0 Multiplicity = 6

                         Standard orientation:
 ---------------------------------------------------------------------
 Center     Atomic      Atomic             Coordinates (Angstroms)
 Number     Number       Type             X           Y           Z
 ---------------------------------------------------------------------
      1          6           0        1.982384   -1.926731    1.685597
      2          6           0        1.288600   -0.890718    1.043900
      3          6           0        1.251200    0.369144    1.659195
      4          6           0        1.865573    0.578252    2.894591
      5          6           0        2.547286   -0.463268    3.530503
      6          6           0        2.609383   -1.715875    2.917647
      7          6           0        0.645876   -1.098463   -0.321387
      8          6           0        1.588466   -0.657298   -1.512247
      9          6           0        2.319786   -1.954162   -1.882982
     10          6           0        1.249275   -3.056887   -1.734115
     11          6           0        0.266163   -2.507704   -0.667601
     12          6           0       -1.189644   -2.263913   -1.085375
     13          6           0       -1.584025   -2.034996   -2.499483
     14          8           0       -0.664168   -0.444962   -0.440951
     15         26           0       -1.975065    0.775673    0.330269
     16         17           0       -3.696542    0.568976   -1.070332
     17          6           0       -2.247297   -2.751513   -0.163391
     18         17           0       -1.255573    2.860627    0.392362
     19         17           0       -2.521505    0.006973    2.331170
     20          1           0        0.737469    1.201436    1.180828
     21          1           0        1.806074    1.561970    3.361894
     22          1           0        3.027153   -0.298794    4.496254
     23          1           0        3.143688   -2.536997    3.397609
     24          1           0        2.055431   -2.915467    1.231633
     25          1           0        0.918413   -0.340043   -2.321302
     26          6           0        2.536716    0.496551   -1.228550
     27          1           0        2.750877   -1.910220   -2.891146
     28          1           0        3.150920   -2.109201   -1.183267
     29          1           0        0.741771   -3.241653   -2.689747
     30          1           0        1.682376   -4.015126   -1.420919
     31          1           0        0.246325   -3.152001    0.217727
     32          1           0       -2.310270   -3.842740   -0.338079
     33          1           0       -1.983770   -2.598442    0.888399
     34          1           0       -3.226614   -2.310652   -0.378880
     35          1           0       -1.877630   -3.014027   -2.919027
     36          1           0       -2.466341   -1.383885   -2.537674
     37          1           0       -0.783257   -1.620703   -3.117579
     38          8           0        1.949068    1.678657   -1.482830
     39          8           0        3.681426    0.369172   -0.848203
     40          6           0        2.750628    2.868582   -1.235259
     41          6           0        1.965377    4.063849   -1.734969
     42          1           0        2.950754    2.923401   -0.156380
     43          1           0        3.711815    2.749177   -1.752539
     44          1           0        2.539899    4.981248   -1.541184
     45          1           0        1.785048    3.991414   -2.816700
     46          1           0        0.997979    4.139973   -1.221905
 ---------------------------------------------------------------------

 SCF Done:  E(UB3LYP) =  -3531.44384901     A.U. after   14 cycles

 The electronic state is 6-A.
 Alpha  occ. eigenvalues -- -256.21002-101.52612-101.52439-101.52401 -30.20395
 Alpha  occ. eigenvalues --  -26.05724 -26.05643 -26.05517 -19.20267 -19.18662
 Alpha  occ. eigenvalues --  -19.15163 -10.32756 -10.31875 -10.28353 -10.24722
 Alpha  occ. eigenvalues --  -10.22090 -10.21716 -10.21388 -10.21229 -10.21198
 Alpha  occ. eigenvalues --  -10.20458 -10.20232 -10.20184 -10.20176 -10.20116
 Alpha  occ. eigenvalues --  -10.20088 -10.19746 -10.18540  -9.44336  -9.44158
 Alpha  occ. eigenvalues --   -9.44126  -7.20200  -7.20031  -7.19999  -7.19888
 Alpha  occ. eigenvalues --   -7.19875  -7.19708  -7.19692  -7.19672  -7.19666
 Alpha  occ. eigenvalues --   -3.68052  -2.45556  -2.45451  -2.45175  -1.11981
 Alpha  occ. eigenvalues --   -1.03547  -1.03380  -0.88060  -0.86871  -0.84216
 Alpha  occ. eigenvalues --   -0.80558  -0.79834  -0.79693  -0.78817  -0.77618
 Alpha  occ. eigenvalues --   -0.76121  -0.75162  -0.73557  -0.72088  -0.66368
 Alpha  occ. eigenvalues --   -0.63886  -0.62130  -0.60906  -0.59637  -0.57066
 Alpha  occ. eigenvalues --   -0.56222  -0.54598  -0.53045  -0.51310  -0.50240
 Alpha  occ. eigenvalues --   -0.49946  -0.49424  -0.48824  -0.48329  -0.48140
 Alpha  occ. eigenvalues --   -0.47822  -0.47445  -0.47299  -0.46466  -0.45930
 Alpha  occ. eigenvalues --   -0.45746  -0.44570  -0.44186  -0.43181  -0.42969
 Alpha  occ. eigenvalues --   -0.42318  -0.41520  -0.40886  -0.40413  -0.39997
 Alpha  occ. eigenvalues --   -0.39780  -0.38735  -0.38047  -0.37538  -0.37318
 Alpha  occ. eigenvalues --   -0.36853  -0.36176  -0.35991  -0.35685  -0.35444
 Alpha  occ. eigenvalues --   -0.34590  -0.34420  -0.34221  -0.32986  -0.31832
 Alpha  occ. eigenvalues --   -0.31305  -0.31246  -0.31038  -0.30922  -0.30441
 Alpha  occ. eigenvalues --   -0.29914  -0.29785  -0.29038  -0.26801  -0.26410
 Alpha virt. eigenvalues --   -0.09559  -0.03467  -0.02867  -0.01486  -0.01338
 Alpha virt. eigenvalues --   -0.00195  -0.00058   0.00100   0.01461   0.01674
 Alpha virt. eigenvalues --    0.01742   0.01824   0.02411   0.03226   0.03793

  Beta  occ. eigenvalues -- -256.20816-101.52428-101.52256-101.52213 -30.11464
  Beta  occ. eigenvalues --  -25.98222 -25.98191 -25.98137 -19.20267 -19.18141
  Beta  occ. eigenvalues --  -19.15161 -10.32756 -10.31869 -10.28322 -10.24722
  Beta  occ. eigenvalues --  -10.22078 -10.21703 -10.21382 -10.21226 -10.21198
  Beta  occ. eigenvalues --  -10.20456 -10.20231 -10.20183 -10.20173 -10.20116
  Beta  occ. eigenvalues --  -10.20088 -10.19744 -10.18538  -9.44155  -9.43979
  Beta  occ. eigenvalues --   -9.43942  -7.19902  -7.19721  -7.19687  -7.19635
  Beta  occ. eigenvalues --   -7.19625  -7.19464  -7.19453  -7.19419  -7.19418
  Beta  occ. eigenvalues --   -3.47223  -2.23538  -2.23405  -2.23386  -1.11979
  Beta  occ. eigenvalues --   -1.03540  -1.02426  -0.87856  -0.86806  -0.84185
  Beta  occ. eigenvalues --   -0.79368  -0.78840  -0.78524  -0.78404  -0.77557
  Beta  occ. eigenvalues --   -0.76112  -0.75132  -0.73545  -0.71932  -0.66319
  Beta  occ. eigenvalues --   -0.63848  -0.62103  -0.60870  -0.59502  -0.57037
  Beta  occ. eigenvalues --   -0.55669  -0.54552  -0.52166  -0.51227  -0.50132
  Beta  occ. eigenvalues --   -0.49584  -0.49018  -0.47589  -0.47385  -0.46512
  Beta  occ. eigenvalues --   -0.45896  -0.44643  -0.44178  -0.43226  -0.43002
  Beta  occ. eigenvalues --   -0.42362  -0.41490  -0.40787  -0.40406  -0.39991
  Beta  occ. eigenvalues --   -0.39767  -0.38398  -0.38031  -0.37673  -0.37284
  Beta  occ. eigenvalues --   -0.36875  -0.36489  -0.36162  -0.36031  -0.35870
  Beta  occ. eigenvalues --   -0.35746  -0.35366  -0.34418  -0.33539  -0.33363
  Beta  occ. eigenvalues --   -0.33008  -0.32659  -0.32205  -0.31691  -0.30812
  Beta  occ. eigenvalues --   -0.29893  -0.29826  -0.28997  -0.26794  -0.26380
  Beta virt. eigenvalues --   -0.14992  -0.14538  -0.13697  -0.13441  -0.12897
  Beta virt. eigenvalues --   -0.08910  -0.03381  -0.02840  -0.01381  -0.01299
  Beta virt. eigenvalues --   -0.00131  -0.00032   0.00126   0.01491   0.01695

 Mulliken charges and spin densities:
               1          2
     1  C   -0.363148   0.003534
     2  C    3.634670  -0.003492
     3  C   -0.461979  -0.011672
     4  C    0.007564   0.001241
     5  C    0.225236  -0.000326
     6  C   -0.146017   0.001242
     7  C   -3.019057   0.021819
     8  C    0.374358   0.002638
     9  C    0.580775   0.001304
    10  C    0.665856   0.002351
    11  C    1.124260   0.002829
    12  C   -0.925688   0.008840
    13  C    0.359436  -0.004987
    14  O   -0.272921   0.155486
    15  Fe   0.622359   4.057935
    16  Cl  -0.506823   0.249297
    17  C    0.480848   0.002245
    18  Cl  -0.463752   0.255437
    19  Cl  -0.476495   0.248963
    20  H   -0.308061   0.000721
    21  H   -0.166724  -0.000025
    22  H   -0.162359   0.000025
    23  H   -0.158168   0.000056
    24  H   -0.195314   0.000009
    25  H   -0.211927   0.000155
    26  C    0.965298   0.003040
    27  H   -0.145301   0.000485
    28  H   -0.060991   0.000028
    29  H   -0.086630  -0.000048
    30  H   -0.110405   0.000343
    31  H   -0.199348   0.000800
    32  H    0.046975  -0.000130
    33  H    0.065734  -0.000546
    34  H    0.034795  -0.000371
    35  H    0.070042   0.002128
    36  H    0.055813  -0.000457
    37  H    0.054395  -0.000144
    38  O   -0.705276  -0.000748
    39  O   -0.660278   0.000747
    40  C    0.421812  -0.001107
    41  C    0.059270   0.000881
    42  H   -0.040357   0.000007
    43  H   -0.049077   0.000001
    44  H   -0.004940   0.000057
    45  H    0.021904  -0.000012
    46  H    0.029636  -0.000581
 Sum of Mulliken charges =  -0.00000   5.00000

 Dipole moment (field-independent basis, Debye):
    X=              4.1965    Y=            -10.4235    Z=             -5.5364  Tot=             12.5264
 Quadrupole moment (field-independent basis, Debye-Ang):
   XX=           -203.2309   YY=           -147.9990   ZZ=           -167.3431
   XY=             17.6627   XZ=              9.6500   YZ=              8.1032

 Normal termination of Gaussian 16 at Sun Jun 20 07:55:38 2021.
