 Gaussian 16, Revision A.03,

 -----------------------------------------------------------
 #p opt=modredundant freq=noraman ub3lyp jul-cc-pvdz pop=cm5
 -----------------------------------------------------------

 -----
 title
 -----
 Symbolic Z-matrix:
 Charge =  0 Multiplicity = 6

 SCF Done:  E(UB3LYP) =  -3531.45030285     A.U. after   24 cycles
 SCF Done:  E(UB3LYP) =  -3531.45056690     A.U. after   18 cycles
 SCF Done:  E(UB3LYP) =  -3531.44937123     A.U. after   16 cycles
 SCF Done:  E(UB3LYP) =  -3531.45072458     A.U. after   15 cycles
 SCF Done:  E(UB3LYP) =  -3531.45065687     A.U. after   16 cycles
 SCF Done:  E(UB3LYP) =  -3531.45094789     A.U. after   15 cycles
 SCF Done:  E(UB3LYP) =  -3531.45095704     A.U. after   13 cycles
 SCF Done:  E(UB3LYP) =  -3531.45096093     A.U. after   12 cycles
 SCF Done:  E(UB3LYP) =  -3531.45096291     A.U. after   11 cycles
 SCF Done:  E(UB3LYP) =  -3531.45096370     A.U. after   11 cycles
 SCF Done:  E(UB3LYP) =  -3531.45096444     A.U. after   10 cycles
 SCF Done:  E(UB3LYP) =  -3531.45096444     A.U. after   10 cycles
 SCF Done:  E(UB3LYP) =  -3531.45096470     A.U. after   11 cycles
 SCF Done:  E(UB3LYP) =  -3531.45096440     A.U. after   12 cycles
 SCF Done:  E(UB3LYP) =  -3531.45096436     A.U. after   10 cycles
 SCF Done:  E(UB3LYP) =  -3531.45096467     A.U. after   12 cycles
 SCF Done:  E(UB3LYP) =  -3531.45096428     A.U. after   12 cycles
 Optimization completed.
    -- Stationary point found.
 Normal termination of Gaussian 16 at Sun Jun 20 17:43:00 2021.

 ----------------------------------------------------------------------
 #P Geom=AllCheck Guess=TCheck SCRF=Check GenChk UB3LYP/Jul-CC-pVDZ Fre
 q
 ----------------------------------------------------------------------

 Structure from the checkpoint file:  "checkpoint.chk"
 -----
 title
 -----
 Charge =  0 Multiplicity = 6

 SCF Done:  E(UB3LYP) =  -3531.45096428     A.U. after    1 cycles

  Exact polarizability: 314.197  11.037 290.250  24.166 -12.696 303.745
 Approx polarizability: 503.668  36.428 423.857  44.585 -32.765 487.126

 ******    1 imaginary frequencies (negative Signs) ******

                      1                      2                      3
                      A                      A                      A
 Frequencies --    -14.3776                17.3728                19.3865
 Red. masses --      4.6305                 5.6030                 8.5956
 Frc consts  --      0.0006                 0.0010                 0.0019
 IR Inten    --      0.1444                 2.0972                 0.2004

                      4                      5                      6
                      A                      A                      A
 Frequencies --     29.6180                42.6983                50.0500
 Red. masses --      8.1647                 6.3508                 5.3429
 Frc consts  --      0.0042                 0.0068                 0.0079
 IR Inten    --      0.6455                 1.4607                 0.3384

                      7                      8                      9
                      A                      A                      A
 Frequencies --     62.9736                64.0658                75.5344
 Red. masses --      4.9846                 2.9065                 4.5606
 Frc consts  --      0.0116                 0.0070                 0.0153
 IR Inten    --      0.3191                 0.5881                 0.4937

                     10                     11                     12
                      A                      A                      A
 Frequencies --     80.2378                86.0147                90.1413
 Red. masses --      9.3373                 6.3306                 3.6820
 Frc consts  --      0.0354                 0.0276                 0.0176
 IR Inten    --      0.1604                 1.9393                 0.4353

                     13                     14                     15
                      A                      A                      A
 Frequencies --     98.5924               106.1439               112.3806
 Red. masses --      3.8137                 2.7249                 6.5349
 Frc consts  --      0.0218                 0.0181                 0.0486
 IR Inten    --      0.9423                 0.2338                 0.4104

                     16                     17                     18
                      A                      A                      A
 Frequencies --    115.8116               121.5180               141.5228
 Red. masses --      9.3356                11.7538                 2.1421
 Frc consts  --      0.0738                 0.1023                 0.0253
 IR Inten    --      1.2778                 1.4898                 5.3964

                     19                     20                     21
                      A                      A                      A
 Frequencies --    149.0121               152.9203               174.5071
 Red. masses --      4.0231                 1.9388                 4.5752
 Frc consts  --      0.0526                 0.0267                 0.0821
 IR Inten    --      4.5964                 1.4852                10.9984

                     22                     23                     24
                      A                      A                      A
 Frequencies --    199.5445               204.3927               217.2646
 Red. masses --      1.2173                 3.0230                 3.3431
 Frc consts  --      0.0286                 0.0744                 0.0930
 IR Inten    --      2.7153                 2.4090                 2.2595

                     25                     26                     27
                      A                      A                      A
 Frequencies --    257.2317               258.1502               275.5738
 Red. masses --      1.6990                 2.3628                 4.4243
 Frc consts  --      0.0662                 0.0928                 0.1980
 IR Inten    --      5.6737                 7.3008                 2.0697

                     28                     29                     30
                      A                      A                      A
 Frequencies --    301.4654               318.1709               344.3320
 Red. masses --      9.0103                 2.3919                29.0299
 Frc consts  --      0.4825                 0.1427                 2.0279
 IR Inten    --     20.3204                 1.2444                34.9665

                     31                     32                     33
                      A                      A                      A
 Frequencies --    357.7419               382.5429               388.6826
 Red. masses --      4.4185                 2.9184                 4.0052
 Frc consts  --      0.3332                 0.2516                 0.3565
 IR Inten    --     19.4148                 2.7958                 4.0884

                     34                     35                     36
                      A                      A                      A
 Frequencies --    401.5405               408.1500               411.7339
 Red. masses --     28.1228                 9.3117                 3.9201
 Frc consts  --      2.6716                 0.9139                 0.3915
 IR Inten    --     78.3883                59.6037                23.5085

                     37                     38                     39
                      A                      A                      A
 Frequencies --    424.6517               438.7669               467.2173
 Red. masses --      3.5545                 2.7441                 3.4907
 Frc consts  --      0.3777                 0.3113                 0.4489
 IR Inten    --     16.0122                 7.0376                 0.7363

                     40                     41                     42
                      A                      A                      A
 Frequencies --    492.2605               512.4823               549.5005
 Red. masses --      2.4067                 2.8016                 3.8151
 Frc consts  --      0.3436                 0.4335                 0.6787
 IR Inten    --      5.5717                 0.5433                16.9501

                     43                     44                     45
                      A                      A                      A
 Frequencies --    565.9529               623.0661               669.0699
 Red. masses --      5.2596                 6.4126                 4.8921
 Frc consts  --      0.9926                 1.4667                 1.2903
 IR Inten    --     40.5438                 1.4578                20.6357

                     46                     47                     48
                      A                      A                      A
 Frequencies --    688.3942               697.0174               748.5422
 Red. masses --      5.4679                 1.5695                 4.1780
 Frc consts  --      1.5267                 0.4493                 1.3793
 IR Inten    --      3.4973                61.7424                 5.7157

                     49                     50                     51
                      A                      A                      A
 Frequencies --    775.5522               780.0336               806.0448
 Red. masses --      2.5291                 2.1291                 1.1279
 Frc consts  --      0.8963                 0.7633                 0.4318
 IR Inten    --     23.3710                 3.2578                 1.2603

                     52                     53                     54
                      A                      A                      A
 Frequencies --    835.5131               839.2468               853.6045
 Red. masses --      2.3988                 2.1346                 1.2587
 Frc consts  --      0.9866                 0.8858                 0.5404
 IR Inten    --     12.2055                12.8424                 1.6848

                     55                     56                     57
                      A                      A                      A
 Frequencies --    862.4644               895.5054               900.6381
 Red. masses --      2.7664                 2.2946                 2.2009
 Frc consts  --      1.2124                 1.0842                 1.0518
 IR Inten    --     17.9936                 3.9980                16.5074

                     58                     59                     60
                      A                      A                      A
 Frequencies --    960.4679               963.9384               979.5787
 Red. masses --      1.4092                 1.5611                 2.9828
 Frc consts  --      0.7659                 0.8546                 1.6864
 IR Inten    --      1.1332                 3.6597                16.3465

                     61                     62                     63
                      A                      A                      A
 Frequencies --    992.1811               998.3355              1000.4772
 Red. masses --      2.6934                 1.3326                 1.9812
 Frc consts  --      1.5622                 0.7825                 1.1684
 IR Inten    --     28.3782                 4.1931                 3.4503

                     64                     65                     66
                      A                      A                      A
 Frequencies --   1002.2507              1015.9163              1018.1992
 Red. masses --      2.1410                 1.3573                 2.0841
 Frc consts  --      1.2671                 0.8254                 1.2730
 IR Inten    --      0.4388                 0.6881                 0.0946

                     67                     68                     69
                      A                      A                      A
 Frequencies --   1035.7533              1046.3325              1078.0584
 Red. masses --      2.6107                 2.4378                 2.0802
 Frc consts  --      1.6501                 1.5725                 1.4244
 IR Inten    --     44.4074                 2.5128                 0.4886

                     70                     71                     72
                      A                      A                      A
 Frequencies --   1093.6795              1096.3437              1117.7859
 Red. masses --      2.6571                 1.7116                 1.5797
 Frc consts  --      1.8725                 1.2121                 1.1629
 IR Inten    --     17.8966                 1.8169                 5.1522

                     73                     74                     75
                      A                      A                      A
 Frequencies --   1133.2692              1134.4571              1164.2162
 Red. masses --      2.1660                 2.0581                 1.6655
 Frc consts  --      1.6390                 1.5606                 1.3301
 IR Inten    --     16.3596                 9.8520                91.1076

                     76                     77                     78
                      A                      A                      A
 Frequencies --   1169.3776              1179.8885              1208.7713
 Red. masses --      1.5574                 1.0852                 1.1717
 Frc consts  --      1.2548                 0.8901                 1.0087
 IR Inten    --      5.6446                 1.2974                32.0295

                     79                     80                     81
                      A                      A                      A
 Frequencies --   1210.5172              1226.4868              1253.9753
 Red. masses --      1.8633                 1.8870                 1.9569
 Frc consts  --      1.6087                 1.6724                 1.8130
 IR Inten    --    126.4245               132.2229                46.9060

                     82                     83                     84
                      A                      A                      A
 Frequencies --   1280.6403              1284.9386              1317.4842
 Red. masses --      1.5134                 1.3158                 1.3744
 Frc consts  --      1.4624                 1.2800                 1.4055
 IR Inten    --    103.1351                46.2921                 9.2680

                     85                     86                     87
                      A                      A                      A
 Frequencies --   1328.0266              1339.3562              1344.2261
 Red. masses --      1.9482                 1.4748                 1.6188
 Frc consts  --      2.0244                 1.5588                 1.7234
 IR Inten    --    119.9347                11.2177                34.0628

                     88                     89                     90
                      A                      A                      A
 Frequencies --   1366.4867              1371.9201              1376.7017
 Red. masses --      1.4370                 3.1628                 1.3601
 Frc consts  --      1.5810                 3.5073                 1.5188
 IR Inten    --      7.7244                 9.2185                 1.1993

                     91                     92                     93
                      A                      A                      A
 Frequencies --   1379.9344              1406.0743              1411.6701
 Red. masses --      1.3502                 1.4126                 1.2859
 Frc consts  --      1.5148                 1.6454                 1.5098
 IR Inten    --     16.2864                 7.0350                11.1987

                     94                     95                     96
                      A                      A                      A
 Frequencies --   1415.8847              1462.6659              1467.1536
 Red. masses --      1.3911                 1.0672                 1.8760
 Frc consts  --      1.6431                 1.3452                 2.3793
 IR Inten    --     11.6526                 4.4534                20.5850

                     97                     98                     99
                      A                      A                      A
 Frequencies --   1468.4721              1474.5142              1481.4507
 Red. masses --      1.1872                 1.0384                 1.0847
 Frc consts  --      1.5084                 1.3302                 1.4026
 IR Inten    --      7.6894                 5.3991                 2.5837

                    100                    101                    102
                      A                      A                      A
 Frequencies --   1482.3591              1486.9350              1487.3546
 Red. masses --      1.0458                 1.0641                 1.0785
 Frc consts  --      1.3539                 1.3862                 1.4057
 IR Inten    --     13.6772                 6.3436                 3.1763

                    103                    104                    105
                      A                      A                      A
 Frequencies --   1491.2872              1505.5513              1518.7399
 Red. masses --      1.0842                 1.0828                 2.1681
 Frc consts  --      1.4206                 1.4460                 2.9464
 IR Inten    --     10.2078                 6.5096                 7.0113

                    106                    107                    108
                      A                      A                      A
 Frequencies --   1574.0124              1620.9660              1643.0981
 Red. masses --      7.1908                 5.5586                 5.7901
 Frc consts  --     10.4965                 8.6053                 9.2101
 IR Inten    --    631.0067                75.5639                43.3748

                    109                    110                    111
                      A                      A                      A
 Frequencies --   1719.5151              1771.0920              3014.4276
 Red. masses --      6.4958                11.6702                 1.0383
 Frc consts  --     11.3160                21.5681                 5.5588
 IR Inten    --     29.4393               214.6655                17.1691

                    112                    113                    114
                      A                      A                      A
 Frequencies --   3025.1046              3028.3240              3042.1588
 Red. masses --      1.0463                 1.0621                 1.0355
 Frc consts  --      5.6413                 5.7390                 5.6463
 IR Inten    --     20.1379                33.8647                14.3963

                    115                    116                    117
                      A                      A                      A
 Frequencies --   3061.4367              3064.6445              3072.2643
 Red. masses --      1.0583                 1.0624                 1.0971
 Frc consts  --      5.8438                 5.8788                 6.1010
 IR Inten    --     14.3007                15.1562                 9.1654

                    118                    119                    120
                      A                      A                      A
 Frequencies --   3078.1404              3079.3168              3085.1387
 Red. masses --      1.0967                 1.0837                 1.0928
 Frc consts  --      6.1222                 6.0544                 6.1282
 IR Inten    --     12.1114                 2.6090                15.8766

                    121                    122                    123
                      A                      A                      A
 Frequencies --   3108.1078              3110.6068              3113.0147
 Red. masses --      1.1075                 1.0994                 1.1014
 Frc consts  --      6.3034                 6.2677                 6.2887
 IR Inten    --      6.6506                 5.7632                 2.9788

                    124                    125                    126
                      A                      A                      A
 Frequencies --   3118.8582              3119.0326              3134.6606
 Red. masses --      1.0924                 1.1006                 1.0984
 Frc consts  --      6.2604                 6.3085                 6.3591
 IR Inten    --     35.5739                22.5820                22.5788

                    127                    128                    129
                      A                      A                      A
 Frequencies --   3136.8112              3176.3816              3190.4508
 Red. masses --      1.1053                 1.0864                 1.0909
 Frc consts  --      6.4079                 6.4584                 6.5423
 IR Inten    --     17.8309                 1.2392                 7.0009

                    130                    131                    132
                      A                      A                      A
 Frequencies --   3198.2181              3213.9587              3219.8780
 Red. masses --      1.0955                 1.0947                 1.0940
 Frc consts  --      6.6022                 6.6621                 6.6826
 IR Inten    --      5.9439                 5.7121                 6.5740

 - Thermochemistry -
 -------------------
 Temperature   298.150 Kelvin.  Pressure   1.00000 Atm.
 Atom     1 has atomic number  6 and mass  12.00000

 Molecular mass:   434.99839 amu.
 Principal axes and moments of inertia in atomic units:
                           1         2         3
     Eigenvalues --  ******************************
           X            0.99953   0.02674   0.01509
           Y           -0.02714   0.99927   0.02691
           Z           -0.01436  -0.02730   0.99952
 This molecule is an asymmetric top.
 Rotational symmetry number  1.
 Warning -- assumption of classical behavior for rotation
           may cause significant error
 Rotational temperatures (Kelvin)      0.00851     0.00756     0.00665
 Rotational constants (GHZ):           0.17737     0.15753     0.13862
    1 imaginary frequencies ignored.
 Zero-point vibrational energy     943209.1 (Joules/Mol)
                                  225.43239 (Kcal/Mol)
 Warning -- explicit consideration of  42 degrees of freedom as
           vibrations may cause significant error
 Vibrational temperatures:     25.00    27.89    42.61    61.43    72.01
          (Kelvin)             90.60    92.18   108.68   115.44   123.76
                              129.69   141.85   152.72   161.69   166.63
                              174.84   203.62   214.40   220.02   251.08
                              287.10   294.08   312.60   370.10   371.42
                              396.49   433.74   457.78   495.42   514.71
                              550.39   559.23   577.73   587.24   592.39
                              610.98   631.29   672.22   708.25   737.35
                              790.61   814.28   896.45   962.64   990.45
                             1002.85  1076.99  1115.85  1122.29  1159.72
                             1202.12  1207.49  1228.15  1240.89  1288.43
                             1295.82  1381.90  1386.89  1409.40  1427.53
                             1436.38  1439.46  1442.02  1461.68  1464.96
                             1490.22  1505.44  1551.09  1573.56  1577.39
                             1608.24  1630.52  1632.23  1675.05  1682.47
                             1697.60  1739.15  1741.66  1764.64  1804.19
                             1842.56  1848.74  1895.57  1910.73  1927.03
                             1934.04  1966.07  1973.89  1980.77  1985.42
                             2023.03  2031.08  2037.14  2104.45  2110.91
                             2112.80  2121.50  2131.48  2132.78  2139.37
                             2139.97  2145.63  2166.15  2185.13  2264.65
                             2332.21  2364.05  2474.00  2548.21  4337.09
                             4352.45  4357.08  4376.99  4404.72  4409.34
                             4420.30  4428.76  4430.45  4438.83  4471.87
                             4475.47  4478.93  4487.34  4487.59  4510.08
                             4513.17  4570.10  4590.35  4601.52  4624.17
                             4632.69

 Zero-point correction=                           0.359249 (Hartree/Particle)
 Thermal correction to Energy=                    0.387091
 Thermal correction to Enthalpy=                  0.388035
 Thermal correction to Gibbs Free Energy=         0.295504
 Sum of electronic and zero-point Energies=          -3531.091715
 Sum of electronic and thermal Energies=             -3531.063873
 Sum of electronic and thermal Enthalpies=           -3531.062929
 Sum of electronic and thermal Free Energies=        -3531.155460

                     E (Thermal)             CV                S
                      KCal/Mol        Cal/Mol-Kelvin    Cal/Mol-Kelvin
 Total                  242.903             97.879            194.749
 Electronic               0.000              0.000              3.561
 Translational            0.889              2.981             44.100
 Rotational               0.889              2.981             35.672
 Vibrational            241.126             91.917            111.416
 Vibration     1          0.593              1.986              6.914
 Vibration     2          0.593              1.986              6.696
 Vibration     3          0.593              1.984              5.855
 Vibration     4          0.595              1.980              5.130
 Vibration     5          0.595              1.978              4.815
 Vibration     6          0.597              1.972              4.362
 Vibration     7          0.597              1.971              4.328
 Vibration     8          0.599              1.965              4.004
 Vibration     9          0.600              1.963              3.885
 Vibration    10          0.601              1.959              3.749
 Vibration    11          0.602              1.956              3.657
 Vibration    12          0.604              1.950              3.482
 Vibration    13          0.605              1.944              3.338
 Vibration    14          0.607              1.939              3.227
 Vibration    15          0.608              1.936              3.169
 Vibration    16          0.609              1.931              3.076
 Vibration    17          0.615              1.912              2.783
 Vibration    18          0.618              1.904              2.685
 Vibration    19          0.619              1.899              2.636
 Vibration    20          0.627              1.874              2.386
 Vibration    21          0.638              1.841              2.137
 Vibration    22          0.640              1.834              2.093
 Vibration    23          0.646              1.815              1.982
 Vibration    24          0.667              1.751              1.680
 Vibration    25          0.667              1.749              1.674
 Vibration    26          0.677              1.719              1.561
 Vibration    27          0.693              1.671              1.409
 Vibration    28          0.705              1.639              1.319
 Vibration    29          0.723              1.587              1.192
 Vibration    30          0.733              1.559              1.132
 Vibration    31          0.752              1.507              1.029
 Vibration    32          0.757              1.494              1.005
 Vibration    33          0.767              1.467              0.957
 Vibration    34          0.773              1.453              0.933
 Vibration    35          0.776              1.445              0.921
 Vibration    36          0.787              1.417              0.876
 Vibration    37          0.799              1.386              0.830
 Vibration    38          0.824              1.323              0.745
 Vibration    39          0.848              1.267              0.678
 Vibration    40          0.868              1.222              0.628
 Vibration    41          0.905              1.141              0.545
 Vibration    42          0.922              1.105              0.512

                           ! Non-Optimized Parameters !
 Normal termination of Gaussian 16 at Sun Jun 20 22:02:13 2021.

 ----------------------------------------------------------------------
 #p ub3lyp jul-cc-pvdz pop=cm5 scrf=(pcm,solvent=dichloroethane) guess=
 read geom=allcheck
 ----------------------------------------------------------------------

 Structure from the checkpoint file:  "checkpoint.chk"
 -----
 title
 -----
 Charge =  0 Multiplicity = 6

 SCF Done:  E(UB3LYP) =  -3531.46721944     A.U. after   17 cycles
 Normal termination of Gaussian 16 at Sun Jun 20 22:28:35 2021.
 Gaussian 16:  ES64L-G16RevA.03 25-Dec-2016

 ----------------------------------------------------------------------
 #p ub3lyp jul-cc-pvdz pop=cm5 scrf=(pcm,solvent=water) guess=read geom
 =allcheck
 ----------------------------------------------------------------------

 Structure from the checkpoint file:  "checkpoint.chk"
 -----
 title
 -----
 Charge =  0 Multiplicity = 6

                         Standard orientation:
 ---------------------------------------------------------------------
 Center     Atomic      Atomic             Coordinates (Angstroms)
 Number     Number       Type             X           Y           Z
 ---------------------------------------------------------------------
      1          6           0        2.716365   -0.280803    1.507007
      2          6           0        1.407688   -0.653512    1.129545
      3          6           0        0.615917   -1.392611    2.035835
      4          6           0        1.120990   -1.752707    3.280821
      5          6           0        2.416763   -1.369382    3.648455
      6          6           0        3.208983   -0.630384    2.762757
      7          6           0        0.831571   -0.274476   -0.169533
      8          6           0        1.674987    0.277245   -1.322071
      9          6           0        2.812903   -0.635192   -1.828948
     10          6           0        2.279919   -1.845603   -2.621429
     11          6           0        1.406002   -2.738382   -1.781734
     12          6           0        0.063488   -2.846355   -1.816235
     13          6           0       -0.830287   -2.190296   -2.835606
     14          8           0       -0.399926   -0.373453   -0.374011
     15         26           0       -2.159183    0.311210    0.304237
     16         17           0       -3.145494    1.177359   -1.453420
     17          6           0       -0.655796   -3.757726   -0.854351
     18         17           0       -1.626011    1.783969    1.848642
     19         17           0       -3.231753   -1.425277    1.135038
     20          1           0       -0.392031   -1.692387    1.754927
     21          1           0        0.501651   -2.327619    3.969604
     22          1           0        2.809252   -1.646135    4.628365
     23          1           0        4.214735   -0.323992    3.051658
     24          1           0        3.345714    0.302692    0.838948
     25          1           0        0.947705    0.425061   -2.131075
     26          6           0        2.171827    1.693890   -0.969812
     27          1           0        3.465357   -0.024649   -2.467505
     28          1           0        3.435421   -0.977470   -0.993151
     29          1           0        1.746609   -1.485835   -3.512151
     30          1           0        3.148565   -2.415071   -2.988724
     31          1           0        1.935805   -3.308911   -1.010743
     32          1           0        0.035920   -4.235122   -0.147720
     33          1           0       -1.421265   -3.208544   -0.285278
     34          1           0       -1.189376   -4.551311   -1.402255
     35          1           0       -1.326029   -2.965083   -3.442697
     36          1           0       -1.632364   -1.617678   -2.348978
     37          1           0       -0.300453   -1.517492   -3.518796
     38          8           0        1.133548    2.527059   -0.846777
     39          8           0        3.335217    2.010094   -0.844418
     40          6           0        1.435678    3.915932   -0.508637
     41          6           0        0.128425    4.679512   -0.506824
     42          1           0        1.926758    3.922206    0.473825
     43          1           0        2.148519    4.297459   -1.251358
     44          1           0        0.326078    5.728808   -0.244362
     45          1           0       -0.344396    4.653046   -1.497978
     46          1           0       -0.571261    4.259215    0.227077
 ---------------------------------------------------------------------

 SCF Done:  E(UB3LYP) =  -3531.47018810     A.U. after   14 cycles

 The electronic state is 6-A.
 Alpha  occ. eigenvalues -- -256.21978-101.53171-101.53132-101.53010 -30.21346
 Alpha  occ. eigenvalues --  -26.06824 -26.06478 -26.06443 -19.21227 -19.20572
 Alpha  occ. eigenvalues --  -19.16404 -10.34379 -10.33786 -10.25294 -10.23539
 Alpha  occ. eigenvalues --  -10.23211 -10.22467 -10.22325 -10.22287 -10.21509
 Alpha  occ. eigenvalues --  -10.21483 -10.20456 -10.19949 -10.19297 -10.18770
 Alpha  occ. eigenvalues --  -10.18113 -10.18092 -10.17924  -9.44881  -9.44850
 Alpha  occ. eigenvalues --   -9.44746  -7.20751  -7.20719  -7.20614  -7.20452
 Alpha  occ. eigenvalues --   -7.20414  -7.20414  -7.20385  -7.20296  -7.20289
 Alpha  occ. eigenvalues --   -3.68977  -2.46769  -2.46122  -2.46058  -1.13201
 Alpha  occ. eigenvalues --   -1.10815  -1.04750  -0.88995  -0.84717  -0.81904
 Alpha  occ. eigenvalues --   -0.81151  -0.80407  -0.80345  -0.79270  -0.78517
 Alpha  occ. eigenvalues --   -0.77636  -0.74983  -0.69497  -0.69016  -0.67585
 Alpha  occ. eigenvalues --   -0.64804  -0.63282  -0.61812  -0.60043  -0.57883
 Alpha  occ. eigenvalues --   -0.56670  -0.53939  -0.52627  -0.51908  -0.51101
 Alpha  occ. eigenvalues --   -0.50411  -0.49558  -0.49299  -0.49031  -0.48898
 Alpha  occ. eigenvalues --   -0.48601  -0.47559  -0.47163  -0.46759  -0.45743
 Alpha  occ. eigenvalues --   -0.45467  -0.44832  -0.44533  -0.43238  -0.43084
 Alpha  occ. eigenvalues --   -0.42393  -0.40758  -0.40485  -0.39913  -0.39493
 Alpha  occ. eigenvalues --   -0.38759  -0.38620  -0.38167  -0.37913  -0.37416
 Alpha  occ. eigenvalues --   -0.37124  -0.36947  -0.36519  -0.36452  -0.35133
 Alpha  occ. eigenvalues --   -0.35082  -0.34866  -0.33113  -0.32808  -0.32473
 Alpha  occ. eigenvalues --   -0.31896  -0.31860  -0.31739  -0.31519  -0.30600
 Alpha  occ. eigenvalues --   -0.30423  -0.30081  -0.28957  -0.28254  -0.24377
 Alpha virt. eigenvalues --   -0.11529  -0.03895  -0.02396  -0.01650  -0.00765
 Alpha virt. eigenvalues --   -0.00170  -0.00052   0.00091   0.00549   0.01550
 Alpha virt. eigenvalues --    0.01662   0.01880   0.02173   0.02674   0.03323

  Beta  occ. eigenvalues -- -256.21793-101.52967-101.52934-101.52814 -30.12419
  Beta  occ. eigenvalues --  -25.99236 -25.99107 -25.99081 -19.21226 -19.20253
  Beta  occ. eigenvalues --  -19.16400 -10.34375 -10.33756 -10.25294 -10.23525
  Beta  occ. eigenvalues --  -10.23201 -10.22462 -10.22316 -10.22282 -10.21510
  Beta  occ. eigenvalues --  -10.21486 -10.20455 -10.19943 -10.19297 -10.18769
  Beta  occ. eigenvalues --  -10.18107 -10.18092 -10.17925  -9.44681  -9.44656
  Beta  occ. eigenvalues --   -9.44554  -7.20428  -7.20399  -7.20300  -7.20160
  Beta  occ. eigenvalues --   -7.20142  -7.20138  -7.20121  -7.20028  -7.20020
  Beta  occ. eigenvalues --   -3.48151  -2.24471  -2.24338  -2.24294  -1.13190
  Beta  occ. eigenvalues --   -1.10210  -1.04742  -0.88962  -0.84665  -0.81870
  Beta  occ. eigenvalues --   -0.79863  -0.79249  -0.79015  -0.78955  -0.78507
  Beta  occ. eigenvalues --   -0.77626  -0.74947  -0.69482  -0.68908  -0.67502
  Beta  occ. eigenvalues --   -0.64776  -0.63254  -0.61548  -0.59757  -0.57789
  Beta  occ. eigenvalues --   -0.56003  -0.53450  -0.52568  -0.51804  -0.50794
  Beta  occ. eigenvalues --   -0.50139  -0.49271  -0.47479  -0.46817  -0.46375
  Beta  occ. eigenvalues --   -0.45514  -0.45008  -0.44525  -0.43251  -0.43074
  Beta  occ. eigenvalues --   -0.42384  -0.40763  -0.40485  -0.39896  -0.39342
  Beta  occ. eigenvalues --   -0.38926  -0.38644  -0.38504  -0.37996  -0.37400
  Beta  occ. eigenvalues --   -0.37130  -0.36911  -0.36770  -0.36740  -0.36439
  Beta  occ. eigenvalues --   -0.36438  -0.35042  -0.34021  -0.33852  -0.33458
  Beta  occ. eigenvalues --   -0.33125  -0.32800  -0.32394  -0.31817  -0.31052
  Beta  occ. eigenvalues --   -0.30309  -0.30253  -0.28996  -0.28233  -0.24325
  Beta virt. eigenvalues --   -0.16056  -0.15596  -0.14642  -0.14235  -0.14145
  Beta virt. eigenvalues --   -0.10568  -0.03856  -0.02361  -0.01509  -0.00673
  Beta virt. eigenvalues --   -0.00104  -0.00018   0.00138   0.00631   0.01576

 Mulliken charges and spin densities:
               1          2
     1  C   -0.097577   0.004936
     2  C    3.217468  -0.002261
     3  C   -0.680015  -0.002947
     4  C    0.110590   0.000613
     5  C    0.253146   0.009628
     6  C   -0.161673  -0.002205
     7  C   -1.702011  -0.004878
     8  C    0.148315   0.007505
     9  C    0.682197   0.002093
    10  C    0.493025  -0.000212
    11  C    0.132140   0.003843
    12  C   -0.043961   0.007951
    13  C    0.161461  -0.001712
    14  O   -0.326439   0.091576
    15  Fe   0.718858   4.069802
    16  Cl  -0.477105   0.269458
    17  C    0.166721  -0.001857
    18  Cl  -0.441088   0.273194
    19  Cl  -0.440076   0.265928
    20  H   -0.268989   0.000296
    21  H   -0.159132   0.000020
    22  H   -0.140331  -0.000137
    23  H   -0.151256   0.000078
    24  H   -0.228204  -0.000108
    25  H   -0.137041  -0.000322
    26  C    0.795926   0.005441
    27  H   -0.145589   0.000349
    28  H   -0.049221   0.000026
    29  H   -0.089399  -0.000004
    30  H   -0.127501   0.000445
    31  H   -0.245537  -0.000194
    32  H   -0.032141   0.000047
    33  H    0.048769   0.000662
    34  H   -0.023462   0.000245
    35  H   -0.021566   0.000271
    36  H    0.010666   0.000700
    37  H   -0.013613   0.000041
    38  O   -0.661346   0.000656
    39  O   -0.540630   0.001801
    40  C    0.451346  -0.000079
    41  C    0.030015  -0.000388
    42  H   -0.030371   0.000055
    43  H   -0.035134   0.000015
    44  H   -0.003879   0.000037
    45  H    0.025804   0.000035
    46  H    0.027843  -0.000445
 Sum of Mulliken charges =  -0.00000   5.00000

 Dipole moment (field-independent basis, Debye):
    X=              9.1371    Y=             -1.9636    Z=              0.4625  Tot=              9.3571
 Quadrupole moment (field-independent basis, Debye-Ang):
   XX=           -194.8025   YY=           -167.3828   ZZ=           -163.9109
   XY=             -1.7844   XZ=              8.9788   YZ=             -5.6564

 Normal termination of Gaussian 16 at Sun Jun 20 22:50:17 2021.
