 Gaussian 16, Revision A.03,

 -----------------------------------------------------------
 #p opt=modredundant freq=noraman ub3lyp jul-cc-pvdz pop=cm5
 -----------------------------------------------------------

 -----
 title
 -----
 Symbolic Z-matrix:
 Charge =  0 Multiplicity = 6

 SCF Done:  E(UB3LYP) =  -3531.43367344     A.U. after   22 cycles
 SCF Done:  E(UB3LYP) =  -3531.43334675     A.U. after   16 cycles
 SCF Done:  E(UB3LYP) =  -3531.43014483     A.U. after   16 cycles
 SCF Done:  E(UB3LYP) =  -3531.42945078     A.U. after   15 cycles
 SCF Done:  E(UB3LYP) =  -3531.43380547     A.U. after   11 cycles
 SCF Done:  E(UB3LYP) =  -3531.43353091     A.U. after   15 cycles
 SCF Done:  E(UB3LYP) =  -3531.43408458     A.U. after   16 cycles
 SCF Done:  E(UB3LYP) =  -3531.43418018     A.U. after   14 cycles
 SCF Done:  E(UB3LYP) =  -3531.43418410     A.U. after   15 cycles
 SCF Done:  E(UB3LYP) =  -3531.43420581     A.U. after   13 cycles
 SCF Done:  E(UB3LYP) =  -3531.43421223     A.U. after   12 cycles
 SCF Done:  E(UB3LYP) =  -3531.43421427     A.U. after   11 cycles
 SCF Done:  E(UB3LYP) =  -3531.43421542     A.U. after   12 cycles
 SCF Done:  E(UB3LYP) =  -3531.43421600     A.U. after   10 cycles
 SCF Done:  E(UB3LYP) =  -3531.43421647     A.U. after   11 cycles
 SCF Done:  E(UB3LYP) =  -3531.43421661     A.U. after    9 cycles
 Optimization completed.
    -- Stationary point found.
 Normal termination of Gaussian 16 at Sun Jun 20 02:54:18 2021.

 ----------------------------------------------------------------------
 #P Geom=AllCheck Guess=TCheck SCRF=Check GenChk UB3LYP/Jul-CC-pVDZ Fre
 q
 ----------------------------------------------------------------------

 Structure from the checkpoint file:  "checkpoint.chk"
 -----
 title
 -----
 Charge =  0 Multiplicity = 6

 SCF Done:  E(UB3LYP) =  -3531.43421661     A.U. after    2 cycles

  Exact polarizability: 279.199   3.535 293.886  23.749   2.347 283.802
 Approx polarizability: 408.822   2.570 462.548  44.418  -0.916 449.027

                      1                      2                      3
                      A                      A                      A
 Frequencies --     21.0579                24.8204                29.7289
 Red. masses --      8.9970                 4.6125                 5.7652
 Frc consts  --      0.0024                 0.0017                 0.0030
 IR Inten    --      0.1848                 0.6211                 0.2071

                      4                      5                      6
                      A                      A                      A
 Frequencies --     46.9142                50.1252                63.7003
 Red. masses --      5.3420                 4.1918                 2.4512
 Frc consts  --      0.0069                 0.0062                 0.0059
 IR Inten    --      1.3741                 1.1069                 0.3237

                      7                      8                      9
                      A                      A                      A
 Frequencies --     69.8773                77.8929                81.5705
 Red. masses --      5.2844                10.4040                 7.4559
 Frc consts  --      0.0152                 0.0372                 0.0292
 IR Inten    --      0.3736                 0.5428                 0.6257

                     10                     11                     12
                      A                      A                      A
 Frequencies --     87.2015               100.1523               114.6159
 Red. masses --     10.4617                 5.2692                14.7024
 Frc consts  --      0.0469                 0.0311                 0.1138
 IR Inten    --      2.0252                 0.8457                 1.1516

                     13                     14                     15
                      A                      A                      A
 Frequencies --    117.0569               118.2406               126.3456
 Red. masses --     13.2486                 4.0768                 5.1678
 Frc consts  --      0.1070                 0.0336                 0.0486
 IR Inten    --      2.5737                 1.2531                 3.1288

                     16                     17                     18
                      A                      A                      A
 Frequencies --    140.4883               165.9648               182.8477
 Red. masses --      3.8751                 2.7473                 3.9463
 Frc consts  --      0.0451                 0.0446                 0.0777
 IR Inten    --      4.5877                 0.8569                 7.0806

                     19                     20                     21
                      A                      A                      A
 Frequencies --    195.4630               210.9332               224.3211
 Red. masses --      3.4564                 1.4409                 2.6579
 Frc consts  --      0.0778                 0.0378                 0.0788
 IR Inten    --      2.5484                 1.9147                 8.3623

                     22                     23                     24
                      A                      A                      A
 Frequencies --    240.1018               252.7056               258.6896
 Red. masses --      1.9982                 2.2088                 1.5626
 Frc consts  --      0.0679                 0.0831                 0.0616
 IR Inten    --      1.4744                 2.9761                 2.0193

                     25                     26                     27
                      A                      A                      A
 Frequencies --    263.8567               295.6977               309.2832
 Red. masses --      1.8393                 3.2128                 3.0164
 Frc consts  --      0.0754                 0.1655                 0.1700
 IR Inten    --      0.3971                 8.4627                 0.5106

                     28                     29                     30
                      A                      A                      A
 Frequencies --    340.0313               342.2250               361.7007
 Red. masses --      5.0014                11.9737                 4.0768
 Frc consts  --      0.3407                 0.8262                 0.3142
 IR Inten    --      9.9648                59.4435                24.7000

                     31                     32                     33
                      A                      A                      A
 Frequencies --    374.8803               393.9699               401.1075
 Red. masses --      3.8018                12.0643                 5.1235
 Frc consts  --      0.3148                 1.1033                 0.4857
 IR Inten    --      1.4219                45.6097                41.5366

                     34                     35                     36
                      A                      A                      A
 Frequencies --    404.3068               409.5360               421.1407
 Red. masses --     12.9958                 2.9785                 3.4347
 Frc consts  --      1.2516                 0.2943                 0.3589
 IR Inten    --     60.7593                13.6452                57.8656

                     37                     38                     39
                      A                      A                      A
 Frequencies --    434.5486               471.6917               515.4970
 Red. masses --      5.6934                 4.0578                 3.1710
 Frc consts  --      0.6334                 0.5319                 0.4965
 IR Inten    --     81.5582                12.1356                12.0973

                     40                     41                     42
                      A                      A                      A
 Frequencies --    546.3435               569.5306               627.6452
 Red. masses --      3.4572                 2.4655                 6.1548
 Frc consts  --      0.6080                 0.4712                 1.4285
 IR Inten    --     13.9652                 1.6747                 0.3331

                     43                     44                     45
                      A                      A                      A
 Frequencies --    642.5028               671.0335               706.6284
 Red. masses --      4.6365                 4.7800                 1.5798
 Frc consts  --      1.1277                 1.2681                 0.4648
 IR Inten    --     15.7114                16.7644                41.6463

                     46                     47                     48
                      A                      A                      A
 Frequencies --    709.4629               756.2565               783.6450
 Red. masses --      4.3905                 2.8426                 2.8162
 Frc consts  --      1.3021                 0.9579                 1.0190
 IR Inten    --     12.6489                18.4004                18.3518

                     49                     50                     51
                      A                      A                      A
 Frequencies --    792.9915               804.5963               813.7786
 Red. masses --      4.0208                 1.3907                 3.1079
 Frc consts  --      1.4897                 0.5305                 1.2126
 IR Inten    --      9.5607                 8.2307                36.0888

                     52                     53                     54
                      A                      A                      A
 Frequencies --    839.0983               845.4519               870.8394
 Red. masses --      1.9574                 1.2612                 2.6881
 Frc consts  --      0.8120                 0.5311                 1.2011
 IR Inten    --     28.8655                 0.5779                 8.5759

                     55                     56                     57
                      A                      A                      A
 Frequencies --    902.4838               921.6755               935.8901
 Red. masses --      2.7269                 1.6017                 1.4360
 Frc consts  --      1.3086                 0.8017                 0.7410
 IR Inten    --    109.0221                 6.0915                 5.1496

                     58                     59                     60
                      A                      A                      A
 Frequencies --    944.1313               956.5639               981.6889
 Red. masses --      2.4145                 2.3070                 1.4660
 Frc consts  --      1.2681                 1.2437                 0.8324
 IR Inten    --     17.1217                 3.2873                 0.9044

                     61                     62                     63
                      A                      A                      A
 Frequencies --    982.3036              1001.6085              1004.6382
 Red. masses --      1.9198                 1.5381                 3.0252
 Frc consts  --      1.0914                 0.9092                 1.7990
 IR Inten    --     10.5136                 3.2149                 2.2053

                     64                     65                     66
                      A                      A                      A
 Frequencies --   1007.5383              1008.5092              1028.7191
 Red. masses --      1.4418                 3.3730                 2.9896
 Frc consts  --      0.8624                 2.0213                 1.8640
 IR Inten    --      0.5874                 5.7504                 8.7952

                     67                     68                     69
                      A                      A                      A
 Frequencies --   1043.7326              1054.4343              1060.3454
 Red. masses --      2.4296                 2.1086                 2.0098
 Frc consts  --      1.5594                 1.3813                 1.3314
 IR Inten    --     40.8269                 4.9526                 3.1919

                     70                     71                     72
                      A                      A                      A
 Frequencies --   1092.8279              1105.3584              1113.5280
 Red. masses --      2.8304                 1.6418                 1.8337
 Frc consts  --      1.9916                 1.1819                 1.3396
 IR Inten    --     16.7175                 4.1964                30.1291

                     73                     74                     75
                      A                      A                      A
 Frequencies --   1132.5672              1147.5795              1168.8136
 Red. masses --      2.1565                 1.6275                 1.5713
 Frc consts  --      1.6297                 1.2628                 1.2647
 IR Inten    --      7.0084                18.4404                 8.3151

                     76                     77                     78
                      A                      A                      A
 Frequencies --   1175.5461              1189.2026              1200.6016
 Red. masses --      1.0885                 2.4985                 1.5334
 Frc consts  --      0.8863                 2.0818                 1.3023
 IR Inten    --      0.4627                56.9006                13.9757

                     79                     80                     81
                      A                      A                      A
 Frequencies --   1205.5241              1213.1773              1222.5870
 Red. masses --      2.0471                 1.3105                 1.8351
 Frc consts  --      1.7529                 1.1364                 1.6161
 IR Inten    --    103.7988                 5.3059                81.4152

                     82                     83                     84
                      A                      A                      A
 Frequencies --   1258.0337              1282.6347              1286.9021
 Red. masses --      1.8019                 1.1491                 2.1038
 Frc consts  --      1.6802                 1.1138                 2.0528
 IR Inten    --     38.2548                 3.0534                35.8571

                     85                     86                     87
                      A                      A                      A
 Frequencies --   1290.7728              1306.2048              1320.5643
 Red. masses --      1.4611                 1.5990                 1.5467
 Frc consts  --      1.4343                 1.6073                 1.5891
 IR Inten    --     27.6684                14.3467                24.6668

                     88                     89                     90
                      A                      A                      A
 Frequencies --   1335.8726              1355.2362              1362.3266
 Red. masses --      1.8007                 2.3650                 1.7703
 Frc consts  --      1.8933                 2.5593                 1.9358
 IR Inten    --     14.8417                12.9391                 7.1308

                     91                     92                     93
                      A                      A                      A
 Frequencies --   1367.4306              1375.1728              1397.9412
 Red. masses --      1.4268                 1.6031                 1.6940
 Frc consts  --      1.5719                 1.7862                 1.9505
 IR Inten    --      7.8031                 2.7056                72.3008

                     94                     95                     96
                      A                      A                      A
 Frequencies --   1407.5130              1412.5313              1418.0762
 Red. masses --      1.4183                 1.2688                 1.5911
 Frc consts  --      1.6555                 1.4916                 1.8852
 IR Inten    --     27.7539                20.6057                 7.4649

                     97                     98                     99
                      A                      A                      A
 Frequencies --   1461.4414              1471.7964              1473.8258
 Red. masses --      1.0656                 2.2943                 1.0394
 Frc consts  --      1.3410                 2.9281                 1.3302
 IR Inten    --      0.5686                 9.1857                 3.6979

                    100                    101                    102
                      A                      A                      A
 Frequencies --   1479.7400              1483.5537              1487.7702
 Red. masses --      1.0593                 1.0907                 1.0523
 Frc consts  --      1.3667                 1.4144                 1.3723
 IR Inten    --      0.6082                 1.3279                 1.3417

                    103                    104                    105
                      A                      A                      A
 Frequencies --   1489.8456              1501.1429              1507.3000
 Red. masses --      1.0792                 1.0854                 1.0846
 Frc consts  --      1.4113                 1.4411                 1.4518
 IR Inten    --      6.4585                13.3882                 6.0368

                    106                    107                    108
                      A                      A                      A
 Frequencies --   1512.7812              1525.7045              1627.2648
 Red. masses --      1.0742                 2.2481                 5.7023
 Frc consts  --      1.4484                 3.0833                 8.8964
 IR Inten    --      2.3327                 3.0050                 0.5203

                    109                    110                    111
                      A                      A                      A
 Frequencies --   1648.7243              1773.6543              3027.5548
 Red. masses --      5.7337                11.5830                 1.0432
 Frc consts  --      9.1829                21.4689                 5.6341
 IR Inten    --      0.0577               200.8183                 3.0569

                    112                    113                    114
                      A                      A                      A
 Frequencies --   3038.2016              3039.9745              3058.3419
 Red. masses --      1.0433                 1.0355                 1.0585
 Frc consts  --      5.6740                 5.6382                 5.8334
 IR Inten    --     11.7959                19.8434                13.2714

                    115                    116                    117
                      A                      A                      A
 Frequencies --   3062.9576              3069.8335              3086.1741
 Red. masses --      1.0602                 1.0619                 1.0861
 Frc consts  --      5.8604                 5.8962                 6.0946
 IR Inten    --     11.0477                37.2848                 8.0953

                    118                    119                    120
                      A                      A                      A
 Frequencies --   3097.0138              3102.5171              3108.7607
 Red. masses --      1.0960                 1.1065                 1.0955
 Frc consts  --      6.1936                 6.2755                 6.2376
 IR Inten    --      4.9435                 6.9543                 6.2101

                    121                    122                    123
                      A                      A                      A
 Frequencies --   3112.1672              3115.6064              3119.9914
 Red. masses --      1.0911                 1.1022                 1.0974
 Frc consts  --      6.2262                 6.3039                 6.2939
 IR Inten    --      3.5037                20.1663                 9.3980

                    124                    125                    126
                      A                      A                      A
 Frequencies --   3121.3805              3133.3765              3152.2676
 Red. masses --      1.0976                 1.1044                 1.1050
 Frc consts  --      6.3009                 6.3886                 6.4692
 IR Inten    --     20.0343                23.1185                 3.7208

                    127                    128                    129
                      A                      A                      A
 Frequencies --   3156.0591              3169.0461              3178.5227
 Red. masses --      1.1039                 1.0847                 1.0878
 Frc consts  --      6.4782                 6.4181                 6.4751
 IR Inten    --      6.4701                 0.6988                 5.4159

                    130                    131                    132
                      A                      A                      A
 Frequencies --   3186.5636              3193.4688              3199.6182
 Red. masses --      1.0917                 1.0945                 1.0987
 Frc consts  --      6.5313                 6.5762                 6.6272
 IR Inten    --     16.7274                 5.1599                10.5130

 - Thermochemistry -
 -------------------
 Temperature   298.150 Kelvin.  Pressure   1.00000 Atm.
 Atom     1 has atomic number  6 and mass  12.00000

 Molecular mass:   434.99839 amu.
 Principal axes and moments of inertia in atomic units:
                           1         2         3
     Eigenvalues --  8963.88918********************
           X            0.99645   0.08228   0.01756
           Y           -0.08268   0.99630   0.02364
           Z           -0.01555  -0.02501   0.99957
 This molecule is an asymmetric top.
 Rotational symmetry number  1.
 Warning -- assumption of classical behavior for rotation
           may cause significant error
 Rotational temperatures (Kelvin)      0.00966     0.00751     0.00692
 Rotational constants (GHZ):           0.20133     0.15655     0.14411
 Zero-point vibrational energy     949074.3 (Joules/Mol)
                                  226.83419 (Kcal/Mol)
 Warning -- explicit consideration of  41 degrees of freedom as
           vibrations may cause significant error
 Vibrational temperatures:     30.30    35.71    42.77    67.50    72.12
          (Kelvin)             91.65   100.54   112.07   117.36   125.46
                              144.10   164.91   168.42   170.12   181.78
                              202.13   238.79   263.08   281.23   303.49
                              322.75   345.45   363.59   372.20   379.63
                              425.44   444.99   489.23   492.39   520.41
                              539.37   566.83   577.10   581.71   589.23
                              605.93   625.22   678.66   741.69   786.07
                              819.43   903.04   924.42   965.47  1016.68
                             1020.76  1088.08  1127.49  1140.94  1157.63
                             1170.85  1207.28  1216.42  1252.94  1298.47
                             1326.09  1346.54  1358.39  1376.28  1412.43
                             1413.32  1441.09  1445.45  1449.62  1451.02
                             1480.10  1501.70  1517.10  1525.60  1572.34
                             1590.36  1602.12  1629.51  1651.11  1681.66
                             1691.35  1711.00  1727.40  1734.48  1745.49
                             1759.03  1810.03  1845.43  1851.57  1857.13
                             1879.34  1900.00  1922.02  1949.88  1960.08
                             1967.43  1978.57  2011.33  2025.10  2032.32
                             2040.30  2102.69  2117.59  2120.51  2129.02
                             2134.50  2140.57  2143.56  2159.81  2168.67
                             2176.55  2195.15  2341.27  2372.15  2551.89
                             4355.98  4371.29  4373.85  4400.27  4406.91
                             4416.81  4440.32  4455.91  4463.83  4472.81
                             4477.71  4482.66  4488.97  4490.97  4508.23
                             4535.41  4540.87  4559.55  4573.19  4584.75
                             4594.69  4603.54

 Zero-point correction=                           0.361483 (Hartree/Particle)
 Thermal correction to Energy=                    0.388658
 Thermal correction to Enthalpy=                  0.389602
 Thermal correction to Gibbs Free Energy=         0.299696
 Sum of electronic and zero-point Energies=          -3531.072733
 Sum of electronic and thermal Energies=             -3531.045559
 Sum of electronic and thermal Enthalpies=           -3531.044615
 Sum of electronic and thermal Free Energies=        -3531.134521

                     E (Thermal)             CV                S
                      KCal/Mol        Cal/Mol-Kelvin    Cal/Mol-Kelvin
 Total                  243.886             97.641            189.223
 Electronic               0.000              0.000              3.561
 Translational            0.889              2.981             44.100
 Rotational               0.889              2.981             35.513
 Vibrational            242.109             91.680            106.049
 Vibration     1          0.593              1.985              6.532
 Vibration     2          0.593              1.985              6.206
 Vibration     3          0.594              1.984              5.847
 Vibration     4          0.595              1.979              4.943
 Vibration     5          0.595              1.978              4.812
 Vibration     6          0.597              1.972              4.339
 Vibration     7          0.598              1.968              4.157
 Vibration     8          0.599              1.964              3.943
 Vibration     9          0.600              1.962              3.853
 Vibration    10          0.601              1.958              3.722
 Vibration    11          0.604              1.949              3.451
 Vibration    12          0.608              1.937              3.189
 Vibration    13          0.608              1.935              3.148
 Vibration    14          0.608              1.934              3.129
 Vibration    15          0.611              1.927              3.001
 Vibration    16          0.615              1.913              2.797
 Vibration    17          0.624              1.884              2.481
 Vibration    18          0.630              1.863              2.299
 Vibration    19          0.636              1.846              2.175
 Vibration    20          0.643              1.824              2.036
 Vibration    21          0.649              1.804              1.924
 Vibration    22          0.657              1.779              1.802
 Vibration    23          0.664              1.758              1.712
 Vibration    24          0.668              1.748              1.671
 Vibration    25          0.670              1.739              1.636
 Vibration    26          0.690              1.682              1.441
 Vibration    27          0.699              1.656              1.366
 Vibration    28          0.720              1.595              1.212
 Vibration    29          0.721              1.591              1.202
 Vibration    30          0.736              1.551              1.115
 Vibration    31          0.746              1.524              1.060
 Vibration    32          0.761              1.483              0.985
 Vibration    33          0.767              1.468              0.959
 Vibration    34          0.769              1.461              0.947
 Vibration    35          0.774              1.450              0.928
 Vibration    36          0.784              1.424              0.888
 Vibration    37          0.795              1.395              0.844
 Vibration    38          0.829              1.313              0.733
 Vibration    39          0.871              1.216              0.620
 Vibration    40          0.902              1.148              0.552
 Vibration    41          0.926              1.097              0.505

 Optimization completed.
    -- Stationary point found.
 Normal termination of Gaussian 16 at Sun Jun 20 06:23:33 2021.

 ----------------------------------------------------------------------
 #p ub3lyp jul-cc-pvdz pop=cm5 scrf=(pcm,solvent=dichloroethane) guess=
 read geom=allcheck
 ----------------------------------------------------------------------

 Structure from the checkpoint file:  "checkpoint.chk"
 -----
 title
 -----
 Charge =  0 Multiplicity = 6

 SCF Done:  E(UB3LYP) =  -3531.45295808     A.U. after   17 cycles
 Normal termination of Gaussian 16 at Sun Jun 20 06:44:35 2021.
 Gaussian 16:  ES64L-G16RevA.03 25-Dec-2016

 ----------------------------------------------------------------------
 #p ub3lyp jul-cc-pvdz pop=cm5 scrf=(pcm,solvent=water) guess=read geom
 =allcheck
 ----------------------------------------------------------------------

 Structure from the checkpoint file:  "checkpoint.chk"
 -----
 title
 -----
 Charge =  0 Multiplicity = 6

                         Standard orientation:
 ---------------------------------------------------------------------
 Center     Atomic      Atomic             Coordinates (Angstroms)
 Number     Number       Type             X           Y           Z
 ---------------------------------------------------------------------
      1          6           0        1.769236   -2.168632    1.637150
      2          6           0        1.193874   -1.053701    1.012224
      3          6           0        1.214856    0.176924    1.686130
      4          6           0        1.766380    0.281208    2.963041
      5          6           0        2.331164   -0.838302    3.581368
      6          6           0        2.338284   -2.062092    2.910193
      7          6           0        0.618986   -1.153386   -0.387485
      8          6           0        1.561505   -0.595129   -1.520395
      9          6           0        2.213992   -1.871106   -2.080880
     10          6           0        1.086759   -2.923265   -2.066568
     11          6           0        0.184375   -2.500022   -0.885173
     12          6           0       -1.267807   -2.033504   -1.143965
     13          6           0       -1.738674   -1.780803   -2.549403
     14          8           0       -0.752524   -0.549862   -0.493362
     15         26           0       -1.969531    0.840922    0.320373
     16         17           0       -3.754868    0.794549   -0.983166
     17          6           0       -2.306275   -2.626922   -0.230407
     18         17           0       -1.016921    2.822765    0.263769
     19         17           0       -2.471603    0.176574    2.355347
     20          1           0        0.797735    1.068451    1.219752
     21          1           0        1.752760    1.243591    3.475971
     22          1           0        2.764897   -0.755591    4.578894
     23          1           0        2.783997   -2.942018    3.376049
     24          1           0        1.795940   -3.136038    1.136004
     25          1           0        0.905372   -0.133805   -2.268529
     26          6           0        2.595576    0.441264   -1.106237
     27          1           0        2.640208   -1.707427   -3.078925
     28          1           0        3.039694   -2.164331   -1.419196
     29          1           0        0.535996   -2.919087   -3.015371
     30          1           0        1.475276   -3.940680   -1.933112
     31          1           0        0.173061   -3.263278   -0.101482
     32          1           0       -2.472525   -3.666887   -0.555668
     33          1           0       -1.969271   -2.642313    0.811785
     34          1           0       -3.260196   -2.090954   -0.296827
     35          1           0       -1.971751   -2.751262   -3.015185
     36          1           0       -2.654205   -1.178975   -2.537995
     37          1           0       -0.988140   -1.275101   -3.165346
     38          8           0        2.147738    1.690103   -1.324433
     39          8           0        3.694861    0.176936   -0.667446
     40          6           0        3.051287    2.773578   -0.965640
     41          6           0        2.425570    4.070496   -1.436543
     42          1           0        3.192364    2.750532    0.123704
     43          1           0        4.024049    2.580179   -1.436814
     44          1           0        3.081575    4.909457   -1.162713
     45          1           0        2.299393    4.072678   -2.528254
     46          1           0        1.444098    4.225722   -0.970122
 ---------------------------------------------------------------------

 SCF Done:  E(UB3LYP) =  -3531.45663391     A.U. after   14 cycles

 The electronic state is 6-A.
 Alpha  occ. eigenvalues -- -256.21768-101.53126-101.53053-101.52930 -30.21125
 Alpha  occ. eigenvalues --  -26.06537 -26.06324 -26.06228 -19.20784 -19.20316
 Alpha  occ. eigenvalues --  -19.15190 -10.32808 -10.29429 -10.28529 -10.24746
 Alpha  occ. eigenvalues --  -10.21904 -10.21555 -10.21281 -10.20567 -10.20322
 Alpha  occ. eigenvalues --  -10.20304 -10.20265 -10.20229 -10.19936 -10.19895
 Alpha  occ. eigenvalues --  -10.19763 -10.19721 -10.18591  -9.44843  -9.44779
 Alpha  occ. eigenvalues --   -9.44657  -7.20711  -7.20650  -7.20529  -7.20407
 Alpha  occ. eigenvalues --   -7.20379  -7.20345  -7.20306  -7.20209  -7.20199
 Alpha  occ. eigenvalues --   -3.68749  -2.46387  -2.46055  -2.45830  -1.12030
 Alpha  occ. eigenvalues --   -1.05829  -1.03581  -0.88028  -0.86168  -0.82994
 Alpha  occ. eigenvalues --   -0.81144  -0.80385  -0.80274  -0.78757  -0.77796
 Alpha  occ. eigenvalues --   -0.76215  -0.74807  -0.72410  -0.71784  -0.66304
 Alpha  occ. eigenvalues --   -0.63979  -0.62255  -0.60931  -0.59550  -0.57082
 Alpha  occ. eigenvalues --   -0.56186  -0.54175  -0.53169  -0.51402  -0.50559
 Alpha  occ. eigenvalues --   -0.50050  -0.49323  -0.48993  -0.48942  -0.48741
 Alpha  occ. eigenvalues --   -0.48280  -0.47774  -0.47101  -0.46297  -0.46144
 Alpha  occ. eigenvalues --   -0.45266  -0.44750  -0.43931  -0.43257  -0.42905
 Alpha  occ. eigenvalues --   -0.41983  -0.40924  -0.40365  -0.40231  -0.39891
 Alpha  occ. eigenvalues --   -0.39562  -0.38592  -0.37883  -0.37369  -0.37195
 Alpha  occ. eigenvalues --   -0.36879  -0.36547  -0.36066  -0.35607  -0.35108
 Alpha  occ. eigenvalues --   -0.34958  -0.34562  -0.34104  -0.33870  -0.32146
 Alpha  occ. eigenvalues --   -0.31769  -0.31576  -0.31505  -0.31355  -0.31228
 Alpha  occ. eigenvalues --   -0.30381  -0.30310  -0.29313  -0.26906  -0.26617
 Alpha virt. eigenvalues --   -0.03871  -0.03038  -0.02351  -0.01461  -0.01354
 Alpha virt. eigenvalues --   -0.00168  -0.00041   0.00114   0.01499   0.01709
 Alpha virt. eigenvalues --    0.01762   0.01839   0.02382   0.03211   0.03741

  Beta  occ. eigenvalues -- -256.21583-101.52928-101.52853-101.52730 -30.12214
  Beta  occ. eigenvalues --  -25.98995 -25.98940 -25.98871 -19.20421 -19.20316
  Beta  occ. eigenvalues --  -19.15188 -10.32808 -10.29415 -10.28503 -10.24746
  Beta  occ. eigenvalues --  -10.21898 -10.21552 -10.21272 -10.20565 -10.20322
  Beta  occ. eigenvalues --  -10.20303 -10.20264 -10.20229 -10.19935 -10.19892
  Beta  occ. eigenvalues --  -10.19761 -10.19718 -10.18589  -9.44649  -9.44583
  Beta  occ. eigenvalues --   -9.44461  -7.20397  -7.20325  -7.20207  -7.20125
  Beta  occ. eigenvalues --   -7.20113  -7.20063  -7.20046  -7.19934  -7.19928
  Beta  occ. eigenvalues --   -3.47958  -2.24246  -2.24182  -2.24103  -1.12028
  Beta  occ. eigenvalues --   -1.05191  -1.03578  -0.87951  -0.86069  -0.82930
  Beta  occ. eigenvalues --   -0.79865  -0.79035  -0.78891  -0.78718  -0.77757
  Beta  occ. eigenvalues --   -0.76207  -0.74780  -0.72341  -0.71706  -0.66279
  Beta  occ. eigenvalues --   -0.63932  -0.62234  -0.60868  -0.59465  -0.57052
  Beta  occ. eigenvalues --   -0.55603  -0.54064  -0.52609  -0.51281  -0.50087
  Beta  occ. eigenvalues --   -0.49614  -0.49076  -0.47513  -0.46792  -0.46377
  Beta  occ. eigenvalues --   -0.45264  -0.44761  -0.43937  -0.43296  -0.42914
  Beta  occ. eigenvalues --   -0.41974  -0.40945  -0.40282  -0.40171  -0.39871
  Beta  occ. eigenvalues --   -0.39007  -0.38582  -0.38103  -0.37393  -0.37250
  Beta  occ. eigenvalues --   -0.37048  -0.36722  -0.36582  -0.36510  -0.35992
  Beta  occ. eigenvalues --   -0.35619  -0.34989  -0.34272  -0.34032  -0.33792
  Beta  occ. eigenvalues --   -0.33666  -0.33046  -0.32683  -0.31854  -0.31359
  Beta  occ. eigenvalues --   -0.30494  -0.30209  -0.29281  -0.26894  -0.26598
  Beta virt. eigenvalues --   -0.15765  -0.15316  -0.14288  -0.14142  -0.13859
  Beta virt. eigenvalues --   -0.03772  -0.02983  -0.01924  -0.01372  -0.01298
  Beta virt. eigenvalues --   -0.00103  -0.00018   0.00140   0.01525   0.01737

 Mulliken charges and spin densities:
               1          2
     1  C   -0.334034   0.004847
     2  C    3.499785  -0.004586
     3  C   -0.407743  -0.014842
     4  C   -0.006234   0.000722
     5  C    0.259886  -0.000264
     6  C   -0.184131   0.001397
     7  C   -2.650245   0.026426
     8  C    0.267788  -0.000310
     9  C    0.549728   0.000896
    10  C    0.642021   0.001860
    11  C    0.903671  -0.000063
    12  C   -0.935472   0.012114
    13  C    0.428461  -0.003513
    14  O   -0.226613   0.093512
    15  Fe   0.561188   4.059569
    16  Cl  -0.469095   0.273720
    17  C    0.541900   0.002257
    18  Cl  -0.440539   0.273925
    19  Cl  -0.438600   0.267859
    20  H   -0.315570   0.000685
    21  H   -0.165478  -0.000007
    22  H   -0.162283   0.000020
    23  H   -0.157300   0.000024
    24  H   -0.188165  -0.000022
    25  H   -0.217598   0.000014
    26  C    1.025079   0.002042
    27  H   -0.141241   0.000298
    28  H   -0.060756   0.000003
    29  H   -0.094065  -0.000040
    30  H   -0.121504   0.000338
    31  H   -0.214375   0.001030
    32  H    0.012356   0.000054
    33  H    0.048790  -0.000707
    34  H    0.031545   0.000211
    35  H    0.035495   0.001881
    36  H    0.023383  -0.000212
    37  H    0.036433  -0.000261
    38  O   -0.700250  -0.000947
    39  O   -0.667969   0.000542
    40  C    0.416110  -0.001036
    41  C    0.059627   0.001187
    42  H   -0.040239   0.000024
    43  H   -0.048996  -0.000002
    44  H   -0.003764   0.000065
    45  H    0.021840  -0.000005
    46  H    0.027172  -0.000707
 Sum of Mulliken charges =  -0.00000   5.00000

 Dipole moment (field-independent basis, Debye):
    X=              4.1360    Y=             -7.8952    Z=             -4.7129  Tot=             10.0822
 Quadrupole moment (field-independent basis, Debye-Ang):
   XX=           -200.4657   YY=           -154.6541   ZZ=           -166.8921
   XY=             16.2086   XZ=              7.7606   YZ=              6.0957

 Normal termination of Gaussian 16 at Sun Jun 20 07:01:58 2021.
