 Gaussian 16, Revision A.03,

 -----------------------------------------------------------
 #p opt=modredundant freq=noraman ub3lyp jul-cc-pvdz pop=cm5
 -----------------------------------------------------------

 -----
 title
 -----
 Symbolic Z-matrix:
 Charge =  0 Multiplicity = 6

 SCF Done:  E(UB3LYP) =  -3531.40736084     A.U. after   25 cycles
 SCF Done:  E(UB3LYP) =  -3531.40782043     A.U. after   15 cycles
 SCF Done:  E(UB3LYP) =  -3531.40700321     A.U. after   15 cycles
 SCF Done:  E(UB3LYP) =  -3531.40794674     A.U. after   15 cycles
 SCF Done:  E(UB3LYP) =  -3531.40789454     A.U. after   14 cycles
 SCF Done:  E(UB3LYP) =  -3531.40799666     A.U. after   14 cycles
 SCF Done:  E(UB3LYP) =  -3531.40801885     A.U. after   14 cycles
 SCF Done:  E(UB3LYP) =  -3531.40803250     A.U. after   14 cycles
 SCF Done:  E(UB3LYP) =  -3531.40803624     A.U. after   12 cycles
 SCF Done:  E(UB3LYP) =  -3531.40804012     A.U. after   12 cycles
 SCF Done:  E(UB3LYP) =  -3531.40804127     A.U. after   10 cycles
 SCF Done:  E(UB3LYP) =  -3531.40804172     A.U. after    9 cycles
 SCF Done:  E(UB3LYP) =  -3531.40804199     A.U. after   10 cycles
 SCF Done:  E(UB3LYP) =  -3531.40804190     A.U. after    8 cycles
 Optimization completed.
    -- Stationary point found.
 Normal termination of Gaussian 16 at Sun Jun 20 01:49:19 2021.

 ----------------------------------------------------------------------
 #P Geom=AllCheck Guess=TCheck SCRF=Check GenChk UB3LYP/Jul-CC-pVDZ Fre
 q
 ----------------------------------------------------------------------

 Structure from the checkpoint file:  "checkpoint.chk"
 -----
 title
 -----
 Charge =  0 Multiplicity = 6

 SCF Done:  E(UB3LYP) =  -3531.40804190     A.U. after    2 cycles

  Exact polarizability: 322.807   6.307 288.130  14.607  15.048 288.367
 Approx polarizability: 489.633  10.472 431.790  14.692  34.467 475.329

 ******    1 imaginary frequencies (negative Signs) ******

                      1                      2                      3
                      A                      A                      A
 Frequencies --   -493.0828                13.5870                23.4660
 Red. masses --     10.1473                 5.2845                 6.3023
 Frc consts  --      1.4536                 0.0006                 0.0020
 IR Inten    --    183.3595                 0.8976                 1.0564

                      4                      5                      6
                      A                      A                      A
 Frequencies --     34.9548                42.8289                49.3184
 Red. masses --      4.4064                 7.8115                 3.8213
 Frc consts  --      0.0032                 0.0084                 0.0055
 IR Inten    --      0.2283                 1.1000                 0.8040

                      7                      8                      9
                      A                      A                      A
 Frequencies --     56.9591                63.9142                71.2581
 Red. masses --      2.7014                 6.7726                 6.2832
 Frc consts  --      0.0052                 0.0163                 0.0188
 IR Inten    --      0.4708                 0.8786                 2.0225

                     10                     11                     12
                      A                      A                      A
 Frequencies --     84.7018                87.8760                99.1002
 Red. masses --     11.5357                 7.7068                 8.9231
 Frc consts  --      0.0488                 0.0351                 0.0516
 IR Inten    --      1.1341                 0.9934                 0.4579

                     13                     14                     15
                      A                      A                      A
 Frequencies --    109.5969               117.1089               120.7718
 Red. masses --      8.4197                 3.2991                14.1009
 Frc consts  --      0.0596                 0.0267                 0.1212
 IR Inten    --      6.6052                 0.5738                 0.7357

                     16                     17                     18
                      A                      A                      A
 Frequencies --    131.9806               149.6708               161.5992
 Red. masses --      6.9550                 3.8439                 1.3352
 Frc consts  --      0.0714                 0.0507                 0.0205
 IR Inten    --      2.1853                 0.7986                 2.8189

                     19                     20                     21
                      A                      A                      A
 Frequencies --    170.9347               179.6994               198.3108
 Red. masses --      2.6238                 2.3585                 2.1383
 Frc consts  --      0.0452                 0.0449                 0.0495
 IR Inten    --      2.8098                 4.8929                 2.7457

                     22                     23                     24
                      A                      A                      A
 Frequencies --    214.1644               218.0396               234.1899
 Red. masses --      1.4433                 3.1194                 3.4567
 Frc consts  --      0.0390                 0.0874                 0.1117
 IR Inten    --      2.5470                 9.2825                 8.8173

                     25                     26                     27
                      A                      A                      A
 Frequencies --    251.7583               259.7831               293.7156
 Red. masses --      2.5288                 2.1428                 4.3487
 Frc consts  --      0.0944                 0.0852                 0.2210
 IR Inten    --      9.1859                 8.1895                 2.9209

                     28                     29                     30
                      A                      A                      A
 Frequencies --    308.1412               323.1883               335.9259
 Red. masses --      3.0101                 3.6608                27.0850
 Frc consts  --      0.1684                 0.2253                 1.8008
 IR Inten    --     10.9730                24.9449                43.0207

                     31                     32                     33
                      A                      A                      A
 Frequencies --    358.2335               375.2338               377.2519
 Red. masses --      6.3334                 3.7506                27.6367
 Frc consts  --      0.4789                 0.3111                 2.3174
 IR Inten    --      4.6476                 8.4218                80.0810

                     34                     35                     36
                      A                      A                      A
 Frequencies --    394.3612               408.2584               410.5297
 Red. masses --     23.9630                 3.2788                 2.9260
 Frc consts  --      2.1957                 0.3220                 0.2905
 IR Inten    --     76.9412                14.1295                 0.9155

                     37                     38                     39
                      A                      A                      A
 Frequencies --    426.4548               464.9949               469.2118
 Red. masses --      4.0556                 3.9062                 3.6171
 Frc consts  --      0.4346                 0.4976                 0.4692
 IR Inten    --     17.3198                 0.4899                29.1156

                     40                     41                     42
                      A                      A                      A
 Frequencies --    501.9679               528.1531               584.4254
 Red. masses --      2.5081                 3.1180                 3.4644
 Frc consts  --      0.3723                 0.5124                 0.6972
 IR Inten    --      5.1789                 5.4052                34.5465

                     43                     44                     45
                      A                      A                      A
 Frequencies --    611.1768               628.5026               659.2895
 Red. masses --      3.1913                 5.8575                 5.5965
 Frc consts  --      0.7023                 1.3633                 1.4332
 IR Inten    --     29.1323                 3.5076                40.1176

                     46                     47                     48
                      A                      A                      A
 Frequencies --    700.5707               711.3913               765.0019
 Red. masses --      1.9161                 3.0488                 2.7937
 Frc consts  --      0.5541                 0.9091                 0.9633
 IR Inten    --     23.7465                59.2875                 3.9191

                     49                     50                     51
                      A                      A                      A
 Frequencies --    769.5118               801.9934               805.4510
 Red. masses --      3.7427                 2.9448                 1.1442
 Frc consts  --      1.3058                 1.1160                 0.4373
 IR Inten    --     12.3870                 2.7759                 1.1569

                     52                     53                     54
                      A                      A                      A
 Frequencies --    839.1074               843.7803               850.4089
 Red. masses --      3.0297                 1.3607                 1.4260
 Frc consts  --      1.2568                 0.5708                 0.6076
 IR Inten    --     12.5592                 2.4932                 3.8861

                     55                     56                     57
                      A                      A                      A
 Frequencies --    861.7914               876.4858               921.0252
 Red. masses --      2.1924                 2.1704                 2.5113
 Frc consts  --      0.9593                 0.9824                 1.2552
 IR Inten    --     14.5275                15.1972                 6.2827

                     58                     59                     60
                      A                      A                      A
 Frequencies --    930.4080               950.1562               980.5403
 Red. masses --      1.4798                 1.9395                 1.7377
 Frc consts  --      0.7547                 1.0317                 0.9844
 IR Inten    --      2.4219                23.1900                19.5811

                     61                     62                     63
                      A                      A                      A
 Frequencies --    982.5808               991.9018               999.0405
 Red. masses --      1.7270                 2.4754                 1.4360
 Frc consts  --      0.9824                 1.4349                 0.8444
 IR Inten    --     16.5249                11.8412                 1.4090

                     64                     65                     66
                      A                      A                      A
 Frequencies --   1006.2596              1010.4549              1015.8873
 Red. masses --      3.8871                 1.6147                 1.8179
 Frc consts  --      2.3190                 0.9713                 1.1054
 IR Inten    --      2.2669                 7.3515                25.2521

                     67                     68                     69
                      A                      A                      A
 Frequencies --   1025.3233              1043.3630              1047.0794
 Red. masses --      1.6607                 2.9383                 2.3585
 Frc consts  --      1.0286                 1.8846                 1.5235
 IR Inten    --     82.4850                17.7333                17.7298

                     70                     71                     72
                      A                      A                      A
 Frequencies --   1064.2479              1070.3553              1094.8404
 Red. masses --      2.3801                 2.2268                 1.8519
 Frc consts  --      1.5883                 1.5031                 1.3079
 IR Inten    --     89.2393                14.7336                48.4925

                     73                     74                     75
                      A                      A                      A
 Frequencies --   1112.3857              1126.6340              1133.8825
 Red. masses --      1.9387                 2.4402                 2.1805
 Frc consts  --      1.4134                 1.8249                 1.6517
 IR Inten    --     10.3133                 9.7147                11.0229

                     76                     77                     78
                      A                      A                      A
 Frequencies --   1159.6813              1169.1771              1174.0082
 Red. masses --      1.6304                 1.5646                 1.0881
 Frc consts  --      1.2919                 1.2601                 0.8836
 IR Inten    --     21.6462                 3.2822                 0.4567

                     79                     80                     81
                      A                      A                      A
 Frequencies --   1200.8953              1207.6881              1230.6342
 Red. masses --      1.1693                 1.6948                 1.9939
 Frc consts  --      0.9935                 1.4564                 1.7791
 IR Inten    --     10.4594                72.0599               149.2509

                     82                     83                     84
                      A                      A                      A
 Frequencies --   1242.1580              1255.4353              1284.6458
 Red. masses --      2.4042                 2.0476                 1.1090
 Frc consts  --      2.1856                 1.9014                 1.0783
 IR Inten    --     80.7836                62.4998                 1.0397

                     85                     86                     87
                      A                      A                      A
 Frequencies --   1315.2223              1317.9605              1320.8715
 Red. masses --      1.4574                 1.5055                 1.5531
 Frc consts  --      1.4853                 1.5408                 1.5965
 IR Inten    --     44.7455                 0.9289                 8.6531

                     88                     89                     90
                      A                      A                      A
 Frequencies --   1327.5331              1337.4237              1357.1926
 Red. masses --      1.7041                 1.6916                 3.0488
 Frc consts  --      1.7695                 1.7828                 3.3087
 IR Inten    --     63.8378                67.5180                 0.9618

                     91                     92                     93
                      A                      A                      A
 Frequencies --   1365.0830              1379.4560              1384.9303
 Red. masses --      1.4095                 1.3532                 1.2512
 Frc consts  --      1.5475                 1.5171                 1.4139
 IR Inten    --     21.1618                47.0365                70.4221

                     94                     95                     96
                      A                      A                      A
 Frequencies --   1389.4915              1406.0391              1417.5556
 Red. masses --      1.5237                 1.3886                 1.4643
 Frc consts  --      1.7332                 1.6174                 1.7336
 IR Inten    --     32.5552                27.4901                 3.4238

                     97                     98                     99
                      A                      A                      A
 Frequencies --   1434.0924              1459.3243              1469.0461
 Red. masses --      1.1536                 1.2563                 2.1486
 Frc consts  --      1.3978                 1.5763                 2.7319
 IR Inten    --      2.0095                 8.7816                17.1418

                    100                    101                    102
                      A                      A                      A
 Frequencies --   1473.2162              1481.3276              1487.0067
 Red. masses --      1.0386                 1.2122                 1.0531
 Frc consts  --      1.3281                 1.5672                 1.3720
 IR Inten    --      5.9260                 6.3507                 6.3897

                    103                    104                    105
                      A                      A                      A
 Frequencies --   1487.4722              1499.7755              1507.1451
 Red. masses --      1.1118                 1.1223                 1.0857
 Frc consts  --      1.4494                 1.4873                 1.4530
 IR Inten    --      4.4103                 9.7110                 7.2168

                    106                    107                    108
                      A                      A                      A
 Frequencies --   1511.1558              1517.8133              1620.0089
 Red. masses --      1.1113                 2.0997                 5.6740
 Frc consts  --      1.4951                 2.8500                 8.7735
 IR Inten    --      5.2698                 3.2171                 0.1541

                    109                    110                    111
                      A                      A                      A
 Frequencies --   1642.1783              1763.0346              2991.3325
 Red. masses --      5.7045                11.7411                 1.0531
 Frc consts  --      9.0638                21.5020                 5.5521
 IR Inten    --      2.4924               230.2561                 5.8543

                    112                    113                    114
                      A                      A                      A
 Frequencies --   3001.0486              3041.2816              3057.9385
 Red. masses --      1.0529                 1.0361                 1.0621
 Frc consts  --      5.5870                 5.6465                 5.8516
 IR Inten    --      5.8032                18.1056                24.2557

                    115                    116                    117
                      A                      A                      A
 Frequencies --   3058.1668              3066.2159              3070.7189
 Red. masses --      1.0591                 1.0725                 1.0732
 Frc consts  --      5.8361                 5.9408                 5.9620
 IR Inten    --     14.8944                17.9211                 8.3695

                    118                    119                    120
                      A                      A                      A
 Frequencies --   3098.5407              3100.0083              3105.3190
 Red. masses --      1.1011                 1.0784                 1.1063
 Frc consts  --      6.2284                 6.1062                 6.2852
 IR Inten    --     10.0322                 1.7305                 8.7285

                    121                    122                    123
                      A                      A                      A
 Frequencies --   3114.7879              3116.6227              3116.6698
 Red. masses --      1.0917                 1.1002                 1.0852
 Frc consts  --      6.2402                 6.2964                 6.2105
 IR Inten    --      5.3157                16.8923                 6.1917

                    124                    125                    126
                      A                      A                      A
 Frequencies --   3124.5247              3138.1202              3160.7014
 Red. masses --      1.0927                 1.1041                 1.1070
 Frc consts  --      6.2853                 6.4063                 6.5157
 IR Inten    --     18.9560                17.1828                 0.3742

                    127                    128                    129
                      A                      A                      A
 Frequencies --   3170.1501              3173.4939              3181.2213
 Red. masses --      1.0853                 1.1059                 1.0901
 Frc consts  --      6.4264                 6.5620                 6.5001
 IR Inten    --      0.0421                 1.5452                 7.5058

                    130                    131                    132
                      A                      A                      A
 Frequencies --   3192.4940              3203.9245              3229.3211
 Red. masses --      1.0955                 1.0944                 1.0919
 Frc consts  --      6.5782                 6.6191                 6.7090
 IR Inten    --     17.2777                 5.4271                 2.4247

 - Thermochemistry -
 -------------------
 Temperature   298.150 Kelvin.  Pressure   1.00000 Atm.
 Atom     1 has atomic number  6 and mass  12.00000

 Molecular mass:   434.99839 amu.
 Principal axes and moments of inertia in atomic units:
                           1         2         3
     Eigenvalues --  8768.98816********************
           X            0.99696   0.07571   0.01867
           Y           -0.07598   0.99701   0.01433
           Z           -0.01753  -0.01571   0.99972
 This molecule is an asymmetric top.
 Rotational symmetry number  1.
 Warning -- assumption of classical behavior for rotation
           may cause significant error
 Rotational temperatures (Kelvin)      0.00988     0.00771     0.00676
 Rotational constants (GHZ):           0.20581     0.16074     0.14088
    1 imaginary frequencies ignored.
 Zero-point vibrational energy     939336.1 (Joules/Mol)
                                  224.50671 (Kcal/Mol)
 Warning -- explicit consideration of  42 degrees of freedom as
           vibrations may cause significant error
 Vibrational temperatures:     19.55    33.76    50.29    61.62    70.96
          (Kelvin)             81.95    91.96   102.52   121.87   126.43
                              142.58   157.69   168.49   173.76   189.89
                              215.34   232.51   245.94   258.55   285.33
                              308.13   313.71   336.95   362.22   373.77
                              422.59   443.35   465.00   483.32   515.42
                              539.88   542.78   567.40   587.39   590.66
                              613.57   669.02   675.09   722.22   759.89
                              840.86   879.35   904.28   948.57  1007.96
                             1023.53  1100.67  1107.16  1153.89  1158.86
                             1207.29  1214.01  1223.55  1239.93  1261.07
                             1325.15  1338.65  1367.06  1410.78  1413.71
                             1427.13  1437.40  1447.78  1453.82  1461.64
                             1475.21  1501.17  1506.51  1531.22  1540.00
                             1575.23  1600.47  1620.98  1631.40  1668.52
                             1682.19  1689.14  1727.82  1737.59  1770.61
                             1787.19  1806.29  1848.32  1892.31  1896.25
                             1900.44  1910.02  1924.25  1952.70  1964.05
                             1984.73  1992.61  1999.17  2022.98  2039.55
                             2063.34  2099.64  2113.63  2119.63  2131.30
                             2139.47  2140.14  2157.84  2168.45  2174.22
                             2183.79  2330.83  2362.73  2536.61  4303.86
                             4317.84  4375.73  4399.69  4400.02  4411.60
                             4418.08  4458.11  4460.22  4467.86  4481.49
                             4484.12  4484.19  4495.49  4515.06  4547.54
                             4561.14  4565.95  4577.07  4593.29  4609.73
                             4646.27

 Zero-point correction=                           0.357774 (Hartree/Particle)
 Thermal correction to Energy=                    0.385187
 Thermal correction to Enthalpy=                  0.386131
 Thermal correction to Gibbs Free Energy=         0.295135
 Sum of electronic and zero-point Energies=          -3531.050268
 Sum of electronic and thermal Energies=             -3531.022855
 Sum of electronic and thermal Enthalpies=           -3531.021911
 Sum of electronic and thermal Free Energies=        -3531.112907

                     E (Thermal)             CV                S
                      KCal/Mol        Cal/Mol-Kelvin    Cal/Mol-Kelvin
 Total                  241.709             97.819            191.518
 Electronic               0.000              0.000              3.561
 Translational            0.889              2.981             44.100
 Rotational               0.889              2.981             35.488
 Vibrational            239.931             91.858            108.369
 Vibration     1          0.593              1.986              7.402
 Vibration     2          0.593              1.985              6.317
 Vibration     3          0.594              1.982              5.526
 Vibration     4          0.595              1.980              5.124
 Vibration     5          0.595              1.978              4.845
 Vibration     6          0.596              1.975              4.560
 Vibration     7          0.597              1.972              4.333
 Vibration     8          0.598              1.968              4.118
 Vibration     9          0.601              1.960              3.779
 Vibration    10          0.601              1.958              3.707
 Vibration    11          0.604              1.950              3.472
 Vibration    12          0.606              1.942              3.276
 Vibration    13          0.608              1.935              3.148
 Vibration    14          0.609              1.932              3.088
 Vibration    15          0.612              1.921              2.917
 Vibration    16          0.618              1.903              2.676
 Vibration    17          0.622              1.889              2.531
 Vibration    18          0.626              1.878              2.425
 Vibration    19          0.629              1.867              2.332
 Vibration    20          0.637              1.842              2.149
 Vibration    21          0.644              1.819              2.008
 Vibration    22          0.646              1.814              1.975
 Vibration    23          0.654              1.789              1.847
 Vibration    24          0.664              1.760              1.718
 Vibration    25          0.668              1.746              1.663
 Vibration    26          0.689              1.685              1.452
 Vibration    27          0.698              1.658              1.372
 Vibration    28          0.708              1.629              1.294
 Vibration    29          0.717              1.604              1.231
 Vibration    30          0.733              1.558              1.130
 Vibration    31          0.746              1.523              1.058
 Vibration    32          0.748              1.519              1.050
 Vibration    33          0.761              1.482              0.984
 Vibration    34          0.773              1.452              0.933
 Vibration    35          0.775              1.447              0.925
 Vibration    36          0.788              1.413              0.870
 Vibration    37          0.822              1.328              0.752
 Vibration    38          0.826              1.318              0.740
 Vibration    39          0.857              1.246              0.653
 Vibration    40          0.883              1.188              0.591
 Vibration    41          0.941              1.065              0.477
 Vibration    42          0.970              1.008              0.431

                           ! Non-Optimized Parameters !
 Normal termination of Gaussian 16 at Sun Jun 20 05:51:29 2021.

 ----------------------------------------------------------------------
 #p ub3lyp jul-cc-pvdz pop=cm5 scrf=(pcm,solvent=dichloroethane) guess=
 read geom=allcheck
 ----------------------------------------------------------------------

 Structure from the checkpoint file:  "checkpoint.chk"
 -----
 title
 -----
 Charge =  0 Multiplicity = 6

 SCF Done:  E(UB3LYP) =  -3531.43174021     A.U. after   18 cycles
 Normal termination of Gaussian 16 at Sun Jun 20 06:11:56 2021.
 Gaussian 16:  ES64L-G16RevA.03 25-Dec-2016

 ----------------------------------------------------------------------
 #p ub3lyp jul-cc-pvdz pop=cm5 scrf=(pcm,solvent=water) guess=read geom
 =allcheck
 ----------------------------------------------------------------------

 Structure from the checkpoint file:  "checkpoint.chk"
 -----
 title
 -----
 Charge =  0 Multiplicity = 6

                         Standard orientation:
 ---------------------------------------------------------------------
 Center     Atomic      Atomic             Coordinates (Angstroms)
 Number     Number       Type             X           Y           Z
 ---------------------------------------------------------------------
      1          6           0        2.938074   -1.423900    0.508320
      2          6           0        1.624385   -0.980370    0.755418
      3          6           0        1.284904   -0.575131    2.055895
      4          6           0        2.235642   -0.606841    3.081537
      5          6           0        3.533461   -1.054210    2.827713
      6          6           0        3.881210   -1.462574    1.533967
      7          6           0        0.600196   -0.948688   -0.350830
      8          6           0        0.990608   -0.221568   -1.680718
      9          6           0        1.386964   -1.291242   -2.711840
     10          6           0        0.418265   -2.466383   -2.493844
     11          6           0        0.260527   -2.599275   -0.983430
     12          6           0       -1.074536   -2.651157   -0.341216
     13          6           0       -2.333873   -2.546112   -1.114645
     14          8           0       -0.702724   -0.638157    0.127388
     15         26           0       -1.969023    0.788890    0.336331
     16         17           0       -2.502774    1.438572   -1.724782
     17          6           0       -1.161262   -3.195367    1.035724
     18         17           0       -1.201152    2.398961    1.632349
     19         17           0       -3.672337   -0.258242    1.336794
     20          1           0        0.281437   -0.212030    2.261916
     21          1           0        1.954082   -0.276259    4.082240
     22          1           0        4.273155   -1.082650    3.629288
     23          1           0        4.894082   -1.807322    1.321376
     24          1           0        3.236109   -1.733105   -0.492416
     25          1           0        0.073050    0.286194   -2.006625
     26          6           0        2.065208    0.848451   -1.521401
     27          1           0        1.337165   -0.894851   -3.734297
     28          1           0        2.427348   -1.598774   -2.544781
     29          1           0       -0.540407   -2.245762   -2.979213
     30          1           0        0.797911   -3.394736   -2.941985
     31          1           0        0.963952   -3.295016   -0.516070
     32          1           0       -1.338960   -4.281847    0.919970
     33          1           0       -0.228751   -3.066868    1.595292
     34          1           0       -2.012018   -2.771316    1.581005
     35          1           0       -2.491768   -3.544833   -1.566075
     36          1           0       -3.187568   -2.316306   -0.469307
     37          1           0       -2.277437   -1.822323   -1.932572
     38          8           0        1.567011    1.947102   -0.938662
     39          8           0        3.216153    0.728396   -1.890224
     40          6           0        2.496357    3.048566   -0.721534
     41          6           0        1.692856    4.252320   -0.275375
     42          1           0        3.225050    2.728316    0.036092
     43          1           0        3.037922    3.228354   -1.659224
     44          1           0        2.377903    5.091740   -0.086443
     45          1           0        0.977032    4.555852   -1.051417
     46          1           0        1.134356    4.036628    0.644048
 ---------------------------------------------------------------------

 SCF Done:  E(UB3LYP) =  -3531.43634607     A.U. after   15 cycles

 The electronic state is 6-A.
 Alpha  occ. eigenvalues -- -256.20184-101.52038-101.51992-101.51903 -30.19587
 Alpha  occ. eigenvalues --  -26.04882 -26.04840 -26.04731 -19.20239 -19.17066
 Alpha  occ. eigenvalues --  -19.15150 -10.32823 -10.32011 -10.30000 -10.24720
 Alpha  occ. eigenvalues --  -10.22885 -10.21803 -10.21414 -10.21297 -10.21241
 Alpha  occ. eigenvalues --  -10.20376 -10.20255 -10.20203 -10.20140 -10.20138
 Alpha  occ. eigenvalues --  -10.20083 -10.19862 -10.18457  -9.43776  -9.43706
 Alpha  occ. eigenvalues --   -9.43622  -7.19636  -7.19571  -7.19489  -7.19323
 Alpha  occ. eigenvalues --   -7.19318  -7.19257  -7.19243  -7.19163  -7.19160
 Alpha  occ. eigenvalues --   -3.67277  -2.44782  -2.44617  -2.44467  -1.12055
 Alpha  occ. eigenvalues --   -1.03521  -1.03194  -0.87507  -0.86999  -0.84045
 Alpha  occ. eigenvalues --   -0.80010  -0.79316  -0.79181  -0.78696  -0.77681
 Alpha  occ. eigenvalues --   -0.75925  -0.75005  -0.73757  -0.71159  -0.66306
 Alpha  occ. eigenvalues --   -0.64090  -0.61804  -0.61205  -0.59207  -0.56860
 Alpha  occ. eigenvalues --   -0.56031  -0.54281  -0.52568  -0.51162  -0.50649
 Alpha  occ. eigenvalues --   -0.50049  -0.49202  -0.48646  -0.47835  -0.47722
 Alpha  occ. eigenvalues --   -0.47560  -0.47218  -0.46686  -0.46467  -0.45864
 Alpha  occ. eigenvalues --   -0.44721  -0.44187  -0.44046  -0.43006  -0.42918
 Alpha  occ. eigenvalues --   -0.42475  -0.41779  -0.40812  -0.40111  -0.39989
 Alpha  occ. eigenvalues --   -0.39776  -0.38757  -0.38062  -0.37493  -0.36994
 Alpha  occ. eigenvalues --   -0.36603  -0.36367  -0.36059  -0.35676  -0.35454
 Alpha  occ. eigenvalues --   -0.34455  -0.34275  -0.33734  -0.32159  -0.31809
 Alpha  occ. eigenvalues --   -0.30902  -0.30864  -0.30590  -0.30339  -0.29699
 Alpha  occ. eigenvalues --   -0.29525  -0.29131  -0.28540  -0.26758  -0.25503
 Alpha virt. eigenvalues --   -0.11455  -0.03028  -0.02689  -0.01496  -0.01209
 Alpha virt. eigenvalues --   -0.00156  -0.00042   0.00023   0.01472   0.01610
 Alpha virt. eigenvalues --    0.01813   0.01979   0.02438   0.03451   0.03686

  Beta  occ. eigenvalues -- -256.19999-101.51859-101.51820-101.51733 -30.10654
  Beta  occ. eigenvalues --  -25.97422 -25.97358 -25.97336 -19.20238 -19.16436
  Beta  occ. eigenvalues --  -19.15148 -10.32823 -10.32019 -10.29976 -10.24721
  Beta  occ. eigenvalues --  -10.22844 -10.21792 -10.21401 -10.21294 -10.21239
  Beta  occ. eigenvalues --  -10.20373 -10.20254 -10.20202 -10.20141 -10.20138
  Beta  occ. eigenvalues --  -10.20084 -10.19861 -10.18456  -9.43600  -9.43537
  Beta  occ. eigenvalues --   -9.43455  -7.19347  -7.19280  -7.19197  -7.19082
  Beta  occ. eigenvalues --   -7.19072  -7.19025  -7.19020  -7.18942  -7.18937
  Beta  occ. eigenvalues --   -3.46447  -2.22763  -2.22669  -2.22578  -1.12052
  Beta  occ. eigenvalues --   -1.03517  -1.01976  -0.87345  -0.86964  -0.84001
  Beta  occ. eigenvalues --   -0.78884  -0.78708  -0.78087  -0.77988  -0.77585
  Beta  occ. eigenvalues --   -0.75918  -0.74969  -0.73747  -0.71008  -0.66205
  Beta  occ. eigenvalues --   -0.64043  -0.61764  -0.61171  -0.58995  -0.56706
  Beta  occ. eigenvalues --   -0.55658  -0.54176  -0.51761  -0.51035  -0.50309
  Beta  occ. eigenvalues --   -0.49972  -0.48743  -0.47870  -0.47617  -0.46492
  Beta  occ. eigenvalues --   -0.45584  -0.44425  -0.44028  -0.43048  -0.42913
  Beta  occ. eigenvalues --   -0.42442  -0.41754  -0.40766  -0.40108  -0.39968
  Beta  occ. eigenvalues --   -0.39744  -0.38750  -0.37883  -0.37655  -0.37238
  Beta  occ. eigenvalues --   -0.36716  -0.36258  -0.36025  -0.35811  -0.35570
  Beta  occ. eigenvalues --   -0.35538  -0.35458  -0.34420  -0.33056  -0.32844
  Beta  occ. eigenvalues --   -0.32376  -0.32154  -0.31712  -0.31341  -0.30199
  Beta  occ. eigenvalues --   -0.29478  -0.29076  -0.28758  -0.26748  -0.25604
  Beta virt. eigenvalues --   -0.14283  -0.13743  -0.12996  -0.12768  -0.11974
  Beta virt. eigenvalues --   -0.10826  -0.02972  -0.02672  -0.01398  -0.01175
  Beta virt. eigenvalues --   -0.00112  -0.00007   0.00050   0.01488   0.01631

 Mulliken charges and spin densities:
               1          2
     1  C    0.097980   0.002707
     2  C    2.558630  -0.000861
     3  C   -0.255866  -0.009506
     4  C    0.003690   0.003873
     5  C    0.253317   0.001627
     6  C   -0.112562  -0.000323
     7  C   -2.081177   0.002766
     8  C    0.375757   0.008871
     9  C    0.545486   0.002164
    10  C    0.596284   0.000334
    11  C    0.759538   0.025996
    12  C   -0.640021  -0.005146
    13  C    0.362808   0.000779
    14  O   -0.458675   0.198902
    15  Fe   0.632074   4.057666
    16  Cl  -0.531641   0.227119
    17  C    0.352957  -0.001757
    18  Cl  -0.478898   0.246861
    19  Cl  -0.531071   0.230335
    20  H   -0.232306   0.003338
    21  H   -0.162245   0.000005
    22  H   -0.166567  -0.000028
    23  H   -0.159607   0.000167
    24  H   -0.217037  -0.000065
    25  H   -0.210823   0.000065
    26  C    0.902580  -0.000477
    27  H   -0.140700   0.000221
    28  H   -0.035038  -0.000017
    29  H   -0.093423  -0.000058
    30  H   -0.122489   0.000860
    31  H   -0.231746   0.001019
    32  H    0.066372   0.001361
    33  H    0.065217  -0.000047
    34  H    0.039651  -0.000574
    35  H    0.059030  -0.000228
    36  H    0.029269  -0.000526
    37  H    0.082936  -0.000533
    38  O   -0.703041   0.001835
    39  O   -0.660726   0.001165
    40  C    0.427228   0.001123
    41  C    0.048234  -0.000904
    42  H   -0.033104   0.000049
    43  H   -0.038551   0.000037
    44  H   -0.007843   0.000033
    45  H    0.021366   0.000053
    46  H    0.024751  -0.000280
 Sum of Mulliken charges =  -0.00000   5.00000

 Dipole moment (field-independent basis, Debye):
    X=              5.2160    Y=            -11.8782    Z=             -2.0925  Tot=             13.1406
 Quadrupole moment (field-independent basis, Debye-Ang):
   XX=           -197.5264   YY=           -149.0292   ZZ=           -175.2179
   XY=             17.2859   XZ=             13.4097   YZ=              4.3423

 Normal termination of Gaussian 16 at Sun Jun 20 06:29:03 2021.
