 Gaussian 16, Revision A.03,

 -----------------------------------------------------------
 #p opt=modredundant freq=noraman ub3lyp jul-cc-pvdz pop=cm5
 -----------------------------------------------------------

 -----
 title
 -----
 Symbolic Z-matrix:
 Charge =  0 Multiplicity = 6

 SCF Done:  E(UB3LYP) =  -3531.40635147     A.U. after   27 cycles
 SCF Done:  E(UB3LYP) =  -3531.40473563     A.U. after   19 cycles
 SCF Done:  E(UB3LYP) =  -3531.40293241     A.U. after   20 cycles
 SCF Done:  E(UB3LYP) =  -3531.40219222     A.U. after   21 cycles
 SCF Done:  E(UB3LYP) =  -3531.40648250     A.U. after   14 cycles
 SCF Done:  E(UB3LYP) =  -3531.40649705     A.U. after   18 cycles
 SCF Done:  E(UB3LYP) =  -3531.40674294     A.U. after   16 cycles
 SCF Done:  E(UB3LYP) =  -3531.40675144     A.U. after   18 cycles
 SCF Done:  E(UB3LYP) =  -3531.40695989     A.U. after   17 cycles
 SCF Done:  E(UB3LYP) =  -3531.40695592     A.U. after   17 cycles
 SCF Done:  E(UB3LYP) =  -3531.40699053     A.U. after   10 cycles
 SCF Done:  E(UB3LYP) =  -3531.40699080     A.U. after    9 cycles
 SCF Done:  E(UB3LYP) =  -3531.40699096     A.U. after   10 cycles
 SCF Done:  E(UB3LYP) =  -3531.40699104     A.U. after    9 cycles
 SCF Done:  E(UB3LYP) =  -3531.40699110     A.U. after    9 cycles
 SCF Done:  E(UB3LYP) =  -3531.40699112     A.U. after    9 cycles
 SCF Done:  E(UB3LYP) =  -3531.40699113     A.U. after    8 cycles
 Optimization completed.
    -- Stationary point found.
 Normal termination of Gaussian 16 at Sun Jun 20 06:15:47 2021.

 ----------------------------------------------------------------------
 #P Geom=AllCheck Guess=TCheck SCRF=Check GenChk UB3LYP/Jul-CC-pVDZ Fre
 q
 ----------------------------------------------------------------------

 Structure from the checkpoint file:  "checkpoint.chk"
 -----
 title
 -----
 Charge =  0 Multiplicity = 6

 SCF Done:  E(UB3LYP) =  -3531.40699113     A.U. after    2 cycles

  Exact polarizability: 320.035  12.290 298.494  12.740  12.463 303.722
 Approx polarizability: 497.362  41.632 458.624  14.043  19.259 506.710

 ******    2 imaginary frequencies (negative Signs) ******

                      1                      2                      3
                      A                      A                      A
 Frequencies --   -163.4838               -32.7135                24.0624
 Red. masses --      5.4600                 5.5567                 8.3255
 Frc consts  --      0.0860                 0.0035                 0.0028
 IR Inten    --    209.3488                 0.9601                 1.8277

                      4                      5                      6
                      A                      A                      A
 Frequencies --     25.5258                38.4334                47.8217
 Red. masses --      5.5240                 6.0174                 4.5375
 Frc consts  --      0.0021                 0.0052                 0.0061
 IR Inten    --      0.2840                 0.7108                 1.8332

                      7                      8                      9
                      A                      A                      A
 Frequencies --     56.8735                57.4207                67.1490
 Red. masses --      3.3601                 6.3338                 3.6193
 Frc consts  --      0.0064                 0.0123                 0.0096
 IR Inten    --      2.2596                 1.1791                 0.1018

                     10                     11                     12
                      A                      A                      A
 Frequencies --     81.9070                90.9468                94.0257
 Red. masses --      8.3849                 6.7260                 5.8973
 Frc consts  --      0.0331                 0.0328                 0.0307
 IR Inten    --      0.4808                 0.1137                 4.1423

                     13                     14                     15
                      A                      A                      A
 Frequencies --    104.4827               107.2732               120.0105
 Red. masses --      9.3053                 4.4880                18.2518
 Frc consts  --      0.0599                 0.0304                 0.1549
 IR Inten    --      3.6833                 5.7407                 2.6863

                     16                     17                     18
                      A                      A                      A
 Frequencies --    125.9725               146.9307               162.1418
 Red. masses --      9.4837                 4.5658                 3.1463
 Frc consts  --      0.0887                 0.0581                 0.0487
 IR Inten    --      2.4518                 4.4241                 2.6800

                     19                     20                     21
                      A                      A                      A
 Frequencies --    181.1012               190.4076               196.4309
 Red. masses --      1.3278                 2.4597                 3.2466
 Frc consts  --      0.0257                 0.0525                 0.0738
 IR Inten    --      2.2556                 2.4150                 6.8496

                     22                     23                     24
                      A                      A                      A
 Frequencies --    208.0217               218.1730               228.7260
 Red. masses --      1.5410                 2.3484                 2.5253
 Frc consts  --      0.0393                 0.0659                 0.0778
 IR Inten    --      1.2073                 0.5125                29.5284

                     25                     26                     27
                      A                      A                      A
 Frequencies --    241.7202               259.6981               291.5775
 Red. masses --      3.1193                 1.8855                 3.9419
 Frc consts  --      0.1074                 0.0749                 0.1975
 IR Inten    --      9.0488                 3.1915                 5.0822

                     28                     29                     30
                      A                      A                      A
 Frequencies --    319.3483               331.9673               348.1424
 Red. masses --      2.1698                 9.1831                 6.7932
 Frc consts  --      0.1304                 0.5963                 0.4851
 IR Inten    --      0.3206                13.1918                17.1778

                     31                     32                     33
                      A                      A                      A
 Frequencies --    355.6761               381.7196               386.9275
 Red. masses --      8.1593                 4.2839                31.4420
 Frc consts  --      0.6082                 0.3678                 2.7734
 IR Inten    --     28.5281                 8.0828                83.7859

                     34                     35                     36
                      A                      A                      A
 Frequencies --    394.1021               401.9580               410.1722
 Red. masses --     25.2139                 2.7088                 2.8605
 Frc consts  --      2.3073                 0.2579                 0.2835
 IR Inten    --     73.5196                15.3970                 0.6384

                     37                     38                     39
                      A                      A                      A
 Frequencies --    428.4015               455.0425               478.7817
 Red. masses --      3.4590                 4.1606                 3.2083
 Frc consts  --      0.3740                 0.5076                 0.4333
 IR Inten    --     22.3627                 4.1292                10.4830

                     40                     41                     42
                      A                      A                      A
 Frequencies --    508.4013               522.9859               564.2271
 Red. masses --      3.3893                 2.8321                 3.2308
 Frc consts  --      0.5161                 0.4564                 0.6060
 IR Inten    --     18.1234                 5.0797                42.2279

                     43                     44                     45
                      A                      A                      A
 Frequencies --    601.8819               624.7470               636.9865
 Red. masses --      3.8060                 5.9743                 4.2855
 Frc consts  --      0.8123                 1.3739                 1.0245
 IR Inten    --     38.8285                26.0358               102.6468

                     46                     47                     48
                      A                      A                      A
 Frequencies --    690.5600               701.8834               755.4891
 Red. masses --      1.6089                 6.1604                 4.6819
 Frc consts  --      0.4520                 1.7881                 1.5744
 IR Inten    --     54.2248                22.0874                 6.9766

                     49                     50                     51
                      A                      A                      A
 Frequencies --    766.0245               790.8544               801.3610
 Red. masses --      2.3431                 2.4538                 1.4642
 Frc consts  --      0.8101                 0.9043                 0.5540
 IR Inten    --     13.9438                11.9123                 7.9202

                     52                     53                     54
                      A                      A                      A
 Frequencies --    817.8576               839.3901               859.3952
 Red. masses --      2.5214                 1.2607                 1.5923
 Frc consts  --      0.9937                 0.5233                 0.6929
 IR Inten    --     22.8391                 1.2714                 4.7737

                     55                     56                     57
                      A                      A                      A
 Frequencies --    864.5347               888.2332               918.0842
 Red. masses --      2.2183                 1.8391                 1.9435
 Frc consts  --      0.9769                 0.8549                 0.9652
 IR Inten    --     46.3639                 4.3774                10.0407

                     58                     59                     60
                      A                      A                      A
 Frequencies --    937.2757               941.1124               961.8218
 Red. masses --      1.3112                 1.4163                 3.3696
 Frc consts  --      0.6787                 0.7391                 1.8366
 IR Inten    --     24.2931                 1.4101                26.4361

                     61                     62                     63
                      A                      A                      A
 Frequencies --    985.1561               988.0885               999.8746
 Red. masses --      1.7946                 1.9655                 1.8498
 Frc consts  --      1.0262                 1.1306                 1.0896
 IR Inten    --     13.0348                20.0833                 2.0089

                     64                     65                     66
                      A                      A                      A
 Frequencies --   1002.6354              1004.9124              1007.9411
 Red. masses --      2.4842                 1.4685                 1.8155
 Frc consts  --      1.4714                 0.8737                 1.0867
 IR Inten    --      2.1817                 5.5803                 1.8905

                     67                     68                     69
                      A                      A                      A
 Frequencies --   1036.2407              1046.4733              1067.2104
 Red. masses --      2.7100                 2.5147                 2.2983
 Frc consts  --      1.7145                 1.6225                 1.5423
 IR Inten    --     41.2091                 4.5134                11.4069

                     70                     71                     72
                      A                      A                      A
 Frequencies --   1077.1414              1094.5052              1112.2151
 Red. masses --      1.7676                 1.8804                 1.5712
 Frc consts  --      1.2083                 1.3272                 1.1451
 IR Inten    --     40.8560                11.2011                10.9240

                     73                     74                     75
                      A                      A                      A
 Frequencies --   1132.6928              1136.8121              1161.8732
 Red. masses --      2.1258                 2.2436                 1.7099
 Frc consts  --      1.6069                 1.7084                 1.3600
 IR Inten    --     11.2385                 9.2254                63.0395

                     76                     77                     78
                      A                      A                      A
 Frequencies --   1170.4943              1176.8357              1196.8864
 Red. masses --      1.5732                 1.0869                 1.5355
 Frc consts  --      1.2699                 0.8869                 1.2960
 IR Inten    --      4.7245                 1.2125                42.8730

                     79                     80                     81
                      A                      A                      A
 Frequencies --   1205.7424              1219.9890              1246.8713
 Red. masses --      1.2933                 2.2124                 2.7942
 Frc consts  --      1.1078                 1.9401                 2.5594
 IR Inten    --     31.4478                73.3807               119.4769

                     82                     83                     84
                      A                      A                      A
 Frequencies --   1254.9639              1284.9232              1294.2442
 Red. masses --      1.9290                 1.1901                 1.9119
 Frc consts  --      1.7899                 1.1577                 1.8869
 IR Inten    --     31.1264                51.7786               301.8059

                     85                     86                     87
                      A                      A                      A
 Frequencies --   1320.4066              1328.2975              1335.2292
 Red. masses --      1.4089                 1.5059                 1.6773
 Frc consts  --      1.4473                 1.5655                 1.7618
 IR Inten    --     36.1378                56.1025                38.2445

                     88                     89                     90
                      A                      A                      A
 Frequencies --   1358.5290              1361.9964              1363.3893
 Red. masses --      1.6125                 1.4829                 2.9274
 Frc consts  --      1.7534                 1.6208                 3.2061
 IR Inten    --     26.2296                59.6559                 8.6951

                     91                     92                     93
                      A                      A                      A
 Frequencies --   1382.8280              1388.7812              1399.8300
 Red. masses --      1.4072                 1.4784                 1.4326
 Frc consts  --      1.5854                 1.6800                 1.6540
 IR Inten    --     37.5295               118.7974               119.5044

                     94                     95                     96
                      A                      A                      A
 Frequencies --   1406.3751              1416.0971              1457.4699
 Red. masses --      1.4322                 1.4230                 1.0886
 Frc consts  --      1.6690                 1.6813                 1.3624
 IR Inten    --     52.9885                 0.8439                 7.3170

                     97                     98                     99
                      A                      A                      A
 Frequencies --   1464.3893              1472.4730              1473.2805
 Red. masses --      1.0772                 1.9831                 1.0466
 Frc consts  --      1.3610                 2.5333                 1.3384
 IR Inten    --     10.7080                31.2458                 4.0510

                    100                    101                    102
                      A                      A                      A
 Frequencies --   1474.6462              1485.6440              1487.5621
 Red. masses --      1.1650                 1.1081                 1.0543
 Frc consts  --      1.4926                 1.4410                 1.3745
 IR Inten    --     12.2027                28.5327                 1.8865

                    103                    104                    105
                      A                      A                      A
 Frequencies --   1497.4706              1505.7016              1506.7550
 Red. masses --      1.1565                 1.0838                 1.1012
 Frc consts  --      1.5280                 1.4477                 1.4730
 IR Inten    --      6.2009                 5.8511                18.0647

                    106                    107                    108
                      A                      A                      A
 Frequencies --   1516.9533              1615.8495              1627.9905
 Red. masses --      1.8867                 5.3708                 5.2109
 Frc consts  --      2.5579                 8.2621                 8.1370
 IR Inten    --      1.9167                21.3991               144.1427

                    109                    110                    111
                      A                      A                      A
 Frequencies --   1639.1102              1766.2963              3015.1954
 Red. masses --      5.6449                11.4685                 1.0511
 Frc consts  --      8.9356                21.0807                 5.6302
 IR Inten    --     25.0237               233.0810                 1.1868

                    112                    113                    114
                      A                      A                      A
 Frequencies --   3023.4423              3041.9964              3049.5819
 Red. masses --      1.0469                 1.0360                 1.0636
 Frc consts  --      5.6386                 5.6486                 5.8277
 IR Inten    --      5.3937                19.3191                25.3704

                    115                    116                    117
                      A                      A                      A
 Frequencies --   3062.0487              3069.4928              3080.8302
 Red. masses --      1.0590                 1.0654                 1.0854
 Frc consts  --      5.8500                 5.9141                 6.0700
 IR Inten    --     13.8199                30.5905                 0.3954

                    118                    119                    120
                      A                      A                      A
 Frequencies --   3096.0536              3097.4489              3110.4074
 Red. masses --      1.0869                 1.0999                 1.1055
 Frc consts  --      6.1386                 6.2175                 6.3017
 IR Inten    --      4.7119                 4.2246                10.1106

                    121                    122                    123
                      A                      A                      A
 Frequencies --   3117.9865              3118.2272              3126.0028
 Red. masses --      1.0816                 1.1026                 1.0985
 Frc consts  --      6.1953                 6.3164                 6.3247
 IR Inten    --      0.2909                15.6813                16.6834

                    124                    125                    126
                      A                      A                      A
 Frequencies --   3141.0466              3147.6148              3168.8514
 Red. masses --      1.1046                 1.1048                 1.1034
 Frc consts  --      6.4208                 6.4492                 6.5281
 IR Inten    --     13.4595                 2.6565                 2.9546

                    127                    128                    129
                      A                      A                      A
 Frequencies --   3172.2692              3174.2554              3187.5040
 Red. masses --      1.0885                 1.0862                 1.0913
 Frc consts  --      6.4541                 6.4481                 6.5328
 IR Inten    --      8.7604                 0.6613                 6.9385

                    130                    131                    132
                      A                      A                      A
 Frequencies --   3196.8335              3232.0483              3242.1628
 Red. masses --      1.0970                 1.0922                 1.0912
 Frc consts  --      6.6056                 6.7221                 6.7582
 IR Inten    --     13.1403                 1.5751                 1.3046

 - Thermochemistry -
 -------------------
 Temperature   298.150 Kelvin.  Pressure   1.00000 Atm.
 Atom     1 has atomic number  6 and mass  12.00000

 Molecular mass:   434.99839 amu.
 Principal axes and moments of inertia in atomic units:
                           1         2         3
     Eigenvalues --  9077.26837********************
           X            0.99889  -0.04470   0.01456
           Y            0.04421   0.99850   0.03231
           Z           -0.01598  -0.03163   0.99937
 This molecule is an asymmetric top.
 Rotational symmetry number  1.
 Warning -- assumption of classical behavior for rotation
           may cause significant error
 Rotational temperatures (Kelvin)      0.00954     0.00797     0.00693
 Rotational constants (GHZ):           0.19882     0.16611     0.14432
    2 imaginary frequencies ignored.
 Zero-point vibrational energy     943145.1 (Joules/Mol)
                                  225.41710 (Kcal/Mol)
 Warning -- explicit consideration of  41 degrees of freedom as
           vibrations may cause significant error
 Vibrational temperatures:     34.62    36.73    55.30    68.80    81.83
          (Kelvin)             82.62    96.61   117.85   130.85   135.28
                              150.33   154.34   172.67   181.25   211.40
                              233.29   260.56   273.95   282.62   299.30
                              313.90   329.09   347.78   373.65   419.51
                              459.47   477.63   500.90   511.74   549.21
                              556.70   567.03   578.33   590.15   616.37
                              654.70   688.86   731.48   752.46   811.80
                              865.97   898.87   916.48   993.56  1009.85
                             1086.98  1102.14  1137.86  1152.98  1176.71
                             1207.70  1236.48  1243.87  1277.97  1320.92
                             1348.53  1354.05  1383.85  1417.42  1421.64
                             1438.60  1442.57  1445.84  1450.20  1490.92
                             1505.64  1535.48  1549.77  1574.75  1600.23
                             1629.69  1635.62  1671.68  1684.08  1693.20
                             1722.05  1734.79  1755.29  1793.97  1805.61
                             1848.72  1862.13  1899.77  1911.12  1921.10
                             1954.62  1959.61  1961.61  1989.58  1998.15
                             2014.04  2023.46  2037.45  2096.97  2106.93
                             2118.56  2119.72  2121.69  2137.51  2140.27
                             2154.53  2166.37  2167.88  2182.56  2324.85
                             2342.32  2358.31  2541.31  4338.19  4350.06
                             4376.75  4387.67  4405.61  4416.32  4432.63
                             4454.53  4456.54  4475.18  4486.09  4486.43
                             4497.62  4519.27  4528.72  4559.27  4564.19
                             4567.05  4586.11  4599.53  4650.20  4664.75

 Zero-point correction=                           0.359225 (Hartree/Particle)
 Thermal correction to Energy=                    0.385808
 Thermal correction to Enthalpy=                  0.386753
 Thermal correction to Gibbs Free Energy=         0.298553
 Sum of electronic and zero-point Energies=          -3531.047766
 Sum of electronic and thermal Energies=             -3531.021183
 Sum of electronic and thermal Enthalpies=           -3531.020238
 Sum of electronic and thermal Free Energies=        -3531.108438

                     E (Thermal)             CV                S
                      KCal/Mol        Cal/Mol-Kelvin    Cal/Mol-Kelvin
 Total                  242.098             95.725            185.632
 Electronic               0.000              0.000              3.561
 Translational            0.889              2.981             44.100
 Rotational               0.889              2.981             35.466
 Vibrational            240.321             89.763            102.505
 Vibration     1          0.593              1.985              6.267
 Vibration     2          0.593              1.985              6.150
 Vibration     3          0.594              1.982              5.338
 Vibration     4          0.595              1.978              4.905
 Vibration     5          0.596              1.975              4.563
 Vibration     6          0.596              1.975              4.544
 Vibration     7          0.598              1.970              4.235
 Vibration     8          0.600              1.962              3.845
 Vibration     9          0.602              1.956              3.640
 Vibration    10          0.603              1.953              3.575
 Vibration    11          0.605              1.946              3.369
 Vibration    12          0.606              1.943              3.318
 Vibration    13          0.609              1.933              3.100
 Vibration    14          0.611              1.927              3.007
 Vibration    15          0.617              1.906              2.712
 Vibration    16          0.622              1.889              2.525
 Vibration    17          0.630              1.865              2.317
 Vibration    18          0.634              1.853              2.224
 Vibration    19          0.636              1.845              2.166
 Vibration    20          0.641              1.828              2.061
 Vibration    21          0.646              1.813              1.974
 Vibration    22          0.651              1.797              1.889
 Vibration    23          0.658              1.776              1.790
 Vibration    24          0.668              1.746              1.664
 Vibration    25          0.687              1.689              1.465
 Vibration    26          0.705              1.637              1.313
 Vibration    27          0.714              1.612              1.250
 Vibration    28          0.726              1.579              1.175
 Vibration    29          0.731              1.564              1.141
 Vibration    30          0.751              1.509              1.032
 Vibration    31          0.755              1.498              1.012
 Vibration    32          0.761              1.483              0.985
 Vibration    33          0.768              1.466              0.955
 Vibration    34          0.774              1.448              0.926
 Vibration    35          0.790              1.408              0.864
 Vibration    36          0.813              1.350              0.781
 Vibration    37          0.835              1.297              0.713
 Vibration    38          0.864              1.231              0.637
 Vibration    39          0.878              1.199              0.603
 Vibration    40          0.920              1.109              0.515
 Vibration    41          0.960              1.028              0.446

                           ! Non-Optimized Parameters !
 Normal termination of Gaussian 16 at Sun Jun 20 11:47:26 2021.

 ----------------------------------------------------------------------
 #p ub3lyp jul-cc-pvdz pop=cm5 scrf=(pcm,solvent=dichloroethane) guess=
 read geom=allcheck
 ----------------------------------------------------------------------

 Structure from the checkpoint file:  "checkpoint.chk"
 -----
 title
 -----
 Charge =  0 Multiplicity = 6

 SCF Done:  E(UB3LYP) =  -3531.42631429     A.U. after   20 cycles
 Normal termination of Gaussian 16 at Sun Jun 20 12:10:19 2021.
 Gaussian 16:  ES64L-G16RevA.03 25-Dec-2016

 ----------------------------------------------------------------------
 #p ub3lyp jul-cc-pvdz pop=cm5 scrf=(pcm,solvent=water) guess=read geom
 =allcheck
 ----------------------------------------------------------------------

 Structure from the checkpoint file:  "checkpoint.chk"
 -----
 title
 -----
 Charge =  0 Multiplicity = 6

                         Standard orientation:
 ---------------------------------------------------------------------
 Center     Atomic      Atomic             Coordinates (Angstroms)
 Number     Number       Type             X           Y           Z
 ---------------------------------------------------------------------
      1          6           0        3.212434   -0.012635    0.544724
      2          6           0        1.874889   -0.425555    0.719111
      3          6           0        1.447470   -0.802805    2.008514
      4          6           0        2.331006   -0.774855    3.087163
      5          6           0        3.656450   -0.373852    2.898247
      6          6           0        4.092009    0.010720    1.623958
      7          6           0        0.882962   -0.442682   -0.392179
      8          6           0        1.011964    0.518806   -1.605334
      9          6           0        2.016252    0.058187   -2.671654
     10          6           0        1.793305   -1.443878   -2.923533
     11          6           0        1.616968   -2.130867   -1.596863
     12          6           0        0.442049   -2.647112   -1.108716
     13          6           0       -0.827873   -2.684575   -1.904281
     14          8           0       -0.314206   -0.847173   -0.094666
     15         26           0       -2.056963   -0.160030    0.423936
     16         17           0       -2.974096    0.703775   -1.396564
     17          6           0        0.449473   -3.478294    0.135355
     18         17           0       -1.799420    1.266920    2.091631
     19         17           0       -3.110962   -1.988421    1.116290
     20          1           0        0.411238   -1.090196    2.165421
     21          1           0        1.977926   -1.057531    4.079348
     22          1           0        4.347744   -0.350384    3.742195
     23          1           0        5.121001    0.338374    1.472291
     24          1           0        3.571219    0.308388   -0.428272
     25          1           0        0.002760    0.533772   -2.035562
     26          6           0        1.309717    1.953962   -1.140803
     27          1           0        1.871433    0.647920   -3.587078
     28          1           0        3.042158    0.253283   -2.340157
     29          1           0        0.915811   -1.590583   -3.565359
     30          1           0        2.654127   -1.868294   -3.460133
     31          1           0        2.526153   -2.340091   -1.033218
     32          1           0        0.357443   -4.532896   -0.175397
     33          1           0        1.379037   -3.376613    0.706199
     34          1           0       -0.416296   -3.258702    0.771658
     35          1           0       -0.778361   -3.584094   -2.542691
     36          1           0       -1.704719   -2.784716   -1.256778
     37          1           0       -0.967605   -1.821142   -2.560207
     38          8           0        0.197953    2.545102   -0.697188
     39          8           0        2.402456    2.478376   -1.196321
     40          6           0        0.324565    3.919436   -0.218673
     41          6           0       -1.071562    4.482468   -0.055921
     42          1           0        0.875997    3.888410    0.731016
     43          1           0        0.924516    4.478593   -0.947717
     44          1           0       -0.999366    5.515074    0.315583
     45          1           0       -1.604081    4.494829   -1.016625
     46          1           0       -1.653067    3.889469    0.660764
 ---------------------------------------------------------------------

 SCF Done:  E(UB3LYP) =  -3531.42997998     A.U. after   17 cycles

 The electronic state is 6-A.
 Alpha  occ. eigenvalues -- -256.20516-101.52179-101.52148-101.52131 -30.19883
 Alpha  occ. eigenvalues --  -26.05213 -26.05119 -26.05023 -19.20757 -19.17340
 Alpha  occ. eigenvalues --  -19.15734 -10.33663 -10.33241 -10.25514 -10.24971
 Alpha  occ. eigenvalues --  -10.22985 -10.22389 -10.21372 -10.21343 -10.21279
 Alpha  occ. eigenvalues --  -10.20842 -10.20776 -10.20722 -10.20463 -10.20035
 Alpha  occ. eigenvalues --  -10.19557 -10.19521 -10.18538  -9.43899  -9.43863
 Alpha  occ. eigenvalues --   -9.43852  -7.19766  -7.19728  -7.19719  -7.19448
 Alpha  occ. eigenvalues --   -7.19439  -7.19409  -7.19406  -7.19396  -7.19391
 Alpha  occ. eigenvalues --   -3.67577  -2.45118  -2.44913  -2.44745  -1.12656
 Alpha  occ. eigenvalues --   -1.07964  -1.04149  -0.88195  -0.86312  -0.83461
 Alpha  occ. eigenvalues --   -0.80181  -0.79449  -0.79399  -0.78734  -0.78566
 Alpha  occ. eigenvalues --   -0.76819  -0.75074  -0.71714  -0.70754  -0.66848
 Alpha  occ. eigenvalues --   -0.64727  -0.62592  -0.61805  -0.59704  -0.57524
 Alpha  occ. eigenvalues --   -0.56057  -0.54005  -0.53223  -0.51736  -0.50757
 Alpha  occ. eigenvalues --   -0.50091  -0.49446  -0.49073  -0.48084  -0.47837
 Alpha  occ. eigenvalues --   -0.47736  -0.47554  -0.46975  -0.46732  -0.46078
 Alpha  occ. eigenvalues --   -0.45155  -0.44973  -0.43824  -0.43077  -0.42854
 Alpha  occ. eigenvalues --   -0.42451  -0.40969  -0.40427  -0.40335  -0.40025
 Alpha  occ. eigenvalues --   -0.38921  -0.38726  -0.38150  -0.37855  -0.37617
 Alpha  occ. eigenvalues --   -0.37197  -0.37040  -0.36335  -0.36007  -0.35602
 Alpha  occ. eigenvalues --   -0.34556  -0.34169  -0.33845  -0.32256  -0.31937
 Alpha  occ. eigenvalues --   -0.31079  -0.31004  -0.30696  -0.30622  -0.30039
 Alpha  occ. eigenvalues --   -0.29629  -0.29300  -0.28414  -0.27486  -0.25042
 Alpha virt. eigenvalues --   -0.10954  -0.03193  -0.02551  -0.01696  -0.01280
 Alpha virt. eigenvalues --   -0.00131   0.00019   0.00064   0.01146   0.01552
 Alpha virt. eigenvalues --    0.01709   0.01967   0.02479   0.02802   0.03195

  Beta  occ. eigenvalues -- -256.20331-101.51996-101.51969-101.51957 -30.10963
  Beta  occ. eigenvalues --  -25.97709 -25.97692 -25.97650 -19.20757 -19.16824
  Beta  occ. eigenvalues --  -19.15733 -10.33664 -10.33249 -10.25489 -10.24971
  Beta  occ. eigenvalues --  -10.22973 -10.22370 -10.21376 -10.21348 -10.21286
  Beta  occ. eigenvalues --  -10.20838 -10.20773 -10.20637 -10.20457 -10.20039
  Beta  occ. eigenvalues --  -10.19557 -10.19521 -10.18537  -9.43720  -9.43688
  Beta  occ. eigenvalues --   -9.43680  -7.19467  -7.19435  -7.19423  -7.19202
  Beta  occ. eigenvalues --   -7.19191  -7.19173  -7.19165  -7.19164  -7.19160
  Beta  occ. eigenvalues --   -3.46771  -2.23055  -2.22975  -2.22961  -1.12653
  Beta  occ. eigenvalues --   -1.06980  -1.04147  -0.88150  -0.86182  -0.83409
  Beta  occ. eigenvalues --   -0.79031  -0.78746  -0.78511  -0.78171  -0.78156
  Beta  occ. eigenvalues --   -0.76818  -0.75026  -0.71686  -0.70622  -0.66736
  Beta  occ. eigenvalues --   -0.64672  -0.62562  -0.61748  -0.59297  -0.57305
  Beta  occ. eigenvalues --   -0.55602  -0.53936  -0.52442  -0.51681  -0.50422
  Beta  occ. eigenvalues --   -0.49556  -0.48997  -0.48651  -0.47701  -0.47207
  Beta  occ. eigenvalues --   -0.45952  -0.45141  -0.43843  -0.43094  -0.42884
  Beta  occ. eigenvalues --   -0.42396  -0.40943  -0.40431  -0.40327  -0.40032
  Beta  occ. eigenvalues --   -0.38909  -0.38582  -0.38123  -0.37907  -0.37766
  Beta  occ. eigenvalues --   -0.37462  -0.37037  -0.36360  -0.36018  -0.35802
  Beta  occ. eigenvalues --   -0.35768  -0.35554  -0.34288  -0.33269  -0.32940
  Beta  occ. eigenvalues --   -0.32447  -0.32326  -0.32067  -0.31116  -0.30389
  Beta  occ. eigenvalues --   -0.29563  -0.29318  -0.28633  -0.27491  -0.25003
  Beta virt. eigenvalues --   -0.14485  -0.14100  -0.13309  -0.12998  -0.12851
  Beta virt. eigenvalues --   -0.10351  -0.03174  -0.02479  -0.01635  -0.01168
  Beta virt. eigenvalues --   -0.00092   0.00061   0.00093   0.01297   0.01574

 Mulliken charges and spin densities:
               1          2
     1  C    0.268433  -0.002103
     2  C    2.961986  -0.003716
     3  C   -0.547798  -0.013848
     4  C    0.073462   0.006647
     5  C    0.275282  -0.003612
     6  C   -0.103462   0.003426
     7  C   -2.403009  -0.009670
     8  C    0.434490   0.014036
     9  C    0.473705   0.005680
    10  C    0.656427  -0.005420
    11  C    0.460552   0.060558
    12  C   -0.349509   0.008564
    13  C    0.293254   0.000836
    14  O   -0.447745   0.156538
    15  Fe   0.706176   4.053672
    16  Cl  -0.538733   0.236503
    17  C    0.367756  -0.000279
    18  Cl  -0.501497   0.245241
    19  Cl  -0.515815   0.239136
    20  H   -0.262680   0.001064
    21  H   -0.159244  -0.000020
    22  H   -0.152408   0.000075
    23  H   -0.154142   0.000141
    24  H   -0.253773  -0.000114
    25  H   -0.183820  -0.000875
    26  C    0.829877   0.002354
    27  H   -0.131223   0.000321
    28  H   -0.009350  -0.000054
    29  H   -0.079145   0.000204
    30  H   -0.110526   0.001902
    31  H   -0.274839  -0.002032
    32  H   -0.001273   0.000989
    33  H    0.012591   0.000130
    34  H    0.064180   0.000385
    35  H    0.010522   0.000722
    36  H    0.041272   0.001110
    37  H    0.069461  -0.000271
    38  O   -0.656956   0.002525
    39  O   -0.604377   0.000689
    40  C    0.425897   0.000529
    41  C    0.041942  -0.001591
    42  H   -0.033996  -0.000029
    43  H   -0.037573   0.000029
    44  H   -0.008528   0.000053
    45  H    0.025773   0.000066
    46  H    0.028379  -0.000491
 Sum of Mulliken charges =  -0.00000   5.00000

 Dipole moment (field-independent basis, Debye):
    X=             10.7483    Y=             -3.9098    Z=             -3.3911  Tot=             11.9294
 Quadrupole moment (field-independent basis, Debye-Ang):
   XX=           -193.0803   YY=           -162.3666   ZZ=           -167.1250
   XY=            -10.8882   XZ=              8.8958   YZ=              6.7111

 Normal termination of Gaussian 16 at Sun Jun 20 12:28:30 2021.
