 Gaussian 16, Revision A.03,

 -----------------------------------------------------------
 #p opt=modredundant freq=noraman ub3lyp jul-cc-pvdz pop=cm5
 -----------------------------------------------------------

 -----
 title
 -----
 Symbolic Z-matrix:
 Charge =  0 Multiplicity = 6

 SCF Done:  E(UB3LYP) =  -3531.43053098     A.U. after   26 cycles
 SCF Done:  E(UB3LYP) =  -3531.43040893     A.U. after   17 cycles
 SCF Done:  E(UB3LYP) =  -3531.42801281     A.U. after   18 cycles
 SCF Done:  E(UB3LYP) =  -3531.42793000     A.U. after   18 cycles
 SCF Done:  E(UB3LYP) =  -3531.43074902     A.U. after   12 cycles
 SCF Done:  E(UB3LYP) =  -3531.43022791     A.U. after   17 cycles
 SCF Done:  E(UB3LYP) =  -3531.43106235     A.U. after   17 cycles
 SCF Done:  E(UB3LYP) =  -3531.43103514     A.U. after   15 cycles
 SCF Done:  E(UB3LYP) =  -3531.43120939     A.U. after   15 cycles
 SCF Done:  E(UB3LYP) =  -3531.43119737     A.U. after   15 cycles
 SCF Done:  E(UB3LYP) =  -3531.43124732     A.U. after   13 cycles
 SCF Done:  E(UB3LYP) =  -3531.43124779     A.U. after   11 cycles
 SCF Done:  E(UB3LYP) =  -3531.43124805     A.U. after   10 cycles
 SCF Done:  E(UB3LYP) =  -3531.43124811     A.U. after   10 cycles
 SCF Done:  E(UB3LYP) =  -3531.43124812     A.U. after    8 cycles
 SCF Done:  E(UB3LYP) =  -3531.43124814     A.U. after    8 cycles
 SCF Done:  E(UB3LYP) =  -3531.43124817     A.U. after    8 cycles
 Optimization completed.
    -- Stationary point found.
 Normal termination of Gaussian 16 at Sun Jun 20 07:02:52 2021.

 ----------------------------------------------------------------------
 #P Geom=AllCheck Guess=TCheck SCRF=Check GenChk UB3LYP/Jul-CC-pVDZ Fre
 q
 ----------------------------------------------------------------------

 Structure from the checkpoint file:  "checkpoint.chk"
 -----
 title
 -----
 Charge =  0 Multiplicity = 6

 SCF Done:  E(UB3LYP) =  -3531.43124817     A.U. after    2 cycles

  Exact polarizability: 316.632  16.420 307.490  10.789   9.257 296.094
 Approx polarizability: 490.172  43.277 464.075   2.196  11.772 495.290

 ******    1 imaginary frequencies (negative Signs) ******

                      1                      2                      3
                      A                      A                      A
 Frequencies --    -17.4573                13.3223                24.2573
 Red. masses --      5.9242                 5.2803                 3.5261
 Frc consts  --      0.0011                 0.0006                 0.0012
 IR Inten    --      1.0807                 0.4549                 2.0393

                      4                      5                      6
                      A                      A                      A
 Frequencies --     32.9075                43.3415                54.8356
 Red. masses --      7.6664                 4.1415                 6.3590
 Frc consts  --      0.0049                 0.0046                 0.0113
 IR Inten    --      0.2791                 3.5424                 3.3953

                      7                      8                      9
                      A                      A                      A
 Frequencies --     62.0745                66.6399                69.9354
 Red. masses --      3.3570                 3.0831                 2.3655
 Frc consts  --      0.0076                 0.0081                 0.0068
 IR Inten    --      1.2180                 3.6543                 0.6034

                     10                     11                     12
                      A                      A                      A
 Frequencies --     84.2601                89.1133                95.7872
 Red. masses --      4.2884                 4.1648                 7.0463
 Frc consts  --      0.0179                 0.0195                 0.0381
 IR Inten    --      1.5976                 1.2541                 1.7935

                     13                     14                     15
                      A                      A                      A
 Frequencies --     98.2383               104.8441               117.3858
 Red. masses --      5.2714                 4.5093                13.3258
 Frc consts  --      0.0300                 0.0292                 0.1082
 IR Inten    --      4.2987                 0.5612                 2.4751

                     16                     17                     18
                      A                      A                      A
 Frequencies --    123.8853               134.5043               137.9280
 Red. masses --      6.7445                 4.3129                 2.4347
 Frc consts  --      0.0610                 0.0460                 0.0273
 IR Inten    --     17.0131                17.6853                 3.1407

                     19                     20                     21
                      A                      A                      A
 Frequencies --    146.8926               161.6772               170.4943
 Red. masses --      4.3834                 3.0962                 1.4659
 Frc consts  --      0.0557                 0.0477                 0.0251
 IR Inten    --      3.1252                74.2962                 0.5906

                     22                     23                     24
                      A                      A                      A
 Frequencies --    197.3704               209.4973               225.4415
 Red. masses --      2.8874                 2.8274                 4.4153
 Frc consts  --      0.0663                 0.0731                 0.1322
 IR Inten    --      0.6390                17.9065                48.9755

                     25                     26                     27
                      A                      A                      A
 Frequencies --    236.0412               258.4758               290.9516
 Red. masses --      3.6179                 1.6955                 3.9435
 Frc consts  --      0.1188                 0.0667                 0.1967
 IR Inten    --     46.4720                 3.0071                 1.5259

                     28                     29                     30
                      A                      A                      A
 Frequencies --    306.4608               316.8111               345.1566
 Red. masses --      2.4270                 7.9900                20.6685
 Frc consts  --      0.1343                 0.4725                 1.4507
 IR Inten    --      6.9672                 1.8397                51.6710

                     31                     32                     33
                      A                      A                      A
 Frequencies --    356.2509               375.0720               391.6047
 Red. masses --      4.6039                 5.6261                29.8802
 Frc consts  --      0.3443                 0.4663                 2.6998
 IR Inten    --      2.1131                16.7369                89.0685

                     34                     35                     36
                      A                      A                      A
 Frequencies --    396.6503               400.9707               412.6676
 Red. masses --     14.4842                 3.0987                 2.9093
 Frc consts  --      1.3426                 0.2935                 0.2919
 IR Inten    --     69.4562                 9.6396                 1.1668

                     37                     38                     39
                      A                      A                      A
 Frequencies --    430.8716               455.1363               484.9706
 Red. masses --      3.8942                 3.9081                 2.3915
 Frc consts  --      0.4260                 0.4770                 0.3314
 IR Inten    --     38.5872                 4.9786                 6.1760

                     40                     41                     42
                      A                      A                      A
 Frequencies --    502.5312               524.7466               536.6426
 Red. masses --      2.7931                 3.4105                 3.4080
 Frc consts  --      0.4156                 0.5533                 0.5783
 IR Inten    --      3.6521                 3.0964                29.8523

                     43                     44                     45
                      A                      A                      A
 Frequencies --    593.4817               625.2585               643.2989
 Red. masses --      4.9731                 6.2172                 4.0389
 Frc consts  --      1.0320                 1.4321                 0.9848
 IR Inten    --     67.6987                 7.8940               118.2056

                     46                     47                     48
                      A                      A                      A
 Frequencies --    696.6465               697.4222               752.5651
 Red. masses --      4.8799                 1.7532                 4.1398
 Frc consts  --      1.3954                 0.5024                 1.3814
 IR Inten    --     37.6968                40.3806                 6.6950

                     49                     50                     51
                      A                      A                      A
 Frequencies --    768.3348               800.8613               812.2448
 Red. masses --      2.2977                 1.5181                 2.0116
 Frc consts  --      0.7992                 0.5737                 0.7819
 IR Inten    --     11.3245                13.6138                15.0082

                     52                     53                     54
                      A                      A                      A
 Frequencies --    822.4657               846.0626               864.1301
 Red. masses --      3.1929                 1.2569                 2.2077
 Frc consts  --      1.2725                 0.5301                 0.9713
 IR Inten    --      9.3408                 1.6525                10.0601

                     55                     56                     57
                      A                      A                      A
 Frequencies --    873.2741               910.0815               924.7517
 Red. masses --      1.6979                 1.7812                 1.8977
 Frc consts  --      0.7629                 0.8692                 0.9562
 IR Inten    --     25.9079                 7.2503                12.5173

                     58                     59                     60
                      A                      A                      A
 Frequencies --    942.4405               954.0215               968.9537
 Red. masses --      1.4123                 1.4229                 3.1473
 Frc consts  --      0.7391                 0.7630                 1.7410
 IR Inten    --      0.4563                 3.3930                16.0342

                     61                     62                     63
                      A                      A                      A
 Frequencies --    987.4866               988.0011               996.9530
 Red. masses --      1.4515                 2.1867                 1.3939
 Frc consts  --      0.8339                 1.2576                 0.8162
 IR Inten    --      1.1672                63.5868                11.2273

                     64                     65                     66
                      A                      A                      A
 Frequencies --   1002.3696              1007.9590              1016.9937
 Red. masses --      2.0595                 2.1286                 1.9542
 Frc consts  --      1.2192                 1.2742                 1.1908
 IR Inten    --      0.4853                 1.8714                14.7447

                     67                     68                     69
                      A                      A                      A
 Frequencies --   1038.5155              1047.5892              1070.8989
 Red. masses --      2.7343                 2.3271                 2.2262
 Frc consts  --      1.7375                 1.5047                 1.5042
 IR Inten    --     45.8526                 3.7158                 1.2991

                     70                     71                     72
                      A                      A                      A
 Frequencies --   1083.2280              1097.2726              1110.7173
 Red. masses --      1.8253                 1.8014                 1.5704
 Frc consts  --      1.2619                 1.2779                 1.1415
 IR Inten    --      0.4830                14.2257                 9.7366

                     73                     74                     75
                      A                      A                      A
 Frequencies --   1133.3005              1139.0429              1163.3735
 Red. masses --      2.1586                 2.3255                 1.6752
 Frc consts  --      1.6335                 1.7776                 1.3358
 IR Inten    --     13.7748                 4.5329                43.3113

                     76                     77                     78
                      A                      A                      A
 Frequencies --   1169.9911              1176.1577              1199.9519
 Red. masses --      1.5739                 1.0882                 1.3754
 Frc consts  --      1.2694                 0.8869                 1.1668
 IR Inten    --      1.6920                 0.8529                55.1454

                     79                     80                     81
                      A                      A                      A
 Frequencies --   1205.7634              1225.9446              1241.2642
 Red. masses --      1.3470                 2.7405                 2.2862
 Frc consts  --      1.1538                 2.4268                 2.0753
 IR Inten    --     27.9955               144.6001                83.9727

                     82                     83                     84
                      A                      A                      A
 Frequencies --   1260.3801              1284.7237              1316.3878
 Red. masses --      1.9606                 1.1079                 1.5637
 Frc consts  --      1.8350                 1.0774                 1.5965
 IR Inten    --     31.0894                 1.2019               166.6321

                     85                     86                     87
                      A                      A                      A
 Frequencies --   1326.3824              1326.7866              1335.0541
 Red. masses --      1.4614                 1.5343                 1.6977
 Frc consts  --      1.5148                 1.5913                 1.7829
 IR Inten    --     11.8134                76.1406                19.1679

                     88                     89                     90
                      A                      A                      A
 Frequencies --   1361.2962              1365.0980              1375.1265
 Red. masses --      3.2872                 1.4889                 1.3020
 Frc consts  --      3.5890                 1.6347                 1.4506
 IR Inten    --      3.5378                14.9920                35.0283

                     91                     92                     93
                      A                      A                      A
 Frequencies --   1383.8503              1395.3161              1404.5259
 Red. masses --      1.4156                 1.2292                 1.6308
 Frc consts  --      1.5972                 1.4100                 1.8955
 IR Inten    --     28.7536                28.3484                17.5284

                     94                     95                     96
                      A                      A                      A
 Frequencies --   1416.4803              1435.6299              1453.3909
 Red. masses --      1.4143                 2.8518                 1.0818
 Frc consts  --      1.6719                 3.4630                 1.3463
 IR Inten    --     22.9552               438.8398                12.1791

                     97                     98                     99
                      A                      A                      A
 Frequencies --   1463.0241              1473.1610              1476.2944
 Red. masses --      1.0851                 1.0404                 1.6831
 Frc consts  --      1.3685                 1.3304                 2.1613
 IR Inten    --      1.2671                 7.0421               101.9222

                    100                    101                    102
                      A                      A                      A
 Frequencies --   1478.0776              1480.0382              1486.6501
 Red. masses --      1.1041                 1.1964                 1.1104
 Frc consts  --      1.4212                 1.5441                 1.4459
 IR Inten    --     20.6403                30.2802                14.7678

                    103                    104                    105
                      A                      A                      A
 Frequencies --   1487.2871              1498.3715              1506.4596
 Red. masses --      1.1657                 1.1685                 1.0851
 Frc consts  --      1.5193                 1.5456                 1.4508
 IR Inten    --     51.6938                20.7478                 8.2258

                    106                    107                    108
                      A                      A                      A
 Frequencies --   1516.5857              1619.2682              1639.4185
 Red. masses --      1.9985                 5.5793                 5.6167
 Frc consts  --      2.7083                 8.6192                 8.8943
 IR Inten    --      5.2108                 5.5861                25.9694

                    109                    110                    111
                      A                      A                      A
 Frequencies --   1657.2184              1765.8873              3016.7591
 Red. masses --      5.3675                11.7571                 1.0398
 Frc consts  --      8.6852                21.6011                 5.5752
 IR Inten    --    147.8413               231.7188                 4.1437

                    112                    113                    114
                      A                      A                      A
 Frequencies --   3025.3868              3038.1426              3042.5782
 Red. masses --      1.0411                 1.0661                 1.0362
 Frc consts  --      5.6142                 5.7978                 5.6514
 IR Inten    --     11.3538                24.6580                16.4036

                    115                    116                    117
                      A                      A                      A
 Frequencies --   3059.2134              3067.4934              3071.1918
 Red. masses --      1.0593                 1.0665                 1.0966
 Frc consts  --      5.8410                 5.9126                 6.0940
 IR Inten    --     16.6830                20.6852                 6.3741

                    118                    119                    120
                      A                      A                      A
 Frequencies --   3072.0203              3079.0514              3096.9003
 Red. masses --      1.0797                 1.0963                 1.0988
 Frc consts  --      6.0035                 6.1235                 6.2092
 IR Inten    --      4.6885                 7.9231                 6.6660

                    121                    122                    123
                      A                      A                      A
 Frequencies --   3107.9060              3116.9523              3118.5051
 Red. masses --      1.1064                 1.1027                 1.1014
 Frc consts  --      6.2965                 6.3120                 6.3108
 IR Inten    --      8.2313                13.7345                19.5635

                    124                    125                    126
                      A                      A                      A
 Frequencies --   3138.9895              3139.7343              3158.7798
 Red. masses --      1.1006                 1.1044                 1.0964
 Frc consts  --      6.3891                 6.4143                 6.4457
 IR Inten    --      8.8546                15.6413                10.5343

                    127                    128                    129
                      A                      A                      A
 Frequencies --   3165.2482              3173.4562              3185.7839
 Red. masses --      1.0874                 1.0859                 1.0909
 Frc consts  --      6.4187                 6.4432                 6.5231
 IR Inten    --     14.3326                 0.3457                 6.8759

                    130                    131                    132
                      A                      A                      A
 Frequencies --   3195.7216              3221.6724              3223.0538
 Red. masses --      1.0966                 1.0926                 1.0926
 Frc consts  --      6.5982                 6.6814                 6.6870
 IR Inten    --     13.0925                 1.4989                 1.9943

 - Thermochemistry -
 -------------------
 Temperature   298.150 Kelvin.  Pressure   1.00000 Atm.
 Atom     1 has atomic number  6 and mass  12.00000

 Molecular mass:   434.99839 amu.
 Principal axes and moments of inertia in atomic units:
                           1         2         3
     Eigenvalues --  9241.65076********************
           X            0.99985  -0.00593   0.01609
           Y            0.00560   0.99978   0.02042
           Z           -0.01621  -0.02032   0.99966
 This molecule is an asymmetric top.
 Rotational symmetry number  1.
 Warning -- assumption of classical behavior for rotation
           may cause significant error
 Rotational temperatures (Kelvin)      0.00937     0.00779     0.00656
 Rotational constants (GHZ):           0.19528     0.16237     0.13667
    1 imaginary frequencies ignored.
 Zero-point vibrational energy     942588.1 (Joules/Mol)
                                  225.28396 (Kcal/Mol)
 Warning -- explicit consideration of  42 degrees of freedom as
           vibrations may cause significant error
 Vibrational temperatures:     19.17    34.90    47.35    62.36    78.90
          (Kelvin)             89.31    95.88   100.62   121.23   128.21
                              137.82   141.34   150.85   168.89   178.24
                              193.52   198.45   211.35   232.62   245.30
                              283.97   301.42   324.36   339.61   371.89
                              418.61   440.93   455.82   496.60   512.57
                              539.65   563.43   570.69   576.91   593.74
                              619.93   654.84   697.76   723.03   754.99
                              772.11   853.89   899.61   925.56  1002.32
                             1003.43  1082.77  1105.46  1152.26  1168.64
                             1183.34  1217.30  1243.29  1256.45  1309.40
                             1330.51  1355.96  1372.62  1394.11  1420.77
                             1421.51  1434.39  1442.19  1450.23  1463.23
                             1494.19  1507.25  1540.78  1558.52  1578.73
                             1598.07  1630.57  1638.83  1673.84  1683.36
                             1692.23  1726.46  1734.82  1763.86  1785.90
                             1813.41  1848.43  1893.99  1908.37  1908.95
                             1920.85  1958.60  1964.07  1978.50  1991.05
                             2007.55  2020.80  2038.00  2065.55  2091.11
                             2104.97  2119.55  2124.06  2126.62  2129.44
                             2138.96  2139.87  2155.82  2167.46  2182.03
                             2329.77  2358.76  2384.37  2540.72  4340.44
                             4352.86  4371.21  4377.59  4401.53  4413.44
                             4418.76  4419.95  4430.07  4455.75  4471.58
                             4484.60  4486.83  4516.31  4517.38  4544.78
                             4554.09  4565.90  4583.63  4597.93  4635.27
                             4637.26

 Zero-point correction=                           0.359013 (Hartree/Particle)
 Thermal correction to Energy=                    0.386731
 Thermal correction to Enthalpy=                  0.387675
 Thermal correction to Gibbs Free Energy=         0.295695
 Sum of electronic and zero-point Energies=          -3531.072235
 Sum of electronic and thermal Energies=             -3531.044517
 Sum of electronic and thermal Enthalpies=           -3531.043573
 Sum of electronic and thermal Free Energies=        -3531.135553

                     E (Thermal)             CV                S
                      KCal/Mol        Cal/Mol-Kelvin    Cal/Mol-Kelvin
 Total                  242.677             97.802            193.589
 Electronic               0.000              0.000              3.561
 Translational            0.889              2.981             44.100
 Rotational               0.889              2.981             35.560
 Vibrational            240.900             91.840            110.368
 Vibration     1          0.593              1.987              7.441
 Vibration     2          0.593              1.985              6.251
 Vibration     3          0.594              1.983              5.646
 Vibration     4          0.595              1.980              5.100
 Vibration     5          0.596              1.976              4.635
 Vibration     6          0.597              1.972              4.390
 Vibration     7          0.598              1.970              4.250
 Vibration     8          0.598              1.968              4.155
 Vibration     9          0.601              1.960              3.789
 Vibration    10          0.602              1.957              3.679
 Vibration    11          0.603              1.952              3.538
 Vibration    12          0.604              1.950              3.489
 Vibration    13          0.605              1.945              3.362
 Vibration    14          0.608              1.935              3.143
 Vibration    15          0.610              1.929              3.039
 Vibration    16          0.613              1.919              2.881
 Vibration    17          0.614              1.915              2.832
 Vibration    18          0.617              1.906              2.712
 Vibration    19          0.622              1.889              2.530
 Vibration    20          0.626              1.879              2.430
 Vibration    21          0.637              1.844              2.157
 Vibration    22          0.642              1.826              2.048
 Vibration    23          0.650              1.802              1.915
 Vibration    24          0.655              1.786              1.833
 Vibration    25          0.667              1.748              1.672
 Vibration    26          0.687              1.691              1.468
 Vibration    27          0.697              1.661              1.381
 Vibration    28          0.704              1.642              1.327
 Vibration    29          0.724              1.585              1.188
 Vibration    30          0.732              1.562              1.138
 Vibration    31          0.746              1.523              1.059
 Vibration    32          0.759              1.488              0.994
 Vibration    33          0.763              1.477              0.975
 Vibration    34          0.767              1.468              0.959
 Vibration    35          0.776              1.443              0.917
 Vibration    36          0.792              1.403              0.856
 Vibration    37          0.813              1.350              0.780
 Vibration    38          0.841              1.283              0.697
 Vibration    39          0.858              1.244              0.652
 Vibration    40          0.880              1.195              0.599
 Vibration    41          0.892              1.169              0.573
 Vibration    42          0.951              1.046              0.461

                           ! Non-Optimized Parameters !
 Normal termination of Gaussian 16 at Sun Jun 20 11:31:17 2021.

 ----------------------------------------------------------------------
 #p ub3lyp jul-cc-pvdz pop=cm5 scrf=(pcm,solvent=dichloroethane) guess=
 read geom=allcheck
 ----------------------------------------------------------------------

 Structure from the checkpoint file:  "checkpoint.chk"
 -----
 title
 -----
 Charge =  0 Multiplicity = 6

 SCF Done:  E(UB3LYP) =  -3531.45080391     A.U. after   18 cycles
 Normal termination of Gaussian 16 at Sun Jun 20 11:56:34 2021.
 Gaussian 16:  ES64L-G16RevA.03 25-Dec-2016

 ----------------------------------------------------------------------
 #p ub3lyp jul-cc-pvdz pop=cm5 scrf=(pcm,solvent=water) guess=read geom
 =allcheck
 ----------------------------------------------------------------------

 Structure from the checkpoint file:  "checkpoint.chk"
 -----
 title
 -----
 Charge =  0 Multiplicity = 6

                         Standard orientation:
 ---------------------------------------------------------------------
 Center     Atomic      Atomic             Coordinates (Angstroms)
 Number     Number       Type             X           Y           Z
 ---------------------------------------------------------------------
      1          6           0        3.184046   -0.243664    0.395922
      2          6           0        1.824687   -0.449398    0.703528
      3          6           0        1.442883   -0.550529    2.054412
      4          6           0        2.396223   -0.462149    3.069444
      5          6           0        3.744127   -0.271340    2.752491
      6          6           0        4.133463   -0.156800    1.412183
      7          6           0        0.757804   -0.501353   -0.347114
      8          6           0        0.911098    0.306900   -1.671772
      9          6           0        1.674374   -0.419678   -2.783102
     10          6           0        1.206741   -1.875675   -2.766227
     11          6           0        1.341937   -2.370006   -1.350573
     12          6           0        0.447867   -3.125457   -0.646597
     13          6           0       -0.952691   -3.390403   -1.083359
     14          8           0       -0.438402   -0.678468    0.072266
     15         26           0       -2.203484    0.110778    0.349550
     16         17           0       -2.861073    0.959342   -1.583852
     17          6           0        0.817836   -3.687363    0.690809
     18         17           0       -1.969886    1.589079    1.970302
     19         17           0       -3.490972   -1.561045    1.016542
     20          1           0        0.390344   -0.665742    2.303312
     21          1           0        2.081381   -0.531898    4.111242
     22          1           0        4.489579   -0.200623    3.546127
     23          1           0        5.181104    0.007817    1.157877
     24          1           0        3.509352   -0.136104   -0.636015
     25          1           0       -0.126936    0.460336   -1.995276
     26          6           0        1.492338    1.701852   -1.401792
     27          1           0        1.476986    0.068072   -3.746633
     28          1           0        2.756720   -0.352860   -2.615466
     29          1           0        0.171899   -1.945861   -3.123369
     30          1           0        1.824411   -2.489490   -3.439645
     31          1           0        2.363849   -2.356906   -0.970091
     32          1           0        1.864477   -3.500777    0.954371
     33          1           0        0.167913   -3.256815    1.470135
     34          1           0        0.636705   -4.773375    0.704965
     35          1           0       -1.119670   -4.478598   -1.126890
     36          1           0       -1.660461   -3.000599   -0.335167
     37          1           0       -1.204366   -2.962209   -2.057452
     38          8           0        0.625437    2.457097   -0.720056
     39          8           0        2.581828    2.073657   -1.785142
     40          6           0        1.042744    3.823321   -0.419641
     41          6           0       -0.153731    4.559788    0.144561
     42          1           0        1.876567    3.768285    0.293983
     43          1           0        1.416989    4.274926   -1.347268
     44          1           0        0.143757    5.589191    0.392085
     45          1           0       -0.970741    4.600058   -0.588365
     46          1           0       -0.527821    4.071008    1.052783
 ---------------------------------------------------------------------

 SCF Done:  E(UB3LYP) =  -3531.45448783     A.U. after   16 cycles

 The electronic state is 6-A.
 Alpha  occ. eigenvalues -- -256.21108-101.52511-101.52419-101.52384 -30.20510
 Alpha  occ. eigenvalues --  -26.05898 -26.05710 -26.05614 -19.20739 -19.18167
 Alpha  occ. eigenvalues --  -19.15729 -10.33580 -10.32953 -10.24990 -10.24177
 Alpha  occ. eigenvalues --  -10.22797 -10.22266 -10.21283 -10.21168 -10.21100
 Alpha  occ. eigenvalues --  -10.20808 -10.20712 -10.20676 -10.20201 -10.19976
 Alpha  occ. eigenvalues --  -10.19551 -10.19241 -10.18566  -9.44235  -9.44150
 Alpha  occ. eigenvalues --   -9.44117  -7.20100  -7.20019  -7.19987  -7.19788
 Alpha  occ. eigenvalues --   -7.19775  -7.19695  -7.19689  -7.19665  -7.19657
 Alpha  occ. eigenvalues --   -3.68174  -2.45814  -2.45455  -2.45269  -1.12642
 Alpha  occ. eigenvalues --   -1.08220  -1.04114  -0.88118  -0.86066  -0.83176
 Alpha  occ. eigenvalues --   -0.80501  -0.79763  -0.79696  -0.78838  -0.78393
 Alpha  occ. eigenvalues --   -0.76713  -0.75038  -0.71305  -0.70319  -0.66798
 Alpha  occ. eigenvalues --   -0.64612  -0.62547  -0.61692  -0.59687  -0.57570
 Alpha  occ. eigenvalues --   -0.55916  -0.54307  -0.53227  -0.51639  -0.50384
 Alpha  occ. eigenvalues --   -0.49871  -0.49144  -0.48825  -0.48441  -0.48246
 Alpha  occ. eigenvalues --   -0.48008  -0.47601  -0.47182  -0.46823  -0.45864
 Alpha  occ. eigenvalues --   -0.45505  -0.44887  -0.43860  -0.43379  -0.42684
 Alpha  occ. eigenvalues --   -0.42356  -0.40985  -0.40430  -0.40109  -0.39974
 Alpha  occ. eigenvalues --   -0.38867  -0.38596  -0.37942  -0.37707  -0.37626
 Alpha  occ. eigenvalues --   -0.37306  -0.36915  -0.36306  -0.36105  -0.35603
 Alpha  occ. eigenvalues --   -0.34821  -0.34447  -0.34084  -0.32328  -0.32156
 Alpha  occ. eigenvalues --   -0.31296  -0.31271  -0.30933  -0.30676  -0.30164
 Alpha  occ. eigenvalues --   -0.29868  -0.29411  -0.28396  -0.27431  -0.25870
 Alpha virt. eigenvalues --   -0.10925  -0.03404  -0.02746  -0.01639  -0.01206
 Alpha virt. eigenvalues --   -0.00184  -0.00021   0.00059   0.01446   0.01567
 Alpha virt. eigenvalues --    0.01767   0.01952   0.02506   0.02928   0.03443

  Beta  occ. eigenvalues -- -256.20923-101.52325-101.52236-101.52195 -30.11556
  Beta  occ. eigenvalues --  -25.98322 -25.98285 -25.98227 -19.20740 -19.17717
  Beta  occ. eigenvalues --  -19.15728 -10.33580 -10.32942 -10.24990 -10.24141
  Beta  occ. eigenvalues --  -10.22785 -10.22246 -10.21283 -10.21169 -10.21102
  Beta  occ. eigenvalues --  -10.20805 -10.20711 -10.20651 -10.20199 -10.19977
  Beta  occ. eigenvalues --  -10.19552 -10.19243 -10.18565  -9.44052  -9.43971
  Beta  occ. eigenvalues --   -9.43932  -7.19795  -7.19714  -7.19679  -7.19537
  Beta  occ. eigenvalues --   -7.19525  -7.19455  -7.19444  -7.19413  -7.19400
  Beta  occ. eigenvalues --   -3.47295  -2.23560  -2.23510  -2.23456  -1.12639
  Beta  occ. eigenvalues --   -1.07350  -1.04111  -0.88074  -0.85999  -0.83118
  Beta  occ. eigenvalues --   -0.79306  -0.78832  -0.78484  -0.78414  -0.78299
  Beta  occ. eigenvalues --   -0.76708  -0.75011  -0.71289  -0.70225  -0.66647
  Beta  occ. eigenvalues --   -0.64547  -0.62516  -0.61611  -0.59283  -0.57326
  Beta  occ. eigenvalues --   -0.55414  -0.54240  -0.52436  -0.51590  -0.50168
  Beta  occ. eigenvalues --   -0.49549  -0.48893  -0.47818  -0.47589  -0.46887
  Beta  occ. eigenvalues --   -0.45771  -0.44955  -0.43859  -0.43384  -0.42682
  Beta  occ. eigenvalues --   -0.42333  -0.41021  -0.40403  -0.40098  -0.39988
  Beta  occ. eigenvalues --   -0.38840  -0.38478  -0.38248  -0.37888  -0.37594
  Beta  occ. eigenvalues --   -0.37245  -0.36951  -0.36360  -0.36193  -0.36123
  Beta  occ. eigenvalues --   -0.35978  -0.35613  -0.34462  -0.33453  -0.33288
  Beta  occ. eigenvalues --   -0.32718  -0.32527  -0.32096  -0.31420  -0.30434
  Beta  occ. eigenvalues --   -0.29749  -0.29385  -0.28498  -0.27435  -0.25747
  Beta virt. eigenvalues --   -0.15108  -0.14607  -0.13690  -0.13432  -0.13209
  Beta virt. eigenvalues --   -0.10071  -0.03379  -0.02697  -0.01560  -0.01140
  Beta virt. eigenvalues --   -0.00141   0.00007   0.00089   0.01467   0.01609

 Mulliken charges and spin densities:
               1          2
     1  C    0.064754  -0.001596
     2  C    3.048528   0.010130
     3  C   -0.621901  -0.007537
     4  C    0.018876   0.003838
     5  C    0.271708  -0.000688
     6  C   -0.055036   0.002612
     7  C   -2.531345  -0.007926
     8  C    0.559897   0.006979
     9  C    0.583836   0.001620
    10  C    0.728469   0.000168
    11  C    0.482028   0.009966
    12  C   -0.169827   0.025939
    13  C    0.091823  -0.002535
    14  O   -0.317251   0.130407
    15  Fe   0.632519   4.070122
    16  Cl  -0.504435   0.245172
    17  C    0.316602  -0.000713
    18  Cl  -0.469231   0.254672
    19  Cl  -0.478400   0.250088
    20  H   -0.230159   0.001008
    21  H   -0.156897   0.000010
    22  H   -0.153318   0.000015
    23  H   -0.156243   0.000139
    24  H   -0.213737  -0.000091
    25  H   -0.183699   0.000231
    26  C    0.767651  -0.002155
    27  H   -0.154679   0.000261
    28  H   -0.020924  -0.000048
    29  H   -0.087966   0.000077
    30  H   -0.124329   0.000866
    31  H   -0.246238  -0.000816
    32  H   -0.000131   0.000002
    33  H    0.074430   0.001286
    34  H   -0.014575   0.001320
    35  H    0.005165   0.001138
    36  H    0.088380   0.002945
    37  H    0.002700   0.000008
    38  O   -0.687434   0.002348
    39  O   -0.613525   0.000931
    40  C    0.428408   0.000922
    41  C    0.046923  -0.000915
    42  H   -0.030825   0.000048
    43  H   -0.033363   0.000026
    44  H   -0.007387   0.000029
    45  H    0.023387   0.000015
    46  H    0.026770  -0.000315
 Sum of Mulliken charges =  -0.00000   5.00000

 Dipole moment (field-independent basis, Debye):
    X=             10.3675    Y=             -5.2753    Z=             -1.5081  Tot=             11.7298
 Quadrupole moment (field-independent basis, Debye-Ang):
   XX=           -195.6404   YY=           -157.4648   ZZ=           -171.3664
   XY=             -5.2619   XZ=             11.8180   YZ=              5.8896

 Normal termination of Gaussian 16 at Sun Jun 20 12:18:30 2021.
