 Gaussian 16, Revision A.03,

 -----------------------------------------------------------
 #p opt=modredundant freq=noraman ub3lyp jul-cc-pvdz pop=cm5
 -----------------------------------------------------------

 -----
 title
 -----
 Symbolic Z-matrix:
 Charge =  0 Multiplicity = 6

 SCF Done:  E(UB3LYP) =  -3531.40631601     A.U. after   23 cycles
 SCF Done:  E(UB3LYP) =  -3531.40625153     A.U. after   17 cycles
 SCF Done:  E(UB3LYP) =  -3531.40381805     A.U. after   17 cycles
 SCF Done:  E(UB3LYP) =  -3531.40619564     A.U. after   15 cycles
 SCF Done:  E(UB3LYP) =  -3531.40668309     A.U. after   10 cycles
 SCF Done:  E(UB3LYP) =  -3531.40687963     A.U. after   15 cycles
 SCF Done:  E(UB3LYP) =  -3531.40688126     A.U. after   14 cycles
 SCF Done:  E(UB3LYP) =  -3531.40690809     A.U. after   13 cycles
 SCF Done:  E(UB3LYP) =  -3531.40691543     A.U. after   13 cycles
 SCF Done:  E(UB3LYP) =  -3531.40692027     A.U. after   12 cycles
 SCF Done:  E(UB3LYP) =  -3531.40692511     A.U. after   11 cycles
 SCF Done:  E(UB3LYP) =  -3531.40692529     A.U. after   11 cycles
 SCF Done:  E(UB3LYP) =  -3531.40692539     A.U. after   11 cycles
 SCF Done:  E(UB3LYP) =  -3531.40692552     A.U. after   11 cycles
 SCF Done:  E(UB3LYP) =  -3531.40692552     A.U. after   10 cycles
 SCF Done:  E(UB3LYP) =  -3531.40692560     A.U. after    9 cycles
 SCF Done:  E(UB3LYP) =  -3531.40692561     A.U. after    9 cycles
 Optimization completed.
    -- Stationary point found.
 Normal termination of Gaussian 16 at Sun Jun 20 03:54:05 2021.

 ----------------------------------------------------------------------
 #P Geom=AllCheck Guess=TCheck SCRF=Check GenChk UB3LYP/Jul-CC-pVDZ Fre
 q
 ----------------------------------------------------------------------

 Structure from the checkpoint file:  "checkpoint.chk"
 -----
 title
 -----
 Charge =  0 Multiplicity = 6

 SCF Done:  E(UB3LYP) =  -3531.40692561     A.U. after    1 cycles

  Exact polarizability: 288.549   3.409 302.800  23.468   7.266 285.772
 Approx polarizability: 422.972   3.016 480.776  43.189   9.982 452.062

 ******    1 imaginary frequencies (negative Signs) ******

                      1                      2                      3
                      A                      A                      A
 Frequencies --   -301.9729                17.9475                21.0243
 Red. masses --     10.6103                 7.3199                 4.5010
 Frc consts  --      0.5700                 0.0014                 0.0012
 IR Inten    --    188.9068                 0.1161                 0.9397

                      4                      5                      6
                      A                      A                      A
 Frequencies --     34.1567                43.9159                48.6096
 Red. masses --      5.7511                 4.4917                 5.4623
 Frc consts  --      0.0040                 0.0051                 0.0076
 IR Inten    --      0.4553                 0.0768                 2.1987

                      7                      8                      9
                      A                      A                      A
 Frequencies --     60.6409                67.9651                78.7436
 Red. masses --      2.4283                 5.2674                10.0394
 Frc consts  --      0.0053                 0.0143                 0.0367
 IR Inten    --      0.0309                 1.2583                 0.7639

                     10                     11                     12
                      A                      A                      A
 Frequencies --     83.1191                90.0846               104.3981
 Red. masses --     10.8778                10.4812                 7.4844
 Frc consts  --      0.0443                 0.0501                 0.0481
 IR Inten    --      0.4523                 0.4328                 0.9501

                     13                     14                     15
                      A                      A                      A
 Frequencies --    114.2902               118.5190               123.7683
 Red. masses --     14.9828                 9.2041                 3.7755
 Frc consts  --      0.1153                 0.0762                 0.0341
 IR Inten    --      2.5334                 4.7200                 1.2198

                     16                     17                     18
                      A                      A                      A
 Frequencies --    130.1697               150.8002               172.4674
 Red. masses --      4.9684                 3.8724                 2.3538
 Frc consts  --      0.0496                 0.0519                 0.0413
 IR Inten    --      2.6060                 1.7610                 1.3339

                     19                     20                     21
                      A                      A                      A
 Frequencies --    185.3593               194.6744               200.9631
 Red. masses --      3.1175                 2.9912                 1.4248
 Frc consts  --      0.0631                 0.0668                 0.0339
 IR Inten    --      4.0797                 4.2454                 2.6120

                     22                     23                     24
                      A                      A                      A
 Frequencies --    221.9431               235.9035               241.3140
 Red. masses --      4.5967                 3.0370                 2.7989
 Frc consts  --      0.1334                 0.0996                 0.0960
 IR Inten    --      6.5484                 1.4320                 4.2595

                     25                     26                     27
                      A                      A                      A
 Frequencies --    249.9228               256.4650               292.2428
 Red. masses --      1.2928                 1.5300                 3.4189
 Frc consts  --      0.0476                 0.0593                 0.1720
 IR Inten    --      8.5933                 1.1498                 6.4111

                     28                     29                     30
                      A                      A                      A
 Frequencies --    311.1508               324.8221               345.0681
 Red. masses --      3.2453                 3.3121                 6.5238
 Frc consts  --      0.1851                 0.2059                 0.4577
 IR Inten    --      0.9802                 8.9905                15.2475

                     31                     32                     33
                      A                      A                      A
 Frequencies --    345.9749               379.7800               387.5117
 Red. masses --      7.4805                 3.2723                24.3065
 Frc consts  --      0.5276                 0.2781                 2.1505
 IR Inten    --     22.6112                 4.2702                74.6566

                     34                     35                     36
                      A                      A                      A
 Frequencies --    396.4203               398.5348               403.5065
 Red. masses --      5.0851                 9.7624                 4.6664
 Frc consts  --      0.4708                 0.9136                 0.4476
 IR Inten    --     33.6602                54.2670                31.3758

                     37                     38                     39
                      A                      A                      A
 Frequencies --    409.4239               462.2769               493.1488
 Red. masses --      2.9473                 3.5032                 3.0634
 Frc consts  --      0.2911                 0.4411                 0.4389
 IR Inten    --      1.1217                 8.4620                 7.5168

                     40                     41                     42
                      A                      A                      A
 Frequencies --    511.7088               537.0180               612.8126
 Red. masses --      2.9346                 3.2617                 4.3131
 Frc consts  --      0.4527                 0.5542                 0.9543
 IR Inten    --      4.5839                18.1067                15.3640

                     43                     44                     45
                      A                      A                      A
 Frequencies --    621.9650               634.8707               661.2047
 Red. masses --      4.1122                 3.6788                 6.4546
 Frc consts  --      0.9372                 0.8736                 1.6626
 IR Inten    --      9.0325                10.9906                22.1827

                     46                     47                     48
                      A                      A                      A
 Frequencies --    705.9007               721.5175               757.0626
 Red. masses --      1.5684                 5.3783                 2.8391
 Frc consts  --      0.4605                 1.6496                 0.9587
 IR Inten    --     42.8241                15.8587                 8.8369

                     49                     50                     51
                      A                      A                      A
 Frequencies --    781.0931               786.8254               806.0007
 Red. masses --      3.2349                 3.2576                 1.1474
 Frc consts  --      1.1628                 1.1882                 0.4392
 IR Inten    --     12.9639                 3.2349                 1.4145

                     52                     53                     54
                      A                      A                      A
 Frequencies --    840.2046               844.0446               861.2648
 Red. masses --      4.7077                 1.2651                 2.0992
 Frc consts  --      1.9581                 0.5310                 0.9175
 IR Inten    --     26.9613                 0.9616                10.1582

                     55                     56                     57
                      A                      A                      A
 Frequencies --    872.8141               892.9438               925.2555
 Red. masses --      2.4760                 1.3470                 1.6647
 Frc consts  --      1.1113                 0.6328                 0.8397
 IR Inten    --      8.8232                 2.9264                14.7828

                     58                     59                     60
                      A                      A                      A
 Frequencies --    928.7049               939.0217               966.2325
 Red. masses --      2.0149                 2.0716                 3.2350
 Frc consts  --      1.0239                 1.0762                 1.7795
 IR Inten    --      3.5314                45.8373                74.6492

                     61                     62                     63
                      A                      A                      A
 Frequencies --    980.3324               982.4986              1000.7040
 Red. masses --      1.4342                 2.5072                 1.3385
 Frc consts  --      0.8121                 1.4260                 0.7898
 IR Inten    --      2.7248                41.5457                 1.3167

                     64                     65                     66
                      A                      A                      A
 Frequencies --   1004.7922              1007.3849              1014.4785
 Red. masses --      4.8365                 1.5806                 2.2304
 Frc consts  --      2.8770                 0.9451                 1.3524
 IR Inten    --      1.9725                 9.2292                45.3152

                     67                     68                     69
                      A                      A                      A
 Frequencies --   1027.0320              1043.7649              1047.4626
 Red. masses --      1.7488                 2.2319                 2.7890
 Frc consts  --      1.0868                 1.4326                 1.8029
 IR Inten    --      7.5424                36.1774                 5.1415

                     70                     71                     72
                      A                      A                      A
 Frequencies --   1057.9979              1078.8488              1098.1928
 Red. masses --      1.8982                 1.9963                 1.9671
 Frc consts  --      1.2519                 1.3690                 1.3978
 IR Inten    --     20.9979                11.6914                24.3241

                     73                     74                     75
                      A                      A                      A
 Frequencies --   1114.1629              1118.4462              1132.8677
 Red. masses --      1.5748                 2.4802                 2.1756
 Frc consts  --      1.1518                 1.8280                 1.6451
 IR Inten    --      4.6001                11.6820                 8.9128

                     76                     77                     78
                      A                      A                      A
 Frequencies --   1160.0340              1169.4428              1174.8428
 Red. masses --      1.6243                 1.5571                 1.0849
 Frc consts  --      1.2878                 1.2546                 0.8823
 IR Inten    --     37.7677                 1.4601                 0.2698

                     79                     80                     81
                      A                      A                      A
 Frequencies --   1198.3008              1207.4570              1224.2616
 Red. masses --      1.8990                 1.1477                 1.8624
 Frc consts  --      1.6066                 0.9858                 1.6446
 IR Inten    --    136.4414                 5.3239               104.9073

                     82                     83                     84
                      A                      A                      A
 Frequencies --   1246.7181              1261.4650              1283.1369
 Red. masses --      1.8570                 2.4543                 1.1084
 Frc consts  --      1.7006                 2.3011                 1.0752
 IR Inten    --     25.0053                58.6247                 1.4502

                     85                     86                     87
                      A                      A                      A
 Frequencies --   1301.9550              1307.3113              1316.7441
 Red. masses --      1.6363                 2.1034                 1.3526
 Frc consts  --      1.6342                 2.1180                 1.3818
 IR Inten    --     62.8548                 5.2623                 2.9511

                     88                     89                     90
                      A                      A                      A
 Frequencies --   1324.9789              1333.7000              1358.2167
 Red. masses --      1.8356                 1.8356                 2.2207
 Frc consts  --      1.8987                 1.9237                 2.4136
 IR Inten    --     30.5003                35.8025                 0.1084

                     91                     92                     93
                      A                      A                      A
 Frequencies --   1363.2700              1380.7084              1388.6544
 Red. masses --      1.4007                 1.3862                 1.5210
 Frc consts  --      1.5338                 1.5570                 1.7281
 IR Inten    --     28.2632                22.3235                58.9369

                     94                     95                     96
                      A                      A                      A
 Frequencies --   1400.6376              1406.1896              1416.1703
 Red. masses --      1.2568                 1.4475                 1.4864
 Frc consts  --      1.4527                 1.6864                 1.7564
 IR Inten    --     33.3879                21.3961                 5.2039

                     97                     98                     99
                      A                      A                      A
 Frequencies --   1446.9520              1465.6163              1469.2143
 Red. masses --      1.1092                 1.7836                 1.2702
 Frc consts  --      1.3683                 2.2573                 1.6155
 IR Inten    --      0.7790                 7.7601                 1.3628

                    100                    101                    102
                      A                      A                      A
 Frequencies --   1473.5375              1474.7463              1486.4513
 Red. masses --      1.0392                 1.1157                 1.0813
 Frc consts  --      1.3295                 1.4297                 1.4077
 IR Inten    --      3.8880                 0.4816                 3.8709

                    103                    104                    105
                      A                      A                      A
 Frequencies --   1487.8500              1497.9061              1507.1727
 Red. masses --      1.0525                 1.0953                 1.0840
 Frc consts  --      1.3728                 1.4479                 1.4508
 IR Inten    --      1.3231                12.1172                 6.0191

                    106                    107                    108
                      A                      A                      A
 Frequencies --   1509.5345              1522.6133              1623.3474
 Red. masses --      1.0832                 2.2433                 5.6009
 Frc consts  --      1.4542                 3.0642                 8.6963
 IR Inten    --      3.9757                 3.2441                 0.4614

                    109                    110                    111
                      A                      A                      A
 Frequencies --   1646.3233              1771.7720              3008.3787
 Red. masses --      5.7819                11.5896                 1.0500
 Frc consts  --      9.2331                21.4356                 5.5990
 IR Inten    --      0.0261               209.8733                 0.8749

                    112                    113                    114
                      A                      A                      A
 Frequencies --   3018.5514              3039.9016              3057.0121
 Red. masses --      1.0505                 1.0356                 1.0602
 Frc consts  --      5.6398                 5.6382                 5.8378
 IR Inten    --      8.7969                20.3021                14.6854

                    115                    116                    117
                      A                      A                      A
 Frequencies --   3058.7194              3063.2061              3081.5081
 Red. masses --      1.0584                 1.0614                 1.0860
 Frc consts  --      5.8340                 5.8678                 6.0761
 IR Inten    --     15.5505                34.6571                 7.0651

                    118                    119                    120
                      A                      A                      A
 Frequencies --   3094.9275              3102.7295              3110.7309
 Red. masses --      1.1033                 1.1067                 1.0816
 Frc consts  --      6.2264                 6.2770                 6.1666
 IR Inten    --      8.2373                 7.3080                 1.3259

                    121                    122                    123
                      A                      A                      A
 Frequencies --   3114.0261              3115.5646              3119.8990
 Red. masses --      1.1030                 1.1023                 1.0823
 Frc consts  --      6.3021                 6.3042                 6.2067
 IR Inten    --     15.4427                22.0004                 5.3479

                    124                    125                    126
                      A                      A                      A
 Frequencies --   3133.9290              3139.9053              3163.2258
 Red. masses --      1.1044                 1.0884                 1.1061
 Frc consts  --      6.3909                 6.3220                 6.5211
 IR Inten    --     21.7191                 9.3526                 1.7671

                    127                    128                    129
                      A                      A                      A
 Frequencies --   3168.7058              3169.7156              3180.0155
 Red. masses --      1.1050                 1.0848                 1.0885
 Frc consts  --      6.5367                 6.4217                 6.4855
 IR Inten    --      4.3669                 0.1061                 7.0663

                    130                    131                    132
                      A                      A                      A
 Frequencies --   3189.7378              3196.6739              3201.1312
 Red. masses --      1.0920                 1.0943                 1.0976
 Frc consts  --      6.5462                 6.5882                 6.6266
 IR Inten    --     16.2468                 5.5413                 9.4586

 - Thermochemistry -
 -------------------
 Temperature   298.150 Kelvin.  Pressure   1.00000 Atm.
 Atom     1 has atomic number  6 and mass  12.00000

 Molecular mass:   434.99839 amu.
 Principal axes and moments of inertia in atomic units:
                           1         2         3
     Eigenvalues --  9060.33986********************
           X            0.99595   0.08881   0.01422
           Y           -0.08903   0.99590   0.01571
           Z           -0.01277  -0.01691   0.99978
 This molecule is an asymmetric top.
 Rotational symmetry number  1.
 Warning -- assumption of classical behavior for rotation
           may cause significant error
 Rotational temperatures (Kelvin)      0.00956     0.00747     0.00680
 Rotational constants (GHZ):           0.19919     0.15555     0.14178
    1 imaginary frequencies ignored.
 Zero-point vibrational energy     940563.2 (Joules/Mol)
                                  224.80000 (Kcal/Mol)
 Warning -- explicit consideration of  41 degrees of freedom as
           vibrations may cause significant error
 Vibrational temperatures:     25.82    30.25    49.14    63.19    69.94
          (Kelvin)             87.25    97.79   113.29   119.59   129.61
                              150.21   164.44   170.52   178.07   187.29
                              216.97   248.14   266.69   280.09   289.14
                              319.33   339.41   347.20   359.58   369.00
                              420.47   447.68   467.35   496.48   497.78
                              546.42   557.54   570.36   573.40   580.56
                              589.07   665.11   709.53   736.23   772.65
                              881.70   894.87   913.44   951.33  1015.63
                             1038.10  1089.24  1123.82  1132.07  1159.66
                             1208.87  1214.39  1239.17  1255.78  1284.75
                             1331.24  1336.20  1351.04  1390.19  1410.48
                             1413.60  1439.79  1445.67  1449.40  1459.61
                             1477.67  1501.74  1507.07  1522.22  1552.22
                             1580.05  1603.03  1609.19  1629.94  1669.03
                             1682.57  1690.34  1724.09  1737.26  1761.44
                             1793.75  1814.97  1846.15  1873.22  1880.93
                             1894.50  1906.35  1918.90  1954.17  1961.44
                             1986.53  1997.96  2015.21  2023.19  2037.55
                             2081.84  2108.69  2113.87  2120.09  2121.83
                             2138.67  2140.68  2155.15  2168.49  2171.88
                             2190.70  2335.63  2368.69  2549.18  4328.39
                             4343.02  4373.74  4398.36  4400.82  4407.27
                             4433.60  4452.91  4464.14  4475.65  4480.39
                             4482.60  4488.84  4509.02  4517.62  4551.18
                             4559.06  4560.51  4575.33  4589.32  4599.30
                             4605.71

 Zero-point correction=                           0.358242 (Hartree/Particle)
 Thermal correction to Energy=                    0.385436
 Thermal correction to Enthalpy=                  0.386380
 Thermal correction to Gibbs Free Energy=         0.296221
 Sum of electronic and zero-point Energies=          -3531.048684
 Sum of electronic and thermal Energies=             -3531.021490
 Sum of electronic and thermal Enthalpies=           -3531.020546
 Sum of electronic and thermal Free Energies=        -3531.110704

                     E (Thermal)             CV                S
                      KCal/Mol        Cal/Mol-Kelvin    Cal/Mol-Kelvin
 Total                  241.865             97.531            189.755
 Electronic               0.000              0.000              3.561
 Translational            0.889              2.981             44.100
 Rotational               0.889              2.981             35.546
 Vibrational            240.087             91.569            106.547
 Vibration     1          0.593              1.986              6.849
 Vibration     2          0.593              1.986              6.535
 Vibration     3          0.594              1.983              5.572
 Vibration     4          0.595              1.980              5.074
 Vibration     5          0.595              1.978              4.873
 Vibration     6          0.597              1.973              4.436
 Vibration     7          0.598              1.969              4.211
 Vibration     8          0.600              1.963              3.922
 Vibration     9          0.600              1.961              3.816
 Vibration    10          0.602              1.956              3.658
 Vibration    11          0.605              1.946              3.370
 Vibration    12          0.607              1.938              3.195
 Vibration    13          0.609              1.934              3.124
 Vibration    14          0.610              1.929              3.041
 Vibration    15          0.612              1.923              2.944
 Vibration    16          0.618              1.902              2.662
 Vibration    17          0.626              1.876              2.408
 Vibration    18          0.631              1.860              2.274
 Vibration    19          0.635              1.847              2.183
 Vibration    20          0.638              1.839              2.124
 Vibration    21          0.648              1.808              1.943
 Vibration    22          0.655              1.786              1.834
 Vibration    23          0.658              1.777              1.793
 Vibration    24          0.663              1.763              1.731
 Vibration    25          0.666              1.752              1.686
 Vibration    26          0.688              1.688              1.461
 Vibration    27          0.700              1.652              1.356
 Vibration    28          0.709              1.626              1.286
 Vibration    29          0.723              1.585              1.189
 Vibration    30          0.724              1.583              1.184
 Vibration    31          0.750              1.513              1.040
 Vibration    32          0.756              1.497              1.010
 Vibration    33          0.763              1.478              0.976
 Vibration    34          0.765              1.473              0.968
 Vibration    35          0.769              1.463              0.950
 Vibration    36          0.774              1.450              0.929
 Vibration    37          0.820              1.334              0.760
 Vibration    38          0.849              1.265              0.675
 Vibration    39          0.867              1.224              0.629
 Vibration    40          0.892              1.168              0.572
 Vibration    41          0.972              1.005              0.428

                           ! Non-Optimized Parameters !
 Normal termination of Gaussian 16 at Sun Jun 20 07:16:00 2021.

 ----------------------------------------------------------------------
 #p ub3lyp jul-cc-pvdz pop=cm5 scrf=(pcm,solvent=dichloroethane) guess=
 read geom=allcheck
 ----------------------------------------------------------------------

 Structure from the checkpoint file:  "checkpoint.chk"
 -----
 title
 -----
 Charge =  0 Multiplicity = 6

 SCF Done:  E(UB3LYP) =  -3531.42806944     A.U. after   18 cycles
 Normal termination of Gaussian 16 at Sun Jun 20 07:37:13 2021.
 Gaussian 16:  ES64L-G16RevA.03 25-Dec-2016

 ----------------------------------------------------------------------
 #p ub3lyp jul-cc-pvdz pop=cm5 scrf=(pcm,solvent=water) guess=read geom
 =allcheck
 ----------------------------------------------------------------------

 Structure from the checkpoint file:  "checkpoint.chk"
 -----
 title
 -----
 Charge =  0 Multiplicity = 6

                         Standard orientation:
 ---------------------------------------------------------------------
 Center     Atomic      Atomic             Coordinates (Angstroms)
 Number     Number       Type             X           Y           Z
 ---------------------------------------------------------------------
      1          6           0        1.881669   -2.073772    1.611296
      2          6           0        1.202716   -0.981301    1.051464
      3          6           0        1.168353    0.225138    1.768587
      4          6           0        1.775548    0.325715    3.021550
      5          6           0        2.440743   -0.771598    3.575058
      6          6           0        2.497116   -1.970830    2.861635
      7          6           0        0.589719   -1.064776   -0.322968
      8          6           0        1.498053   -0.651010   -1.520729
      9          6           0        2.090972   -1.961708   -2.069484
     10          6           0        0.930676   -2.977934   -2.108308
     11          6           0        0.083295   -2.704289   -0.866591
     12          6           0       -1.359719   -2.231957   -0.974704
     13          6           0       -1.992739   -2.007433   -2.306070
     14          8           0       -0.759699   -0.512889   -0.431763
     15         26           0       -1.937929    0.909293    0.275773
     16         17           0       -3.725941    0.822913   -1.036453
     17          6           0       -2.268348   -2.654323    0.132033
     18         17           0       -0.965486    2.883182    0.154123
     19         17           0       -2.496911    0.360325    2.340396
     20          1           0        0.675273    1.102527    1.353211
     21          1           0        1.723740    1.269315    3.566127
     22          1           0        2.913141   -0.691774    4.555136
     23          1           0        3.019077   -2.833768    3.277489
     24          1           0        1.946395   -3.017689    1.071446
     25          1           0        0.835027   -0.188206   -2.262587
     26          6           0        2.592152    0.354028   -1.178599
     27          1           0        2.553734   -1.811775   -3.054236
     28          1           0        2.885010   -2.300145   -1.390373
     29          1           0        0.351205   -2.850665   -3.031776
     30          1           0        1.306091   -4.009976   -2.113458
     31          1           0        0.193205   -3.443268   -0.069543
     32          1           0       -2.526654   -3.709578   -0.070690
     33          1           0       -1.775836   -2.608561    1.108883
     34          1           0       -3.196448   -2.073049    0.152040
     35          1           0       -2.245044   -3.004438   -2.708933
     36          1           0       -2.917133   -1.429023   -2.210708
     37          1           0       -1.324044   -1.515826   -3.018546
     38          8           0        2.179096    1.613323   -1.398036
     39          8           0        3.697225    0.055774   -0.777401
     40          6           0        3.130444    2.670572   -1.085837
     41          6           0        2.524247    3.983130   -1.538193
     42          1           0        3.317131    2.648550   -0.003459
     43          1           0        4.075471    2.444670   -1.597408
     44          1           0        3.216139    4.803364   -1.297838
     45          1           0        2.351615    3.983493   -2.623518
     46          1           0        1.568441    4.169491   -1.031729
 ---------------------------------------------------------------------

 SCF Done:  E(UB3LYP) =  -3531.43210393     A.U. after   14 cycles

 The electronic state is 6-A.
 Alpha  occ. eigenvalues -- -256.21152-101.52792-101.52641-101.52493 -30.20520
 Alpha  occ. eigenvalues --  -26.05859 -26.05760 -26.05652 -19.20288 -19.19332
 Alpha  occ. eigenvalues --  -19.15163 -10.32817 -10.31266 -10.29615 -10.24733
 Alpha  occ. eigenvalues --  -10.22882 -10.21919 -10.21594 -10.20773 -10.20620
 Alpha  occ. eigenvalues --  -10.20486 -10.20324 -10.20263 -10.20236 -10.20183
 Alpha  occ. eigenvalues --  -10.20024 -10.19926 -10.18567  -9.44514  -9.44369
 Alpha  occ. eigenvalues --   -9.44223  -7.20379  -7.20239  -7.20096  -7.20069
 Alpha  occ. eigenvalues --   -7.20053  -7.19924  -7.19901  -7.19768  -7.19764
 Alpha  occ. eigenvalues --   -3.68166  -2.45677  -2.45550  -2.45306  -1.12018
 Alpha  occ. eigenvalues --   -1.03697  -1.03551  -0.87543  -0.86036  -0.83871
 Alpha  occ. eigenvalues --   -0.80752  -0.80023  -0.79847  -0.78602  -0.77775
 Alpha  occ. eigenvalues --   -0.76091  -0.74748  -0.73030  -0.70856  -0.66437
 Alpha  occ. eigenvalues --   -0.64030  -0.62076  -0.60976  -0.59320  -0.56830
 Alpha  occ. eigenvalues --   -0.55962  -0.54162  -0.52403  -0.51300  -0.50467
 Alpha  occ. eigenvalues --   -0.49906  -0.49395  -0.48984  -0.48471  -0.48306
 Alpha  occ. eigenvalues --   -0.47971  -0.47524  -0.47131  -0.46360  -0.46009
 Alpha  occ. eigenvalues --   -0.45464  -0.44646  -0.43961  -0.43233  -0.42840
 Alpha  occ. eigenvalues --   -0.42119  -0.41486  -0.40639  -0.40010  -0.39619
 Alpha  occ. eigenvalues --   -0.39272  -0.39082  -0.38101  -0.37683  -0.37211
 Alpha  occ. eigenvalues --   -0.36879  -0.36589  -0.36111  -0.35843  -0.35649
 Alpha  occ. eigenvalues --   -0.34810  -0.34290  -0.34027  -0.32563  -0.31899
 Alpha  occ. eigenvalues --   -0.31408  -0.31314  -0.31199  -0.31050  -0.30135
 Alpha  occ. eigenvalues --   -0.29982  -0.29764  -0.28651  -0.26812  -0.26165
 Alpha virt. eigenvalues --   -0.08432  -0.03437  -0.02950  -0.01483  -0.01279
 Alpha virt. eigenvalues --   -0.00167  -0.00060   0.00112   0.01463   0.01602
 Alpha virt. eigenvalues --    0.01747   0.01863   0.02387   0.03217   0.03762

  Beta  occ. eigenvalues -- -256.20966-101.52602-101.52453-101.52303 -30.11611
  Beta  occ. eigenvalues --  -25.98360 -25.98347 -25.98283 -19.20288 -19.18866
  Beta  occ. eigenvalues --  -19.15160 -10.32817 -10.31260 -10.29587 -10.24733
  Beta  occ. eigenvalues --  -10.22859 -10.21910 -10.21589 -10.20772 -10.20616
  Beta  occ. eigenvalues --  -10.20484 -10.20323 -10.20262 -10.20235 -10.20182
  Beta  occ. eigenvalues --  -10.20023 -10.19924 -10.18565  -9.44327  -9.44185
  Beta  occ. eigenvalues --   -9.44036  -7.20074  -7.19927  -7.19806  -7.19795
  Beta  occ. eigenvalues --   -7.19782  -7.19667  -7.19654  -7.19511  -7.19509
  Beta  occ. eigenvalues --   -3.47381  -2.23703  -2.23569  -2.23542  -1.12016
  Beta  occ. eigenvalues --   -1.03562  -1.02786  -0.87494  -0.85910  -0.83839
  Beta  occ. eigenvalues --   -0.79529  -0.78750  -0.78560  -0.78529  -0.77721
  Beta  occ. eigenvalues --   -0.76083  -0.74724  -0.73014  -0.70695  -0.66376
  Beta  occ. eigenvalues --   -0.63996  -0.62057  -0.60944  -0.59132  -0.56741
  Beta  occ. eigenvalues --   -0.55464  -0.54102  -0.51681  -0.51226  -0.50037
  Beta  occ. eigenvalues --   -0.49700  -0.48809  -0.47798  -0.47231  -0.46409
  Beta  occ. eigenvalues --   -0.45894  -0.44671  -0.43954  -0.43285  -0.42846
  Beta  occ. eigenvalues --   -0.42166  -0.41453  -0.40622  -0.40017  -0.39554
  Beta  occ. eigenvalues --   -0.39286  -0.38645  -0.38099  -0.37846  -0.37237
  Beta  occ. eigenvalues --   -0.36960  -0.36787  -0.36328  -0.36247  -0.35986
  Beta  occ. eigenvalues --   -0.35761  -0.35555  -0.34222  -0.33624  -0.33451
  Beta  occ. eigenvalues --   -0.32887  -0.32665  -0.31845  -0.31296  -0.30560
  Beta  occ. eigenvalues --   -0.30172  -0.29983  -0.28728  -0.26801  -0.26146
  Beta virt. eigenvalues --   -0.15170  -0.14726  -0.13875  -0.13585  -0.13182
  Beta virt. eigenvalues --   -0.07934  -0.03366  -0.02916  -0.01378  -0.01238
  Beta virt. eigenvalues --   -0.00105  -0.00037   0.00137   0.01486   0.01629

 Mulliken charges and spin densities:
               1          2
     1  C   -0.215118   0.006022
     2  C    3.134106  -0.006073
     3  C   -0.362646  -0.014915
     4  C    0.045799  -0.000432
     5  C    0.216087  -0.000247
     6  C   -0.165882   0.001290
     7  C   -2.257652   0.032559
     8  C    0.267591   0.000561
     9  C    0.468670   0.001802
    10  C    0.549017   0.000491
    11  C    0.850614   0.010164
    12  C   -0.804976   0.008256
    13  C    0.426646  -0.003809
    14  O   -0.267998   0.133930
    15  Fe   0.589626   4.049933
    16  Cl  -0.491920   0.257931
    17  C    0.438930   0.000820
    18  Cl  -0.452886   0.262314
    19  Cl  -0.460857   0.254100
    20  H   -0.321468   0.001110
    21  H   -0.160963   0.000020
    22  H   -0.163200   0.000036
    23  H   -0.159016   0.000053
    24  H   -0.205643   0.000041
    25  H   -0.209167  -0.000035
    26  C    0.995843   0.001944
    27  H   -0.141525   0.000436
    28  H   -0.046808   0.000019
    29  H   -0.096312  -0.000015
    30  H   -0.119895   0.000561
    31  H   -0.238485   0.001178
    32  H    0.038402   0.000124
    33  H    0.056559  -0.000648
    34  H    0.038231  -0.000037
    35  H    0.058926   0.002157
    36  H    0.032772  -0.000578
    37  H    0.052199  -0.000245
    38  O   -0.692351  -0.000923
    39  O   -0.653764   0.000777
    40  C    0.415078  -0.001112
    41  C    0.058406   0.001042
    42  H   -0.041801   0.000018
    43  H   -0.048386  -0.000009
    44  H   -0.003754   0.000075
    45  H    0.021722  -0.000008
    46  H    0.027246  -0.000680
 Sum of Mulliken charges =  -0.00000   5.00000

 Dipole moment (field-independent basis, Debye):
    X=              3.8845    Y=             -9.8825    Z=             -4.8106  Tot=             11.6574
 Quadrupole moment (field-independent basis, Debye-Ang):
   XX=           -199.6476   YY=           -151.9504   ZZ=           -167.5686
   XY=             20.8064   XZ=              8.5517   YZ=              6.8311

 Normal termination of Gaussian 16 at Sun Jun 20 07:53:48 2021.
