 Gaussian 16, Revision A.03,

 -----------------------------------------------------------
 #p opt=modredundant freq=noraman ub3lyp jul-cc-pvdz pop=cm5
 -----------------------------------------------------------

 -----
 title
 -----
 Symbolic Z-matrix:
 Charge =  0 Multiplicity = 6

 SCF Done:  E(UB3LYP) =  -3531.42846950     A.U. after   25 cycles
 SCF Done:  E(UB3LYP) =  -3531.42695628     A.U. after   18 cycles
 SCF Done:  E(UB3LYP) =  -3531.42642757     A.U. after   18 cycles
 SCF Done:  E(UB3LYP) =  -3531.42586370     A.U. after   18 cycles
 SCF Done:  E(UB3LYP) =  -3531.42862079     A.U. after   12 cycles
 SCF Done:  E(UB3LYP) =  -3531.42861362     A.U. after   16 cycles
 SCF Done:  E(UB3LYP) =  -3531.42883014     A.U. after   16 cycles
 SCF Done:  E(UB3LYP) =  -3531.42906861     A.U. after   16 cycles
 SCF Done:  E(UB3LYP) =  -3531.42914281     A.U. after   14 cycles
 SCF Done:  E(UB3LYP) =  -3531.42916268     A.U. after   14 cycles
 SCF Done:  E(UB3LYP) =  -3531.42919743     A.U. after   11 cycles
 SCF Done:  E(UB3LYP) =  -3531.42919789     A.U. after   11 cycles
 SCF Done:  E(UB3LYP) =  -3531.42919823     A.U. after   12 cycles
 SCF Done:  E(UB3LYP) =  -3531.42919847     A.U. after   11 cycles
 SCF Done:  E(UB3LYP) =  -3531.42919864     A.U. after   12 cycles
 SCF Done:  E(UB3LYP) =  -3531.42919866     A.U. after   11 cycles
 SCF Done:  E(UB3LYP) =  -3531.42919864     A.U. after   10 cycles
 Optimization completed.
    -- Stationary point found.
 Normal termination of Gaussian 16 at Sun Jun 20 14:35:40 2021.

 ----------------------------------------------------------------------
 #P Geom=AllCheck Guess=TCheck SCRF=Check GenChk UB3LYP/Jul-CC-pVDZ Fre
 q
 ----------------------------------------------------------------------

 Structure from the checkpoint file:  "checkpoint.chk"
 -----
 title
 -----
 Charge =  0 Multiplicity = 6

 SCF Done:  E(UB3LYP) =  -3531.42919864     A.U. after    1 cycles

  Exact polarizability: 317.179  13.877 303.659  13.899   9.152 300.774
 Approx polarizability: 489.501  46.182 463.135  14.243   8.473 499.726

 ******    1 imaginary frequencies (negative Signs) ******

                      1                      2                      3
                      A                      A                      A
 Frequencies --    -23.2517                17.5150                24.3628
 Red. masses --      6.4010                 5.0288                 5.7825
 Frc consts  --      0.0020                 0.0009                 0.0020
 IR Inten    --      0.5142                 0.2309                 0.9920

                      4                      5                      6
                      A                      A                      A
 Frequencies --     28.7888                46.1531                49.3284
 Red. masses --      8.1936                 4.4981                 4.0765
 Frc consts  --      0.0040                 0.0056                 0.0058
 IR Inten    --      0.3913                 2.1730                 1.5719

                      7                      8                      9
                      A                      A                      A
 Frequencies --     58.9851                64.3985                80.5907
 Red. masses --      5.1681                 3.4371                 9.9575
 Frc consts  --      0.0106                 0.0084                 0.0381
 IR Inten    --      1.1106                 1.7982                 0.6317

                     10                     11                     12
                      A                      A                      A
 Frequencies --     87.4118                93.5208                99.3175
 Red. masses --      8.1492                 7.9869                 4.1221
 Frc consts  --      0.0367                 0.0412                 0.0240
 IR Inten    --      1.0836                 3.5162                 1.1830

                     13                     14                     15
                      A                      A                      A
 Frequencies --    103.8086               116.6667               121.3105
 Red. masses --      6.1416                15.5705                 1.5620
 Frc consts  --      0.0390                 0.1249                 0.0135
 IR Inten    --      0.9717                 0.3341                 4.5924

                     16                     17                     18
                      A                      A                      A
 Frequencies --    125.7894               142.1389               150.3497
 Red. masses --      6.9179                 3.1081                 3.3099
 Frc consts  --      0.0645                 0.0370                 0.0441
 IR Inten    --      2.2451                 7.6467                 3.1306

                     19                     20                     21
                      A                      A                      A
 Frequencies --    161.4172               172.4423               184.1746
 Red. masses --      2.9222                 3.6785                 1.1993
 Frc consts  --      0.0449                 0.0644                 0.0240
 IR Inten    --     22.1341                19.9931                 2.6284

                     22                     23                     24
                      A                      A                      A
 Frequencies --    200.5366               205.5419               228.3508
 Red. masses --      3.1232                 2.4135                 3.4877
 Frc consts  --      0.0740                 0.0601                 0.1071
 IR Inten    --      0.4745                 4.3586                 9.8235

                     25                     26                     27
                      A                      A                      A
 Frequencies --    256.0154               260.0283               292.1888
 Red. masses --      3.2522                 1.9857                 3.9332
 Frc consts  --      0.1256                 0.0791                 0.1978
 IR Inten    --     85.0299                22.1354                 3.0607

                     28                     29                     30
                      A                      A                      A
 Frequencies --    318.8499               328.5894               349.2186
 Red. masses --      2.2552                11.3140                11.3562
 Frc consts  --      0.1351                 0.7197                 0.8160
 IR Inten    --      1.0192                 6.4689                35.0388

                     31                     32                     33
                      A                      A                      A
 Frequencies --    354.1137               374.9073               392.1456
 Red. masses --      6.0943                 4.4285                27.0809
 Frc consts  --      0.4503                 0.3667                 2.4536
 IR Inten    --     16.7136                18.4851                86.9331

                     34                     35                     36
                      A                      A                      A
 Frequencies --    397.1236               400.2131               410.0648
 Red. masses --      8.6631                 3.3805                 2.8584
 Frc consts  --      0.8050                 0.3190                 0.2832
 IR Inten    --     57.2106                24.4507                 0.6951

                     37                     38                     39
                      A                      A                      A
 Frequencies --    425.4964               454.0441               479.2250
 Red. masses --      3.7109                 3.8134                 2.9199
 Frc consts  --      0.3958                 0.4632                 0.3951
 IR Inten    --     45.5509                 1.0989                10.9381

                     40                     41                     42
                      A                      A                      A
 Frequencies --    507.9048               521.2409               550.7181
 Red. masses --      3.0163                 3.1015                 3.1379
 Frc consts  --      0.4584                 0.4965                 0.5607
 IR Inten    --      9.5790                 4.5332                29.5904

                     43                     44                     45
                      A                      A                      A
 Frequencies --    592.4783               624.5873               642.7796
 Red. masses --      4.3437                 6.1000                 4.0653
 Frc consts  --      0.8984                 1.4021                 0.9896
 IR Inten    --     75.9134                12.2757                95.7393

                     46                     47                     48
                      A                      A                      A
 Frequencies --    690.6460               701.9855               754.1240
 Red. masses --      1.6178                 6.2083                 4.5418
 Frc consts  --      0.4547                 1.8025                 1.5218
 IR Inten    --     56.7946                16.3018                 6.4524

                     49                     50                     51
                      A                      A                      A
 Frequencies --    766.6276               792.6760               803.3544
 Red. masses --      2.3416                 2.2957                 1.3393
 Frc consts  --      0.8108                 0.8499                 0.5093
 IR Inten    --     17.4724                15.6692                 2.4149

                     52                     53                     54
                      A                      A                      A
 Frequencies --    820.6677               840.8600               860.3864
 Red. masses --      2.9641                 1.2613                 1.6967
 Frc consts  --      1.1762                 0.5254                 0.7400
 IR Inten    --     18.6268                 1.1037                 3.6499

                     55                     56                     57
                      A                      A                      A
 Frequencies --    866.5619               898.4936               922.5196
 Red. masses --      2.2212                 1.8826                 1.9796
 Frc consts  --      0.9828                 0.8954                 0.9926
 IR Inten    --     45.5611                 4.4806                17.7921

                     58                     59                     60
                      A                      A                      A
 Frequencies --    942.2995               957.2373               967.2651
 Red. masses --      1.4198                 1.3543                 3.2415
 Frc consts  --      0.7428                 0.7312                 1.7868
 IR Inten    --      0.2512                 7.7621                30.1063

                     61                     62                     63
                      A                      A                      A
 Frequencies --    985.6587               988.9206               990.7164
 Red. masses --      1.8241                 1.8436                 1.3409
 Frc consts  --      1.0442                 1.0623                 0.7754
 IR Inten    --     13.0174                28.7959                 3.5669

                     64                     65                     66
                      A                      A                      A
 Frequencies --   1002.7860              1008.1446              1010.6933
 Red. masses --      2.6604                 1.7442                 1.9908
 Frc consts  --      1.5762                 1.0444                 1.1981
 IR Inten    --      1.0115                 1.8811                 5.6418

                     67                     68                     69
                      A                      A                      A
 Frequencies --   1036.6551              1047.2576              1071.3294
 Red. masses --      2.6867                 2.4086                 2.3235
 Frc consts  --      1.7011                 1.5564                 1.5713
 IR Inten    --     41.3130                 3.3523                 3.6988

                     70                     71                     72
                      A                      A                      A
 Frequencies --   1086.6600              1096.1808              1112.3761
 Red. masses --      1.8132                 1.8619                 1.5638
 Frc consts  --      1.2615                 1.3182                 1.1401
 IR Inten    --     10.5949                13.0863                 9.2011

                     73                     74                     75
                      A                      A                      A
 Frequencies --   1132.6553              1137.6198              1161.8698
 Red. masses --      2.1378                 2.2724                 1.6909
 Frc consts  --      1.6159                 1.7328                 1.3449
 IR Inten    --     13.6284                 7.5075                67.0440

                     76                     77                     78
                      A                      A                      A
 Frequencies --   1170.7074              1176.8667              1198.7238
 Red. masses --      1.5658                 1.0873                 1.4636
 Frc consts  --      1.2644                 0.8873                 1.2391
 IR Inten    --      3.3363                 1.4570                49.0208

                     79                     80                     81
                      A                      A                      A
 Frequencies --   1206.1162              1223.9367              1252.7928
 Red. masses --      1.3074                 2.2390                 2.2547
 Frc consts  --      1.1206                 1.9762                 2.0849
 IR Inten    --     37.0754               136.4123                63.3989

                     82                     83                     84
                      A                      A                      A
 Frequencies --   1257.0779              1285.8576              1322.2314
 Red. masses --      2.2033                 1.1130                 1.4849
 Frc consts  --      2.0514                 1.0842                 1.5295
 IR Inten    --     74.7746                 0.1045               109.5396

                     85                     86                     87
                      A                      A                      A
 Frequencies --   1323.2496              1330.7280              1335.7277
 Red. masses --      1.4798                 1.5426                 1.6716
 Frc consts  --      1.5266                 1.6095                 1.7572
 IR Inten    --     59.7174                71.0949                24.9652

                     88                     89                     90
                      A                      A                      A
 Frequencies --   1362.1679              1364.3884              1373.1518
 Red. masses --      2.1978                 1.9362                 1.3097
 Frc consts  --      2.4027                 2.1236                 1.4550
 IR Inten    --      4.2286                17.2727                16.2528

                     91                     92                     93
                      A                      A                      A
 Frequencies --   1382.7859              1395.4844              1408.0246
 Red. masses --      1.3955                 1.2827                 1.5016
 Frc consts  --      1.5721                 1.4717                 1.7540
 IR Inten    --     30.5201                21.0766                16.0304

                     94                     95                     96
                      A                      A                      A
 Frequencies --   1415.6398              1443.7894              1456.4972
 Red. masses --      1.4112                 2.4964                 1.1403
 Frc consts  --      1.6663                 3.0660                 1.4253
 IR Inten    --     20.0629               347.7555                31.3574

                     97                     98                     99
                      A                      A                      A
 Frequencies --   1467.5428              1473.4004              1473.7807
 Red. masses --      1.0815                 1.0393                 1.0680
 Frc consts  --      1.3724                 1.3293                 1.3667
 IR Inten    --      1.0379                 5.8016                12.7142

                    100                    101                    102
                      A                      A                      A
 Frequencies --   1478.9264              1484.6317              1487.9222
 Red. masses --      1.2659                 1.9454                 1.0607
 Frc consts  --      1.6313                 2.5264                 1.3836
 IR Inten    --     34.0616               240.9100                 4.1674

                    103                    104                    105
                      A                      A                      A
 Frequencies --   1496.5281              1502.5084              1506.0490
 Red. masses --      1.1617                 1.1442                 1.0839
 Frc consts  --      1.5330                 1.5219                 1.4485
 IR Inten    --     17.0749                29.0011                 7.5150

                    106                    107                    108
                      A                      A                      A
 Frequencies --   1517.3527              1618.4544              1639.5320
 Red. masses --      1.9230                 5.5055                 5.6498
 Frc consts  --      2.6086                 8.4966                 8.9479
 IR Inten    --      8.8393                 4.8571                33.1278

                    109                    110                    111
                      A                      A                      A
 Frequencies --   1674.5428              1767.2088              3017.7630
 Red. masses --      5.8758                11.5042                 1.0468
 Frc consts  --      9.7076                21.1681                 5.6165
 IR Inten    --    141.3746               228.0615                 2.3891

                    112                    113                    114
                      A                      A                      A
 Frequencies --   3024.7953              3041.4281              3041.9822
 Red. masses --      1.0419                 1.0659                 1.0361
 Frc consts  --      5.6167                 5.8094                 5.6488
 IR Inten    --      8.4190                27.2304                17.0746

                    115                    116                    117
                      A                      A                      A
 Frequencies --   3061.2615              3068.2857              3078.0061
 Red. masses --      1.0591                 1.0649                 1.0855
 Frc consts  --      5.8476                 5.9069                 6.0594
 IR Inten    --     14.3435                27.9904                 0.7911

                    118                    119                    120
                      A                      A                      A
 Frequencies --   3078.8096              3096.3989              3102.3013
 Red. masses --      1.0964                 1.0948                 1.0875
 Frc consts  --      6.1232                 6.1842                 6.1668
 IR Inten    --      4.6072                 4.0566                 0.1715

                    121                    122                    123
                      A                      A                      A
 Frequencies --   3109.7397              3118.0988              3123.4413
 Red. masses --      1.1058                 1.1023                 1.0992
 Frc consts  --      6.3005                 6.3145                 6.3180
 IR Inten    --      9.3503                16.1720                15.3276

                    124                    125                    126
                      A                      A                      A
 Frequencies --   3136.0640              3140.1528              3157.9442
 Red. masses --      1.1017                 1.1046                 1.1003
 Frc consts  --      6.3841                 6.4173                 6.4650
 IR Inten    --      9.3671                13.7225                 5.1555

                    127                    128                    129
                      A                      A                      A
 Frequencies --   3162.1679              3174.2428              3187.2909
 Red. masses --      1.0883                 1.0861                 1.0912
 Frc consts  --      6.4114                 6.4478                 6.5315
 IR Inten    --     14.8079                 0.4667                 6.8176

                    130                    131                    132
                      A                      A                      A
 Frequencies --   3196.6913              3226.8254              3242.0180
 Red. masses --      1.0969                 1.0925                 1.0913
 Frc consts  --      6.6045                 6.7024                 6.7583
 IR Inten    --     12.9129                 1.7305                 1.3019

 - Thermochemistry -
 -------------------
 Temperature   298.150 Kelvin.  Pressure   1.00000 Atm.
 Atom     1 has atomic number  6 and mass  12.00000

 Molecular mass:   434.99839 amu.
 Principal axes and moments of inertia in atomic units:
                           1         2         3
     Eigenvalues --  9249.91076********************
           X            0.99825  -0.05756   0.01362
           Y            0.05717   0.99799   0.02721
           Z           -0.01516  -0.02638   0.99954
 This molecule is an asymmetric top.
 Rotational symmetry number  1.
 Warning -- assumption of classical behavior for rotation
           may cause significant error
 Rotational temperatures (Kelvin)      0.00936     0.00784     0.00667
 Rotational constants (GHZ):           0.19511     0.16337     0.13907
    1 imaginary frequencies ignored.
 Zero-point vibrational energy     943914.0 (Joules/Mol)
                                  225.60086 (Kcal/Mol)
 Warning -- explicit consideration of  42 degrees of freedom as
           vibrations may cause significant error
 Vibrational temperatures:     25.20    35.05    41.42    66.40    70.97
          (Kelvin)             84.87    92.66   115.95   125.77   134.56
                              142.90   149.36   167.86   174.54   180.98
                              204.51   216.32   232.24   248.11   264.99
                              288.53   295.73   328.55   368.35   374.12
                              420.39   458.75   472.77   502.45   509.49
                              539.41   564.21   571.37   575.82   589.99
                              612.19   653.27   689.50   730.76   749.95
                              792.36   852.44   898.64   924.82   993.69
                             1010.00  1085.02  1103.01  1140.48  1155.85
                             1180.76  1209.81  1237.90  1246.79  1292.73
                             1327.30  1355.76  1377.25  1391.68  1418.14
                             1422.84  1425.42  1442.79  1450.50  1454.16
                             1491.52  1506.77  1541.40  1563.46  1577.16
                             1600.46  1629.64  1636.78  1671.67  1684.39
                             1693.25  1724.70  1735.33  1760.97  1802.49
                             1808.65  1850.06  1902.40  1903.86  1914.62
                             1921.81  1959.86  1963.05  1975.66  1989.52
                             2007.79  2025.83  2036.79  2077.29  2095.57
                             2111.47  2119.89  2120.44  2127.85  2136.05
                             2140.79  2153.17  2161.77  2166.87  2183.13
                             2328.59  2358.92  2409.29  2542.62  4341.89
                             4352.01  4375.94  4376.73  4404.47  4414.58
                             4428.56  4429.72  4455.03  4463.52  4474.22
                             4486.25  4493.94  4512.10  4517.98  4543.58
                             4549.65  4567.03  4585.80  4599.33  4642.68
                             4664.54

 Zero-point correction=                           0.359518 (Hartree/Particle)
 Thermal correction to Energy=                    0.387014
 Thermal correction to Enthalpy=                  0.387958
 Thermal correction to Gibbs Free Energy=         0.296908
 Sum of electronic and zero-point Energies=          -3531.069681
 Sum of electronic and thermal Energies=             -3531.042185
 Sum of electronic and thermal Enthalpies=           -3531.041241
 Sum of electronic and thermal Free Energies=        -3531.132290

                     E (Thermal)             CV                S
                      KCal/Mol        Cal/Mol-Kelvin    Cal/Mol-Kelvin
 Total                  242.855             97.684            191.630
 Electronic               0.000              0.000              3.561
 Translational            0.889              2.981             44.100
 Rotational               0.889              2.981             35.538
 Vibrational            241.077             91.722            108.431
 Vibration     1          0.593              1.986              6.898
 Vibration     2          0.593              1.985              6.242
 Vibration     3          0.593              1.984              5.911
 Vibration     4          0.595              1.979              4.976
 Vibration     5          0.595              1.978              4.844
 Vibration     6          0.596              1.974              4.491
 Vibration     7          0.597              1.971              4.318
 Vibration     8          0.600              1.962              3.876
 Vibration     9          0.601              1.958              3.717
 Vibration    10          0.603              1.954              3.585
 Vibration    11          0.604              1.950              3.468
 Vibration    12          0.605              1.946              3.382
 Vibration    13          0.608              1.936              3.155
 Vibration    14          0.609              1.931              3.079
 Vibration    15          0.611              1.927              3.009
 Vibration    16          0.616              1.911              2.775
 Vibration    17          0.618              1.902              2.668
 Vibration    18          0.622              1.890              2.533
 Vibration    19          0.626              1.876              2.409
 Vibration    20          0.631              1.861              2.286
 Vibration    21          0.638              1.839              2.128
 Vibration    22          0.640              1.832              2.083
 Vibration    23          0.651              1.798              1.892
 Vibration    24          0.666              1.753              1.689
 Vibration    25          0.668              1.746              1.662
 Vibration    26          0.688              1.688              1.461
 Vibration    27          0.705              1.638              1.316
 Vibration    28          0.712              1.618              1.267
 Vibration    29          0.726              1.577              1.170
 Vibration    30          0.730              1.567              1.148
 Vibration    31          0.746              1.524              1.060
 Vibration    32          0.760              1.487              0.992
 Vibration    33          0.764              1.476              0.973
 Vibration    34          0.766              1.470              0.962
 Vibration    35          0.774              1.448              0.926
 Vibration    36          0.787              1.415              0.873
 Vibration    37          0.812              1.352              0.784
 Vibration    38          0.836              1.296              0.712
 Vibration    39          0.863              1.232              0.639
 Vibration    40          0.876              1.203              0.607
 Vibration    41          0.906              1.138              0.543
 Vibration    42          0.950              1.048              0.463

                           ! Non-Optimized Parameters !
 Normal termination of Gaussian 16 at Sun Jun 20 17:45:12 2021.

 ----------------------------------------------------------------------
 #p ub3lyp jul-cc-pvdz pop=cm5 scrf=(pcm,solvent=dichloroethane) guess=
 read geom=allcheck
 ----------------------------------------------------------------------

 Structure from the checkpoint file:  "checkpoint.chk"
 -----
 title
 -----
 Charge =  0 Multiplicity = 6

 SCF Done:  E(UB3LYP) =  -3531.44763996     A.U. after   18 cycles
 Normal termination of Gaussian 16 at Sun Jun 20 18:05:36 2021.
 Gaussian 16:  ES64L-G16RevA.03 25-Dec-2016

 ----------------------------------------------------------------------
 #p ub3lyp jul-cc-pvdz pop=cm5 scrf=(pcm,solvent=water) guess=read geom
 =allcheck
 ----------------------------------------------------------------------

 Structure from the checkpoint file:  "checkpoint.chk"
 -----
 title
 -----
 Charge =  0 Multiplicity = 6

                         Standard orientation:
 ---------------------------------------------------------------------
 Center     Atomic      Atomic             Coordinates (Angstroms)
 Number     Number       Type             X           Y           Z
 ---------------------------------------------------------------------
      1          6           0        3.232501    0.144748    0.498968
      2          6           0        1.917165   -0.313062    0.717829
      3          6           0        1.549985   -0.720782    2.016600
      4          6           0        2.473522   -0.685670    3.060147
      5          6           0        3.779085   -0.242854    2.826685
      6          6           0        4.152629    0.177193    1.544453
      7          6           0        0.876378   -0.333094   -0.348539
      8          6           0        0.948545    0.602321   -1.583259
      9          6           0        1.932319    0.170704   -2.679348
     10          6           0        1.732832   -1.328103   -2.942189
     11          6           0        1.719698   -2.051177   -1.624079
     12          6           0        0.697364   -2.782514   -1.106026
     13          6           0       -0.636528   -2.948589   -1.767267
     14          8           0       -0.279011   -0.756319   -0.014593
     15         26           0       -2.117277   -0.247095    0.417082
     16         17           0       -3.029439    0.529674   -1.439242
     17          6           0        0.874364   -3.552996    0.165331
     18         17           0       -1.998787    1.210435    2.069434
     19         17           0       -3.047461   -2.133346    1.106048
     20          1           0        0.527302   -1.036963    2.206933
     21          1           0        2.168452   -0.994546    4.060441
     22          1           0        4.501918   -0.213173    3.643590
     23          1           0        5.164382    0.539612    1.359577
     24          1           0        3.542010    0.495635   -0.480660
     25          1           0       -0.072239    0.577012   -1.985562
     26          6           0        1.209037    2.052423   -1.140429
     27          1           0        1.745842    0.766861   -3.583069
     28          1           0        2.964430    0.383710   -2.378885
     29          1           0        0.799816   -1.491444   -3.495332
     30          1           0        2.548783   -1.710315   -3.574042
     31          1           0        2.680269   -2.104004   -1.109385
     32          1           0        1.882852   -3.456121    0.582831
     33          1           0        0.132560   -3.231518    0.912018
     34          1           0        0.674123   -4.619760   -0.024479
     35          1           0       -0.639426   -3.917611   -2.295198
     36          1           0       -1.441776   -2.991392   -1.023684
     37          1           0       -0.872370   -2.169513   -2.497928
     38          8           0        0.092009    2.607123   -0.662934
     39          8           0        2.278684    2.616167   -1.238712
     40          6           0        0.184587    3.991819   -0.207326
     41          6           0       -1.224369    4.499150    0.016486
     42          1           0        0.782737    3.997483    0.714285
     43          1           0        0.724759    4.565058   -0.971401
     44          1           0       -1.177946    5.537933    0.374528
     45          1           0       -1.801492    4.478970   -0.917998
     46          1           0       -1.747223    3.890703    0.764897
 ---------------------------------------------------------------------

 SCF Done:  E(UB3LYP) =  -3531.45120433     A.U. after   17 cycles

 The electronic state is 6-A.
 Alpha  occ. eigenvalues -- -256.21091-101.52455-101.52432-101.52418 -30.20481
 Alpha  occ. eigenvalues --  -26.05874 -26.05680 -26.05587 -19.20838 -19.18266
 Alpha  occ. eigenvalues --  -19.15827 -10.33754 -10.33252 -10.25022 -10.23414
 Alpha  occ. eigenvalues --  -10.23038 -10.22451 -10.21455 -10.21419 -10.21350
 Alpha  occ. eigenvalues --  -10.20894 -10.20835 -10.20407 -10.20119 -10.19857
 Alpha  occ. eigenvalues --  -10.19176 -10.19063 -10.18575  -9.44174  -9.44155
 Alpha  occ. eigenvalues --   -9.44142  -7.20040  -7.20025  -7.20011  -7.19725
 Alpha  occ. eigenvalues --   -7.19715  -7.19706  -7.19695  -7.19688  -7.19682
 Alpha  occ. eigenvalues --   -3.68153  -2.45799  -2.45432  -2.45250  -1.12734
 Alpha  occ. eigenvalues --   -1.08775  -1.04231  -0.88237  -0.85792  -0.83044
 Alpha  occ. eigenvalues --   -0.80474  -0.79721  -0.79696  -0.78729  -0.78605
 Alpha  occ. eigenvalues --   -0.76873  -0.75046  -0.71026  -0.70247  -0.66967
 Alpha  occ. eigenvalues --   -0.64693  -0.62630  -0.61766  -0.59795  -0.57649
 Alpha  occ. eigenvalues --   -0.56003  -0.53918  -0.53289  -0.51800  -0.50540
 Alpha  occ. eigenvalues --   -0.49935  -0.49183  -0.49034  -0.48407  -0.48250
 Alpha  occ. eigenvalues --   -0.47974  -0.47523  -0.47131  -0.46941  -0.45835
 Alpha  occ. eigenvalues --   -0.45576  -0.45010  -0.43897  -0.43084  -0.42743
 Alpha  occ. eigenvalues --   -0.42341  -0.40955  -0.40541  -0.40066  -0.39871
 Alpha  occ. eigenvalues --   -0.38858  -0.38539  -0.37971  -0.37700  -0.37635
 Alpha  occ. eigenvalues --   -0.37428  -0.37066  -0.36391  -0.36077  -0.35370
 Alpha  occ. eigenvalues --   -0.34775  -0.34179  -0.34015  -0.32359  -0.32163
 Alpha  occ. eigenvalues --   -0.31296  -0.31268  -0.30917  -0.30796  -0.30179
 Alpha  occ. eigenvalues --   -0.29854  -0.29518  -0.28451  -0.27562  -0.25458
 Alpha virt. eigenvalues --   -0.10877  -0.03255  -0.02462  -0.01698  -0.01154
 Alpha virt. eigenvalues --   -0.00154   0.00024   0.00058   0.01216   0.01517
 Alpha virt. eigenvalues --    0.01696   0.01990   0.02489   0.02790   0.03191

  Beta  occ. eigenvalues -- -256.20906-101.52270-101.52243-101.52235 -30.11536
  Beta  occ. eigenvalues --  -25.98304 -25.98262 -25.98206 -19.20838 -19.17829
  Beta  occ. eigenvalues --  -19.15825 -10.33753 -10.33240 -10.25022 -10.23384
  Beta  occ. eigenvalues --  -10.23027 -10.22432 -10.21457 -10.21420 -10.21352
  Beta  occ. eigenvalues --  -10.20891 -10.20835 -10.20404 -10.20080 -10.19858
  Beta  occ. eigenvalues --  -10.19177 -10.19065 -10.18574  -9.43991  -9.43970
  Beta  occ. eigenvalues --   -9.43962  -7.19737  -7.19717  -7.19705  -7.19474
  Beta  occ. eigenvalues --   -7.19464  -7.19451  -7.19444  -7.19438  -7.19437
  Beta  occ. eigenvalues --   -3.47292  -2.23558  -2.23513  -2.23455  -1.12730
  Beta  occ. eigenvalues --   -1.07934  -1.04229  -0.88198  -0.85716  -0.82985
  Beta  occ. eigenvalues --   -0.79275  -0.78737  -0.78559  -0.78420  -0.78370
  Beta  occ. eigenvalues --   -0.76870  -0.75013  -0.71004  -0.70142  -0.66832
  Beta  occ. eigenvalues --   -0.64633  -0.62602  -0.61684  -0.59355  -0.57410
  Beta  occ. eigenvalues --   -0.55500  -0.53826  -0.52596  -0.51719  -0.50351
  Beta  occ. eigenvalues --   -0.49494  -0.48948  -0.48015  -0.47534  -0.47011
  Beta  occ. eigenvalues --   -0.45799  -0.45111  -0.43908  -0.43102  -0.42743
  Beta  occ. eigenvalues --   -0.42295  -0.40971  -0.40514  -0.40069  -0.39874
  Beta  occ. eigenvalues --   -0.38745  -0.38548  -0.38162  -0.37947  -0.37673
  Beta  occ. eigenvalues --   -0.37380  -0.37079  -0.36424  -0.36158  -0.36091
  Beta  occ. eigenvalues --   -0.36006  -0.35356  -0.34187  -0.33464  -0.33209
  Beta  occ. eigenvalues --   -0.32678  -0.32550  -0.32160  -0.31344  -0.30474
  Beta  occ. eigenvalues --   -0.29734  -0.29499  -0.28605  -0.27563  -0.25337
  Beta virt. eigenvalues --   -0.15101  -0.14618  -0.13745  -0.13418  -0.13256
  Beta virt. eigenvalues --   -0.10077  -0.03238  -0.02410  -0.01618  -0.01071
  Beta virt. eigenvalues --   -0.00114   0.00056   0.00092   0.01332   0.01541

 Mulliken charges and spin densities:
               1          2
     1  C    0.266890  -0.000509
     2  C    3.001721   0.000288
     3  C   -0.593399  -0.008564
     4  C    0.067173   0.003717
     5  C    0.288944  -0.000103
     6  C   -0.090392   0.002352
     7  C   -2.460960  -0.003813
     8  C    0.425971   0.011048
     9  C    0.496810   0.003457
    10  C    0.660393  -0.001987
    11  C    0.310228   0.023469
    12  C   -0.097696   0.018666
    13  C    0.195543  -0.000721
    14  O   -0.308332   0.127093
    15  Fe   0.676960   4.065816
    16  Cl  -0.511824   0.246397
    17  C    0.290029  -0.000427
    18  Cl  -0.474535   0.254696
    19  Cl  -0.490533   0.251133
    20  H   -0.256578   0.000191
    21  H   -0.158554   0.000007
    22  H   -0.151700   0.000013
    23  H   -0.153907   0.000147
    24  H   -0.243680  -0.000112
    25  H   -0.184991  -0.000599
    26  C    0.761794   0.001207
    27  H   -0.133370   0.000272
    28  H   -0.007068  -0.000027
    29  H   -0.087090   0.000034
    30  H   -0.111330   0.001238
    31  H   -0.270136  -0.001041
    32  H   -0.008492   0.000027
    33  H    0.075893   0.000491
    34  H   -0.019182   0.001172
    35  H   -0.000604   0.001310
    36  H    0.055830   0.001680
    37  H    0.049130  -0.000092
    38  O   -0.656433   0.002218
    39  O   -0.595222   0.000875
    40  C    0.425182   0.000719
    41  C    0.039838  -0.001486
    42  H   -0.034205   0.000023
    43  H   -0.036589   0.000018
    44  H   -0.007212   0.000048
    45  H    0.026899   0.000073
    46  H    0.028781  -0.000412
 Sum of Mulliken charges =  -0.00000   5.00000

 Dipole moment (field-independent basis, Debye):
    X=             10.5402    Y=             -2.5899    Z=             -2.6463  Tot=             11.1717
 Quadrupole moment (field-independent basis, Debye-Ang):
   XX=           -190.7040   YY=           -164.6707   ZZ=           -167.9670
   XY=            -11.5615   XZ=              9.2846   YZ=              5.5929

 Normal termination of Gaussian 16 at Sun Jun 20 18:24:33 2021.
