 Gaussian 16, Revision A.03,

 -----------------------------------------------------------
 #p opt=modredundant freq=noraman ub3lyp jul-cc-pvdz pop=cm5
 -----------------------------------------------------------

 -----
 title
 -----
 Symbolic Z-matrix:
 Charge =  0 Multiplicity = 6

 SCF Done:  E(UB3LYP) =  -3531.42030954     A.U. after   27 cycles
 SCF Done:  E(UB3LYP) =  -3531.42061102     A.U. after   17 cycles
 SCF Done:  E(UB3LYP) =  -3531.41954815     A.U. after   18 cycles
 SCF Done:  E(UB3LYP) =  -3531.41584408     A.U. after   19 cycles
 SCF Done:  E(UB3LYP) =  -3531.41392966     A.U. after   18 cycles
 SCF Done:  E(UB3LYP) =  -3531.41911892     A.U. after   24 cycles
 SCF Done:  E(UB3LYP) =  -3531.42061589     A.U. after    8 cycles
 SCF Done:  E(UB3LYP) =  -3531.42083143     A.U. after   17 cycles
 SCF Done:  E(UB3LYP) =  -3531.42069816     A.U. after   15 cycles
 SCF Done:  E(UB3LYP) =  -3531.42095756     A.U. after   16 cycles
 SCF Done:  E(UB3LYP) =  -3531.42098350     A.U. after   12 cycles
 SCF Done:  E(UB3LYP) =  -3531.42098364     A.U. after   10 cycles
 SCF Done:  E(UB3LYP) =  -3531.42098374     A.U. after   11 cycles
 SCF Done:  E(UB3LYP) =  -3531.42098372     A.U. after   10 cycles
 SCF Done:  E(UB3LYP) =  -3531.42098366     A.U. after   10 cycles
 SCF Done:  E(UB3LYP) =  -3531.42098368     A.U. after    8 cycles
 SCF Done:  E(UB3LYP) =  -3531.42098370     A.U. after    8 cycles
 Optimization completed.
    -- Stationary point found.
 Normal termination of Gaussian 16 at Sun Jun 20 05:15:13 2021.

 ----------------------------------------------------------------------
 #P Geom=AllCheck Guess=TCheck SCRF=Check GenChk UB3LYP/Jul-CC-pVDZ Fre
 q
 ----------------------------------------------------------------------

 Structure from the checkpoint file:  "checkpoint.chk"
 -----
 title
 -----
 Charge =  0 Multiplicity = 6

 SCF Done:  E(UB3LYP) =  -3531.42098370     A.U. after    1 cycles

  Exact polarizability: 318.599  16.123 303.502   9.551   9.642 291.671
 Approx polarizability: 494.456  36.752 459.157  -1.087  17.315 487.061

 ******    2 imaginary frequencies (negative Signs) ******

                      1                      2                      3
                      A                      A                      A
 Frequencies --   -179.7656                -6.8722                16.2421
 Red. masses --      5.9538                 7.5736                 4.5499
 Frc consts  --      0.1134                 0.0002                 0.0007
 IR Inten    --    292.6941                 0.6620                 1.8652

                      4                      5                      6
                      A                      A                      A
 Frequencies --     29.2490                38.9278                48.0688
 Red. masses --      3.7226                 6.8082                 5.3506
 Frc consts  --      0.0019                 0.0061                 0.0073
 IR Inten    --      0.8340                 0.2473                 3.3669

                      7                      8                      9
                      A                      A                      A
 Frequencies --     59.4712                67.2218                72.0516
 Red. masses --      3.6423                 4.1445                 4.7862
 Frc consts  --      0.0076                 0.0110                 0.0146
 IR Inten    --      0.1266                 1.4665                 0.1552

                     10                     11                     12
                      A                      A                      A
 Frequencies --     83.1941                86.9328                92.9479
 Red. masses --      3.9246                 3.7235                 3.0957
 Frc consts  --      0.0160                 0.0166                 0.0158
 IR Inten    --      4.4308                 1.5059                 5.6399

                     13                     14                     15
                      A                      A                      A
 Frequencies --     99.4869               105.3217               113.6947
 Red. masses --      4.3638                 4.1473                 6.6548
 Frc consts  --      0.0254                 0.0271                 0.0507
 IR Inten    --      0.5809                 4.4796                23.0474

                     16                     17                     18
                      A                      A                      A
 Frequencies --    120.1892               124.6941               133.6572
 Red. masses --      7.4043                 2.0746                 3.9232
 Frc consts  --      0.0630                 0.0190                 0.0413
 IR Inten    --      0.8531                 0.2196                 7.8407

                     19                     20                     21
                      A                      A                      A
 Frequencies --    149.9164               163.9743               175.2197
 Red. masses --      3.8446                 1.8500                 2.5817
 Frc consts  --      0.0509                 0.0293                 0.0467
 IR Inten    --      1.9597                 2.2477                 6.1226

                     22                     23                     24
                      A                      A                      A
 Frequencies --    193.0736               209.7773               222.9818
 Red. masses --      3.0888                 3.5121                 3.1986
 Frc consts  --      0.0678                 0.0911                 0.0937
 IR Inten    --      5.0000                 7.3463                14.0459

                     25                     26                     27
                      A                      A                      A
 Frequencies --    244.6037               257.5346               286.9248
 Red. masses --      3.3422                 1.8394                 3.5631
 Frc consts  --      0.1178                 0.0719                 0.1728
 IR Inten    --      4.0906                 3.4856                 0.9164

                     28                     29                     30
                      A                      A                      A
 Frequencies --    301.6535               325.8351               346.7337
 Red. masses --      2.8142                 7.3358                14.0631
 Frc consts  --      0.1509                 0.4589                 0.9961
 IR Inten    --      5.0280                 1.1254                46.9103

                     31                     32                     33
                      A                      A                      A
 Frequencies --    357.8346               370.0774               384.9027
 Red. masses --      4.6771                 5.3457                34.4840
 Frc consts  --      0.3529                 0.4314                 3.0100
 IR Inten    --     11.6243                14.5876                87.5968

                     34                     35                     36
                      A                      A                      A
 Frequencies --    392.6879               403.1587               414.6325
 Red. masses --     29.7698                 2.9285                 2.9164
 Frc consts  --      2.7047                 0.2804                 0.2954
 IR Inten    --     76.2936                 2.8925                 0.4618

                     37                     38                     39
                      A                      A                      A
 Frequencies --    438.2610               451.6010               486.0659
 Red. masses --      3.8973                 4.5354                 2.1038
 Frc consts  --      0.4410                 0.5450                 0.2929
 IR Inten    --     29.5358                 7.4879                 4.3684

                     40                     41                     42
                      A                      A                      A
 Frequencies --    504.0607               535.4947               536.5466
 Red. masses --      2.7263                 3.3707                 3.4468
 Frc consts  --      0.4081                 0.5695                 0.5846
 IR Inten    --      3.0618                 1.6822                26.4066

                     43                     44                     45
                      A                      A                      A
 Frequencies --    606.2333               626.2407               644.5826
 Red. masses --      5.1981                 6.3148                 4.0759
 Frc consts  --      1.1256                 1.4591                 0.9978
 IR Inten    --     32.1003                 5.4626               138.4154

                     46                     47                     48
                      A                      A                      A
 Frequencies --    697.8308               702.5526               755.8375
 Red. masses --      5.5014                 1.6603                 4.0062
 Frc consts  --      1.5784                 0.4828                 1.3485
 IR Inten    --     10.6966                76.4385                 8.9748

                     49                     50                     51
                      A                      A                      A
 Frequencies --    768.6111               801.5120               815.0863
 Red. masses --      2.3729                 1.4207                 2.5598
 Frc consts  --      0.8259                 0.5377                 1.0020
 IR Inten    --      6.9199                12.3287                26.9857

                     52                     53                     54
                      A                      A                      A
 Frequencies --    831.3406               847.5545               864.9394
 Red. masses --      2.9228                 1.2599                 2.0636
 Frc consts  --      1.1902                 0.5332                 0.9096
 IR Inten    --      2.7375                 2.2590                15.6121

                     55                     56                     57
                      A                      A                      A
 Frequencies --    874.3506               905.7866               921.5137
 Red. masses --      1.6978                 1.5643                 2.3664
 Frc consts  --      0.7647                 0.7562                 1.1840
 IR Inten    --      8.4586                 1.5132                14.3325

                     58                     59                     60
                      A                      A                      A
 Frequencies --    938.2220               958.6044               965.2169
 Red. masses --      1.4246                 1.5699                 2.3153
 Frc consts  --      0.7388                 0.8500                 1.2709
 IR Inten    --      3.0973                11.4807                 8.0504

                     61                     62                     63
                      A                      A                      A
 Frequencies --    985.9950               989.9169              1001.1565
 Red. masses --      1.3738                 2.3821                 1.6894
 Frc consts  --      0.7869                 1.3753                 0.9977
 IR Inten    --     13.9240                68.9559                 0.5060

                     64                     65                     66
                      A                      A                      A
 Frequencies --   1003.2614              1008.2315              1008.9312
 Red. masses --      1.4848                 2.5862                 2.0416
 Frc consts  --      0.8805                 1.5490                 1.2244
 IR Inten    --     22.9256                 1.5574                11.3715

                     67                     68                     69
                      A                      A                      A
 Frequencies --   1039.5699              1047.3182              1064.0774
 Red. masses --      2.8673                 2.3324                 2.1180
 Frc consts  --      1.8257                 1.5073                 1.4130
 IR Inten    --     40.9671                 6.8901                 3.1574

                     70                     71                     72
                      A                      A                      A
 Frequencies --   1075.7538              1097.6838              1108.8878
 Red. masses --      1.9019                 1.7136                 1.5782
 Frc consts  --      1.2967                 1.2165                 1.1434
 IR Inten    --      1.5950                11.8205                10.4780

                     73                     74                     75
                      A                      A                      A
 Frequencies --   1133.2845              1137.4655              1163.0565
 Red. masses --      2.1902                 2.4142                 1.6958
 Frc consts  --      1.6573                 1.8403                 1.3515
 IR Inten    --     11.7407                 7.5685                25.6757

                     76                     77                     78
                      A                      A                      A
 Frequencies --   1168.7844              1175.0987              1198.0722
 Red. masses --      1.5709                 1.0882                 1.5190
 Frc consts  --      1.2643                 0.8854                 1.2846
 IR Inten    --      1.2703                 0.4247                66.4554

                     79                     80                     81
                      A                      A                      A
 Frequencies --   1203.0115              1212.3009              1231.0127
 Red. masses --      1.3676                 2.6857                 2.0781
 Frc consts  --      1.1662                 2.3256                 1.8554
 IR Inten    --     19.0507                22.8251               180.8963

                     82                     83                     84
                      A                      A                      A
 Frequencies --   1264.1917              1283.0046              1290.4144
 Red. masses --      1.8112                 1.1841                 1.8419
 Frc consts  --      1.7054                 1.1484                 1.8071
 IR Inten    --     35.8402                50.0700               259.4943

                     85                     86                     87
                      A                      A                      A
 Frequencies --   1320.8195              1326.0163              1332.6447
 Red. masses --      1.4758                 1.4632                 1.7359
 Frc consts  --      1.5169                 1.5159                 1.8164
 IR Inten    --     42.3043                36.0605                19.9480

                     88                     89                     90
                      A                      A                      A
 Frequencies --   1354.7837              1359.3849              1365.1450
 Red. masses --      1.3810                 3.1487                 1.4584
 Frc consts  --      1.4935                 3.4282                 1.6014
 IR Inten    --    124.9487                 0.8948                24.6798

                     91                     92                     93
                      A                      A                      A
 Frequencies --   1374.5721              1381.1176              1386.0813
 Red. masses --      1.6127                 1.3192                 1.4508
 Frc consts  --      1.7953                 1.4826                 1.6422
 IR Inten    --     63.9815                96.8301                32.9436

                     94                     95                     96
                      A                      A                      A
 Frequencies --   1404.1776              1417.5251              1440.4834
 Red. masses --      1.7529                 1.4352                 1.0648
 Frc consts  --      2.0364                 1.6991                 1.3018
 IR Inten    --    146.8022                 1.4602                 2.7716

                     97                     98                     99
                      A                      A                      A
 Frequencies --   1460.6549              1468.0784              1473.0279
 Red. masses --      1.0802                 1.4490                 1.0388
 Frc consts  --      1.3579                 1.8400                 1.3280
 IR Inten    --      4.4279                26.1019                 6.5248

                    100                    101                    102
                      A                      A                      A
 Frequencies --   1474.1864              1478.2184              1485.5939
 Red. masses --      1.5115                 1.1089                 1.0535
 Frc consts  --      1.9353                 1.4277                 1.3699
 IR Inten    --     32.9362                16.7122                 7.0879

                    103                    104                    105
                      A                      A                      A
 Frequencies --   1490.0130              1499.4468              1506.2270
 Red. masses --      1.1644                 1.1374                 1.0863
 Frc consts  --      1.5232                 1.5068                 1.4521
 IR Inten    --      9.6854                 6.3552                 8.2338

                    106                    107                    108
                      A                      A                      A
 Frequencies --   1515.9213              1608.1911              1621.7468
 Red. masses --      2.0548                 4.3449                 5.5641
 Frc consts  --      2.7822                 6.6207                 8.6220
 IR Inten    --      2.5385               136.7787                10.0420

                    109                    110                    111
                      A                      A                      A
 Frequencies --   1639.6567              1763.6400              2986.0933
 Red. masses --      5.6543                11.8109                 1.0533
 Frc consts  --      8.9564                21.6448                 5.5334
 IR Inten    --      8.4505               236.1950                75.7385

                    112                    113                    114
                      A                      A                      A
 Frequencies --   3022.7398              3042.1371              3045.7610
 Red. masses --      1.0402                 1.0361                 1.0638
 Frc consts  --      5.5995                 5.6495                 5.8142
 IR Inten    --      2.8087                16.0570                20.7637

                    115                    116                    117
                      A                      A                      A
 Frequencies --   3057.9586              3063.9246              3072.7039
 Red. masses --      1.0590                 1.0657                 1.0806
 Frc consts  --      5.8348                 5.8946                 6.0111
 IR Inten    --     17.1584                21.0685                 4.6671

                    118                    119                    120
                      A                      A                      A
 Frequencies --   3073.8496              3082.6103              3100.1699
 Red. masses --      1.0908                 1.0862                 1.1009
 Frc consts  --      6.0723                 6.0811                 6.2340
 IR Inten    --      3.5550                 7.3965                11.2078

                    121                    122                    123
                      A                      A                      A
 Frequencies --   3105.9291              3116.5174              3118.3282
 Red. masses --      1.1068                 1.1037                 1.1011
 Frc consts  --      6.2909                 6.3160                 6.3083
 IR Inten    --      7.8940                12.7979                20.6174

                    124                    125                    126
                      A                      A                      A
 Frequencies --   3137.9482              3151.7552              3161.0415
 Red. masses --      1.1045                 1.1002                 1.0975
 Frc consts  --      6.4080                 6.4394                 6.4613
 IR Inten    --     17.5475                 5.1406                 5.6323

                    127                    128                    129
                      A                      A                      A
 Frequencies --   3164.2686              3172.0593              3183.6362
 Red. masses --      1.0879                 1.0856                 1.0903
 Frc consts  --      6.4178                 6.4360                 6.5111
 IR Inten    --     12.8926                 0.2312                 6.9604

                    130                    131                    132
                      A                      A                      A
 Frequencies --   3193.9969              3206.6419              3224.5207
 Red. masses --      1.0957                 1.0942                 1.0924
 Frc consts  --      6.5856                 6.6290                 6.6921
 IR Inten    --     14.0035                 2.9118                 2.8463

 - Thermochemistry -
 -------------------
 Temperature   298.150 Kelvin.  Pressure   1.00000 Atm.
 Atom     1 has atomic number  6 and mass  12.00000

 Molecular mass:   434.99839 amu.
 Principal axes and moments of inertia in atomic units:
                           1         2         3
     Eigenvalues --  9068.02713********************
           X            0.99902   0.04039   0.01818
           Y           -0.04069   0.99904   0.01644
           Z           -0.01750  -0.01716   0.99970
 This molecule is an asymmetric top.
 Rotational symmetry number  1.
 Warning -- assumption of classical behavior for rotation
           may cause significant error
 Rotational temperatures (Kelvin)      0.00955     0.00787     0.00668
 Rotational constants (GHZ):           0.19902     0.16398     0.13915
    2 imaginary frequencies ignored.
 Zero-point vibrational energy     940823.1 (Joules/Mol)
                                  224.86213 (Kcal/Mol)
 Warning -- explicit consideration of  41 degrees of freedom as
           vibrations may cause significant error
 Vibrational temperatures:     23.37    42.08    56.01    69.16    85.57
          (Kelvin)             96.72   103.67   119.70   125.08   133.73
                              143.14   151.53   163.58   172.93   179.41
                              192.30   215.70   235.92   252.10   277.79
                              301.82   320.82   351.93   370.53   412.82
                              434.01   468.80   498.87   514.84   532.46
                              553.79   564.99   580.06   596.56   630.56
                              649.75   699.34   725.23   770.46   771.97
                              872.23   901.02   927.41  1004.02  1010.82
                             1087.48  1105.86  1153.20  1172.73  1196.11
                             1219.44  1244.45  1258.00  1303.22  1325.85
                             1349.89  1379.22  1388.73  1418.63  1424.27
                             1440.44  1443.47  1450.62  1451.63  1495.71
                             1506.86  1530.97  1547.77  1579.32  1595.44
                             1630.54  1636.56  1673.38  1681.62  1690.70
                             1723.76  1730.87  1744.23  1771.15  1818.89
                             1845.96  1856.62  1900.36  1907.84  1917.38
                             1949.23  1955.85  1964.14  1977.70  1987.12
                             1994.26  2020.30  2039.50  2072.53  2101.56
                             2112.24  2119.36  2121.03  2126.83  2137.44
                             2143.80  2157.37  2167.12  2181.07  2313.83
                             2333.33  2359.10  2537.48  4296.32  4349.05
                             4376.96  4382.17  4399.72  4408.30  4420.94
                             4422.58  4435.19  4460.45  4468.74  4483.97
                             4486.58  4514.81  4534.67  4548.03  4552.68
                             4563.89  4580.54  4595.45  4613.64  4639.37

 Zero-point correction=                           0.358341 (Hartree/Particle)
 Thermal correction to Energy=                    0.385215
 Thermal correction to Enthalpy=                  0.386159
 Thermal correction to Gibbs Free Energy=         0.296883
 Sum of electronic and zero-point Energies=          -3531.062643
 Sum of electronic and thermal Energies=             -3531.035769
 Sum of electronic and thermal Enthalpies=           -3531.034825
 Sum of electronic and thermal Free Energies=        -3531.124101

                     E (Thermal)             CV                S
                      KCal/Mol        Cal/Mol-Kelvin    Cal/Mol-Kelvin
 Total                  241.726             95.851            187.897
 Electronic               0.000              0.000              3.561
 Translational            0.889              2.981             44.100
 Rotational               0.889              2.981             35.514
 Vibrational            239.949             89.889            104.723
 Vibration     1          0.593              1.986              7.048
 Vibration     2          0.593              1.984              5.880
 Vibration     3          0.594              1.981              5.313
 Vibration     4          0.595              1.978              4.895
 Vibration     5          0.597              1.974              4.475
 Vibration     6          0.598              1.970              4.233
 Vibration     7          0.598              1.967              4.097
 Vibration     8          0.600              1.961              3.814
 Vibration     9          0.601              1.958              3.728
 Vibration    10          0.602              1.954              3.597
 Vibration    11          0.604              1.949              3.464
 Vibration    12          0.605              1.945              3.353
 Vibration    13          0.607              1.938              3.205
 Vibration    14          0.609              1.932              3.097
 Vibration    15          0.610              1.928              3.026
 Vibration    16          0.613              1.920              2.893
 Vibration    17          0.618              1.903              2.673
 Vibration    18          0.623              1.887              2.503
 Vibration    19          0.627              1.873              2.379
 Vibration    20          0.635              1.849              2.198
 Vibration    21          0.642              1.826              2.046
 Vibration    22          0.649              1.806              1.935
 Vibration    23          0.660              1.772              1.769
 Vibration    24          0.667              1.750              1.678
 Vibration    25          0.684              1.698              1.492
 Vibration    26          0.694              1.671              1.408
 Vibration    27          0.710              1.624              1.281
 Vibration    28          0.725              1.582              1.181
 Vibration    29          0.733              1.559              1.131
 Vibration    30          0.742              1.534              1.079
 Vibration    31          0.754              1.502              1.020
 Vibration    32          0.760              1.486              0.990
 Vibration    33          0.769              1.463              0.951
 Vibration    34          0.778              1.438              0.910
 Vibration    35          0.798              1.387              0.832
 Vibration    36          0.810              1.357              0.791
 Vibration    37          0.842              1.281              0.694
 Vibration    38          0.859              1.241              0.648
 Vibration    39          0.890              1.172              0.575
 Vibration    40          0.892              1.169              0.573
 Vibration    41          0.965              1.019              0.439

                           ! Non-Optimized Parameters !
 Normal termination of Gaussian 16 at Sun Jun 20 08:33:19 2021.

 ----------------------------------------------------------------------
 #p ub3lyp jul-cc-pvdz pop=cm5 scrf=(pcm,solvent=dichloroethane) guess=
 read geom=allcheck
 ----------------------------------------------------------------------

 Structure from the checkpoint file:  "checkpoint.chk"
 -----
 title
 -----
 Charge =  0 Multiplicity = 6

 SCF Done:  E(UB3LYP) =  -3531.44257109     A.U. after   19 cycles
 Normal termination of Gaussian 16 at Sun Jun 20 08:54:46 2021.
 Gaussian 16:  ES64L-G16RevA.03 25-Dec-2016

 ----------------------------------------------------------------------
 #p ub3lyp jul-cc-pvdz pop=cm5 scrf=(pcm,solvent=water) guess=read geom
 =allcheck
 ----------------------------------------------------------------------

 Structure from the checkpoint file:  "checkpoint.chk"
 -----
 title
 -----
 Charge =  0 Multiplicity = 6

                         Standard orientation:
 ---------------------------------------------------------------------
 Center     Atomic      Atomic             Coordinates (Angstroms)
 Number     Number       Type             X           Y           Z
 ---------------------------------------------------------------------
      1          6           0        3.087176   -0.673550    0.367695
      2          6           0        1.715609   -0.640583    0.684001
      3          6           0        1.335357   -0.493305    2.028354
      4          6           0        2.301364   -0.393373    3.032597
      5          6           0        3.659803   -0.439270    2.709861
      6          6           0        4.049350   -0.574504    1.371438
      7          6           0        0.642153   -0.707385   -0.377220
      8          6           0        0.872151    0.074788   -1.724959
      9          6           0        1.426810   -0.812837   -2.841157
     10          6           0        0.751510   -2.171501   -2.652758
     11          6           0        0.933121   -2.510793   -1.191506
     12          6           0        0.024260   -3.172922   -0.385762
     13          6           0       -1.403000   -3.355467   -0.732764
     14          8           0       -0.581534   -0.686047    0.070818
     15         26           0       -2.149467    0.416757    0.321651
     16         17           0       -2.665775    1.345384   -1.623294
     17          6           0        0.436143   -3.667326    0.960627
     18         17           0       -1.722595    1.873012    1.928001
     19         17           0       -3.711154   -1.022312    0.980395
     20          1           0        0.279727   -0.424404    2.280424
     21          1           0        1.986784   -0.268897    4.069492
     22          1           0        4.414253   -0.360177    3.494097
     23          1           0        5.107393   -0.595844    1.107539
     24          1           0        3.416317   -0.761569   -0.666270
     25          1           0       -0.139721    0.401353   -1.998059
     26          6           0        1.700685    1.345355   -1.525833
     27          1           0        1.219478   -0.371326   -3.824159
     28          1           0        2.518144   -0.899402   -2.755743
     29          1           0       -0.309756   -2.108075   -2.923170
     30          1           0        1.209867   -2.945359   -3.286069
     31          1           0        1.976746   -2.624250   -0.896807
     32          1           0        1.480582   -3.444561    1.199013
     33          1           0       -0.218934   -3.234237    1.733562
     34          1           0        0.286268   -4.757943    1.005428
     35          1           0       -1.754660   -4.340902   -0.395464
     36          1           0       -1.996241   -2.613010   -0.167070
     37          1           0       -1.623922   -3.229376   -1.796007
     38          8           0        1.032642    2.242212   -0.792280
     39          8           0        2.804576    1.524137   -1.998406
     40          6           0        1.702241    3.513371   -0.542714
     41          6           0        0.708370    4.434061    0.133613
     42          1           0        2.581773    3.311715    0.084473
     43          1           0        2.053563    3.907079   -1.505254
     44          1           0        1.197943    5.395179    0.348202
     45          1           0       -0.157704    4.621004   -0.515302
     46          1           0        0.346052    4.002903    1.075370
 ---------------------------------------------------------------------

 SCF Done:  E(UB3LYP) =  -3531.44661632     A.U. after   17 cycles

 The electronic state is 6-A.
 Alpha  occ. eigenvalues -- -256.20669-101.52305-101.52175-101.52143 -30.20074
 Alpha  occ. eigenvalues --  -26.05406 -26.05310 -26.05198 -19.20529 -19.17058
 Alpha  occ. eigenvalues --  -19.15510 -10.33267 -10.32279 -10.26703 -10.24897
 Alpha  occ. eigenvalues --  -10.22402 -10.21896 -10.21881 -10.20934 -10.20781
 Alpha  occ. eigenvalues --  -10.20657 -10.20597 -10.20463 -10.20393 -10.20266
 Alpha  occ. eigenvalues --  -10.20069 -10.19926 -10.18543  -9.44030  -9.43903
 Alpha  occ. eigenvalues --   -9.43876  -7.19893  -7.19771  -7.19744  -7.19580
 Alpha  occ. eigenvalues --   -7.19570  -7.19445  -7.19440  -7.19423  -7.19415
 Alpha  occ. eigenvalues --   -3.67753  -2.45298  -2.45093  -2.44891  -1.12422
 Alpha  occ. eigenvalues --   -1.06734  -1.03884  -0.88023  -0.86896  -0.83666
 Alpha  occ. eigenvalues --   -0.80265  -0.79542  -0.79453  -0.78902  -0.78086
 Alpha  occ. eigenvalues --   -0.76402  -0.75098  -0.72325  -0.70916  -0.66519
 Alpha  occ. eigenvalues --   -0.64491  -0.62334  -0.61603  -0.59512  -0.57341
 Alpha  occ. eigenvalues --   -0.56152  -0.54548  -0.52950  -0.51461  -0.50514
 Alpha  occ. eigenvalues --   -0.49848  -0.49346  -0.48840  -0.48165  -0.47929
 Alpha  occ. eigenvalues --   -0.47814  -0.47686  -0.46976  -0.46801  -0.45975
 Alpha  occ. eigenvalues --   -0.45102  -0.44724  -0.43972  -0.43410  -0.42537
 Alpha  occ. eigenvalues --   -0.42465  -0.41170  -0.40622  -0.40288  -0.40033
 Alpha  occ. eigenvalues --   -0.39439  -0.38738  -0.37856  -0.37585  -0.37449
 Alpha  occ. eigenvalues --   -0.37206  -0.36850  -0.36186  -0.35993  -0.35765
 Alpha  occ. eigenvalues --   -0.34890  -0.34475  -0.33946  -0.32119  -0.31982
 Alpha  occ. eigenvalues --   -0.31086  -0.31066  -0.30765  -0.30374  -0.29978
 Alpha  occ. eigenvalues --   -0.29730  -0.29054  -0.28373  -0.27154  -0.26179
 Alpha virt. eigenvalues --   -0.11434  -0.03492  -0.02925  -0.01537  -0.01164
 Alpha virt. eigenvalues --   -0.00173  -0.00026   0.00046   0.01463   0.01641
 Alpha virt. eigenvalues --    0.01850   0.01969   0.02422   0.03610   0.03655

  Beta  occ. eigenvalues -- -256.20484-101.52125-101.52002-101.51960 -30.11125
  Beta  occ. eigenvalues --  -25.97875 -25.97857 -25.97806 -19.20529 -19.16514
  Beta  occ. eigenvalues --  -19.15508 -10.33267 -10.32278 -10.26662 -10.24897
  Beta  occ. eigenvalues --  -10.22388 -10.21875 -10.21849 -10.20935 -10.20784
  Beta  occ. eigenvalues --  -10.20660 -10.20594 -10.20461 -10.20395 -10.20267
  Beta  occ. eigenvalues --  -10.20068 -10.19928 -10.18542  -9.43853  -9.43733
  Beta  occ. eigenvalues --   -9.43698  -7.19595  -7.19474  -7.19444  -7.19339
  Beta  occ. eigenvalues --   -7.19328  -7.19222  -7.19210  -7.19179  -7.19169
  Beta  occ. eigenvalues --   -3.46887  -2.23166  -2.23102  -2.23046  -1.12420
  Beta  occ. eigenvalues --   -1.05678  -1.03881  -0.87938  -0.86834  -0.83611
  Beta  occ. eigenvalues --   -0.79115  -0.78900  -0.78302  -0.78216  -0.77999
  Beta  occ. eigenvalues --   -0.76398  -0.75070  -0.72310  -0.70818  -0.66373
  Beta  occ. eigenvalues --   -0.64416  -0.62299  -0.61543  -0.59163  -0.57109
  Beta  occ. eigenvalues --   -0.55739  -0.54427  -0.52019  -0.51433  -0.50217
  Beta  occ. eigenvalues --   -0.49778  -0.48795  -0.48212  -0.47627  -0.47029
  Beta  occ. eigenvalues --   -0.45811  -0.44818  -0.43957  -0.43436  -0.42544
  Beta  occ. eigenvalues --   -0.42423  -0.41234  -0.40612  -0.40230  -0.40038
  Beta  occ. eigenvalues --   -0.39428  -0.38615  -0.38085  -0.37672  -0.37406
  Beta  occ. eigenvalues --   -0.37235  -0.36895  -0.36219  -0.36021  -0.35886
  Beta  occ. eigenvalues --   -0.35836  -0.35764  -0.34800  -0.33215  -0.33121
  Beta  occ. eigenvalues --   -0.32511  -0.32268  -0.31946  -0.31394  -0.30238
  Beta  occ. eigenvalues --   -0.29617  -0.29029  -0.28509  -0.27160  -0.26120
  Beta virt. eigenvalues --   -0.14574  -0.14211  -0.13332  -0.13110  -0.12780
  Beta virt. eigenvalues --   -0.10554  -0.03445  -0.02904  -0.01443  -0.01124
  Beta virt. eigenvalues --   -0.00131   0.00001   0.00075   0.01478   0.01663

 Mulliken charges and spin densities:
               1          2
     1  C   -0.060213  -0.002179
     2  C    3.031028   0.013392
     3  C   -0.683655  -0.010888
     4  C    0.031178   0.005355
     5  C    0.235213  -0.002577
     6  C   -0.019096   0.002888
     7  C   -2.664888  -0.010054
     8  C    0.698622   0.008036
     9  C    0.644549   0.001007
    10  C    0.728647   0.001190
    11  C    0.702836   0.011396
    12  C   -0.290911   0.030878
    13  C    0.071530  -0.005554
    14  O   -0.404078   0.161257
    15  Fe   0.622942   4.065237
    16  Cl  -0.520172   0.237722
    17  C    0.357190  -0.000723
    18  Cl  -0.482174   0.245656
    19  Cl  -0.500060   0.236566
    20  H   -0.212653   0.002317
    21  H   -0.157636  -0.000000
    22  H   -0.156986   0.000040
    23  H   -0.158476   0.000144
    24  H   -0.197471  -0.000061
    25  H   -0.203383   0.000418
    26  C    0.825648  -0.003210
    27  H   -0.165820   0.000329
    28  H   -0.038290  -0.000084
    29  H   -0.088390   0.000026
    30  H   -0.133597   0.000844
    31  H   -0.213220  -0.000913
    32  H    0.026195   0.000019
    33  H    0.086085   0.001355
    34  H    0.008791   0.001411
    35  H    0.017269   0.000532
    36  H    0.133276   0.004697
    37  H    0.010485   0.000189
    38  O   -0.694161   0.002453
    39  O   -0.639249   0.000991
    40  C    0.434591   0.000915
    41  C    0.047082  -0.000818
    42  H   -0.029717   0.000032
    43  H   -0.035003   0.000024
    44  H   -0.008768   0.000022
    45  H    0.021413  -0.000008
    46  H    0.023496  -0.000267
 Sum of Mulliken charges =  -0.00000   5.00000

 Dipole moment (field-independent basis, Debye):
    X=              9.6384    Y=             -8.7634    Z=             -1.3031  Tot=             13.0918
 Quadrupole moment (field-independent basis, Debye-Ang):
   XX=           -199.3347   YY=           -150.2300   ZZ=           -173.7007
   XY=              1.9319   XZ=             12.6571   YZ=              5.0710

 Normal termination of Gaussian 16 at Sun Jun 20 09:13:47 2021.
