 Gaussian 16, Revision A.03,

 -----------------------------------------------------------
 #p opt=modredundant freq=noraman ub3lyp jul-cc-pvdz pop=cm5
 -----------------------------------------------------------

 -----
 title
 -----
 Symbolic Z-matrix:
 Charge =  0 Multiplicity = 6

 SCF Done:  E(UB3LYP) =  -3531.41116354     A.U. after   26 cycles
 SCF Done:  E(UB3LYP) =  -3531.41111873     A.U. after   18 cycles
 SCF Done:  E(UB3LYP) =  -3531.40305280     A.U. after   18 cycles
 SCF Done:  E(UB3LYP) =  -3531.40218372     A.U. after   18 cycles
 SCF Done:  E(UB3LYP) =  -3531.41129881     A.U. after   14 cycles
 SCF Done:  E(UB3LYP) =  -3531.41106450     A.U. after   15 cycles
 SCF Done:  E(UB3LYP) =  -3531.41147023     A.U. after   16 cycles
 SCF Done:  E(UB3LYP) =  -3531.41169439     A.U. after   16 cycles
 SCF Done:  E(UB3LYP) =  -3531.41177833     A.U. after   15 cycles
 SCF Done:  E(UB3LYP) =  -3531.41179260     A.U. after   14 cycles
 SCF Done:  E(UB3LYP) =  -3531.41182797     A.U. after   11 cycles
 SCF Done:  E(UB3LYP) =  -3531.41182894     A.U. after   11 cycles
 SCF Done:  E(UB3LYP) =  -3531.41182920     A.U. after   11 cycles
 SCF Done:  E(UB3LYP) =  -3531.41182919     A.U. after   11 cycles
 SCF Done:  E(UB3LYP) =  -3531.41182911     A.U. after    8 cycles
 SCF Done:  E(UB3LYP) =  -3531.41182908     A.U. after    9 cycles
 SCF Done:  E(UB3LYP) =  -3531.41182903     A.U. after    9 cycles
 Optimization completed.
    -- Stationary point found.
 Normal termination of Gaussian 16 at Sun Jun 20 04:55:45 2021.

 ----------------------------------------------------------------------
 #P Geom=AllCheck Guess=TCheck SCRF=Check GenChk UB3LYP/Jul-CC-pVDZ Fre
 q
 ----------------------------------------------------------------------

 Structure from the checkpoint file:  "checkpoint.chk"
 -----
 title
 -----
 Charge =  0 Multiplicity = 6

 SCF Done:  E(UB3LYP) =  -3531.41182903     A.U. after    1 cycles

  Exact polarizability: 322.247  14.594 296.298  12.618  12.843 292.356
 Approx polarizability: 500.082  34.604 445.729   8.683  26.041 484.914

 ******    2 imaginary frequencies (negative Signs) ******

                      1                      2                      3
                      A                      A                      A
 Frequencies --   -320.8811               -19.2659                14.6795
 Red. masses --      8.9626                 4.6104                 7.3390
 Frc consts  --      0.5437                 0.0010                 0.0009
 IR Inten    --    362.5001                 1.8411                 0.6901

                      4                      5                      6
                      A                      A                      A
 Frequencies --     25.5453                31.5983                50.9916
 Red. masses --      4.1327                 8.1325                 3.9765
 Frc consts  --      0.0016                 0.0048                 0.0061
 IR Inten    --      0.5775                 0.4735                 1.4310

                      7                      8                      9
                      A                      A                      A
 Frequencies --     53.8252                62.1980                68.0490
 Red. masses --      3.4121                 5.8801                 4.6218
 Frc consts  --      0.0058                 0.0134                 0.0126
 IR Inten    --      1.4612                 0.6580                 1.2297

                     10                     11                     12
                      A                      A                      A
 Frequencies --     84.2003                90.2186               101.5748
 Red. masses --     11.2507                 7.1290                 7.5238
 Frc consts  --      0.0470                 0.0342                 0.0457
 IR Inten    --      0.6941                 1.9841                 0.6244

                     13                     14                     15
                      A                      A                      A
 Frequencies --    104.7330               107.8593               119.6342
 Red. masses --      5.7498                 2.5777                 5.5992
 Frc consts  --      0.0372                 0.0177                 0.0472
 IR Inten    --      6.8091                 2.8150                 0.4937

                     16                     17                     18
                      A                      A                      A
 Frequencies --    122.0875               131.4254               134.5537
 Red. masses --      1.4744                 4.8110                 1.3627
 Frc consts  --      0.0129                 0.0490                 0.0145
 IR Inten    --      1.0810                 1.1163                 4.2023

                     19                     20                     21
                      A                      A                      A
 Frequencies --    147.1111               164.8704               167.1180
 Red. masses --      3.3865                 3.4695                 3.1947
 Frc consts  --      0.0432                 0.0556                 0.0526
 IR Inten    --      1.1274                 7.4730                 1.2617

                     22                     23                     24
                      A                      A                      A
 Frequencies --    189.1936               210.5537               227.8743
 Red. masses --      2.9466                 2.9593                 5.1875
 Frc consts  --      0.0621                 0.0773                 0.1587
 IR Inten    --      1.8428                 1.3465                13.4172

                     25                     26                     27
                      A                      A                      A
 Frequencies --    247.8243               260.9719               292.1373
 Red. masses --      2.7051                 2.0859                 4.1239
 Frc consts  --      0.0979                 0.0837                 0.2074
 IR Inten    --      2.3836                 4.0441                 3.7126

                     28                     29                     30
                      A                      A                      A
 Frequencies --    316.5374               321.2061               342.8350
 Red. masses --      2.4448                 7.0017                16.8902
 Frc consts  --      0.1443                 0.4256                 1.1696
 IR Inten    --      1.3961                 5.3517                53.9869

                     31                     32                     33
                      A                      A                      A
 Frequencies --    352.7765               370.1503               376.0398
 Red. masses --      7.3032                 3.7301                32.8102
 Frc consts  --      0.5355                 0.3011                 2.7335
 IR Inten    --     14.2943                 8.6897                81.8692

                     34                     35                     36
                      A                      A                      A
 Frequencies --    389.6302               406.2011               412.0358
 Red. masses --     32.7138                 2.9532                 2.8864
 Frc consts  --      2.9261                 0.2871                 0.2887
 IR Inten    --     76.3194                 8.2889                 0.7148

                     37                     38                     39
                      A                      A                      A
 Frequencies --    436.7976               451.1044               478.3917
 Red. masses --      3.7115                 4.3740                 2.3367
 Frc consts  --      0.4172                 0.5244                 0.3151
 IR Inten    --     10.1589                18.8486                10.5615

                     40                     41                     42
                      A                      A                      A
 Frequencies --    504.1200               532.8722               554.9603
 Red. masses --      2.7378                 3.1698                 3.2167
 Frc consts  --      0.4099                 0.5303                 0.5837
 IR Inten    --      4.9794                 2.2147                38.4050

                     43                     44                     45
                      A                      A                      A
 Frequencies --    615.9146               627.4171               645.1587
 Red. masses --      4.4253                 6.0853                 4.3748
 Frc consts  --      0.9891                 1.4114                 1.0729
 IR Inten    --     17.8557                 5.8845               119.5405

                     46                     47                     48
                      A                      A                      A
 Frequencies --    699.6778               708.6507               759.5829
 Red. masses --      1.7422                 4.5635                 3.8186
 Frc consts  --      0.5025                 1.3503                 1.2981
 IR Inten    --     37.8135                45.1394                 1.4040

                     49                     50                     51
                      A                      A                      A
 Frequencies --    765.0667               802.7489               810.6421
 Red. masses --      2.6447                 1.3301                 2.2589
 Frc consts  --      0.9121                 0.5050                 0.8746
 IR Inten    --     13.3067                11.7607                 8.9672

                     52                     53                     54
                      A                      A                      A
 Frequencies --    822.1822               843.7106               864.1250
 Red. masses --      3.2931                 1.2581                 2.1124
 Frc consts  --      1.3116                 0.5277                 0.9294
 IR Inten    --     33.1317                 1.7232                 9.7078

                     55                     56                     57
                      A                      A                      A
 Frequencies --    869.7833               885.7792               920.9981
 Red. masses --      1.6780                 1.8395                 2.3441
 Frc consts  --      0.7479                 0.8503                 1.1715
 IR Inten    --     18.4680                 4.3012                14.6543

                     58                     59                     60
                      A                      A                      A
 Frequencies --    935.4585               959.8299               973.2092
 Red. masses --      1.4396                 2.6486                 1.4369
 Frc consts  --      0.7422                 1.4377                 0.8019
 IR Inten    --      3.6089                13.8875                17.3789

                     61                     62                     63
                      A                      A                      A
 Frequencies --    984.4941               992.3089              1000.4363
 Red. masses --      1.4096                 2.8290                 1.7286
 Frc consts  --      0.8049                 1.6412                 1.0193
 IR Inten    --      1.6471                44.9652                 1.3002

                     64                     65                     66
                      A                      A                      A
 Frequencies --   1002.9260              1007.4405              1011.7411
 Red. masses --      2.1350                 2.4705                 1.3332
 Frc consts  --      1.2653                 1.4773                 0.8041
 IR Inten    --      4.1716                 3.3754                24.0906

                     67                     68                     69
                      A                      A                      A
 Frequencies --   1038.6236              1046.0926              1060.9662
 Red. masses --      2.8958                 2.4288                 2.1813
 Frc consts  --      1.8405                 1.5660                 1.4467
 IR Inten    --     39.0087                 6.8446                 9.6593

                     70                     71                     72
                      A                      A                      A
 Frequencies --   1067.3511              1093.1896              1107.8975
 Red. masses --      1.8373                 1.6186                 1.5797
 Frc consts  --      1.2332                 1.1397                 1.1424
 IR Inten    --     25.8661                17.4046                13.1722

                     73                     74                     75
                      A                      A                      A
 Frequencies --   1128.6618              1133.7627              1159.8234
 Red. masses --      2.5172                 2.1990                 1.7918
 Frc consts  --      1.8893                 1.6654                 1.4201
 IR Inten    --     11.9835                 9.3754                29.4470

                     76                     77                     78
                      A                      A                      A
 Frequencies --   1168.8896              1174.7271              1183.5014
 Red. masses --      1.5793                 1.0891                 2.2264
 Frc consts  --      1.2714                 0.8855                 1.8373
 IR Inten    --     14.5926                 0.4222                70.5515

                     79                     80                     81
                      A                      A                      A
 Frequencies --   1194.7137              1204.6302              1228.9044
 Red. masses --      1.9201                 1.3542                 1.9518
 Frc consts  --      1.6148                 1.1578                 1.7367
 IR Inten    --     59.2068                25.7037               158.9302

                     82                     83                     84
                      A                      A                      A
 Frequencies --   1256.4986              1260.9791              1285.5989
 Red. masses --      2.4084                 1.8594                 1.1208
 Frc consts  --      2.2402                 1.7420                 1.0914
 IR Inten    --    364.2398                38.1459                 7.3383

                     85                     86                     87
                      A                      A                      A
 Frequencies --   1319.9237              1323.3822              1329.4260
 Red. masses --      1.5165                 1.3918                 1.6598
 Frc consts  --      1.5567                 1.4361                 1.7283
 IR Inten    --     69.6619                 9.4796                39.5561

                     88                     89                     90
                      A                      A                      A
 Frequencies --   1337.9750              1355.7274              1358.3930
 Red. masses --      1.4849                 1.3640                 3.1849
 Frc consts  --      1.5661                 1.4771                 3.4625
 IR Inten    --     51.7860                76.7992                 4.8259

                     91                     92                     93
                      A                      A                      A
 Frequencies --   1367.0354              1377.1386              1387.7871
 Red. masses --      1.3504                 1.2097                 1.4997
 Frc consts  --      1.4869                 1.3517                 1.7018
 IR Inten    --     18.5717                18.8444                72.7221

                     94                     95                     96
                      A                      A                      A
 Frequencies --   1405.1247              1416.7665              1429.4216
 Red. masses --      1.7567                 1.4469                 1.0832
 Frc consts  --      2.0435                 1.7112                 1.3040
 IR Inten    --     72.6129                 2.7359                24.9169

                     97                     98                     99
                      A                      A                      A
 Frequencies --   1454.8700              1463.5576              1470.2961
 Red. masses --      1.0768                 1.2269                 2.0198
 Frc consts  --      1.3429                 1.5483                 2.5725
 IR Inten    --      5.6217                11.6891                33.9210

                    100                    101                    102
                      A                      A                      A
 Frequencies --   1472.9511              1480.9772              1488.4774
 Red. masses --      1.0387                 1.1149                 1.0543
 Frc consts  --      1.3278                 1.4408                 1.3763
 IR Inten    --      5.2750                12.7474                 3.7502

                    103                    104                    105
                      A                      A                      A
 Frequencies --   1499.7398              1503.4647              1506.9713
 Red. masses --      1.1492                 1.1421                 1.0847
 Frc consts  --      1.5230                 1.5210                 1.4514
 IR Inten    --     10.7015                22.4260                 7.3195

                    106                    107                    108
                      A                      A                      A
 Frequencies --   1515.0768              1571.6364              1619.7835
 Red. masses --      1.9710                 3.4046                 5.6566
 Frc consts  --      2.6657                 4.9548                 8.7442
 IR Inten    --      3.0492               130.6607                 0.8031

                    109                    110                    111
                      A                      A                      A
 Frequencies --   1639.4548              1762.2552              2997.7627
 Red. masses --      5.6916                11.5748                 1.0533
 Frc consts  --      9.0134                21.1788                 5.5771
 IR Inten    --     10.8862               231.1270                 7.4040

                    112                    113                    114
                      A                      A                      A
 Frequencies --   3021.3912              3040.9832              3053.5289
 Red. masses --      1.0399                 1.0361                 1.0638
 Frc consts  --      5.5932                 5.6451                 5.8438
 IR Inten    --      2.8834                20.4388                21.1423

                    115                    116                    117
                      A                      A                      A
 Frequencies --   3058.8087              3068.9036              3075.9051
 Red. masses --      1.0596                 1.0627                 1.0953
 Frc consts  --      5.8409                 5.8971                 6.1053
 IR Inten    --     15.6362                21.4265                 0.2861

                    118                    119                    120
                      A                      A                      A
 Frequencies --   3077.0194              3101.4066              3105.9490
 Red. masses --      1.0843                 1.0954                 1.0852
 Frc consts  --      6.0488                 6.2078                 6.1683
 IR Inten    --      2.7091                11.8919                 2.9861

                    121                    122                    123
                      A                      A                      A
 Frequencies --   3107.4738              3116.6429              3120.1651
 Red. masses --      1.1052                 1.1023                 1.1027
 Frc consts  --      6.2882                 6.3087                 6.3248
 IR Inten    --     10.5455                17.3652                14.7160

                    124                    125                    126
                      A                      A                      A
 Frequencies --   3139.4108              3157.6443              3166.3249
 Red. masses --      1.1042                 1.1013                 1.0878
 Frc consts  --      6.4119                 6.4695                 6.4258
 IR Inten    --     13.7163                 3.9042                 6.7989

                    127                    128                    129
                      A                      A                      A
 Frequencies --   3169.2809              3171.8536              3183.5839
 Red. masses --      1.1029                 1.0856                 1.0905
 Frc consts  --      6.5267                 6.4349                 6.5120
 IR Inten    --      3.2706                 0.2699                 7.3078

                    130                    131                    132
                      A                      A                      A
 Frequencies --   3194.2355              3210.8753              3226.7159
 Red. masses --      1.0962                 1.0931                 1.0922
 Frc consts  --      6.5897                 6.6399                 6.6997
 IR Inten    --     15.5495                 3.3698                 2.9268

 - Thermochemistry -
 -------------------
 Temperature   298.150 Kelvin.  Pressure   1.00000 Atm.
 Atom     1 has atomic number  6 and mass  12.00000

 Molecular mass:   434.99839 amu.
 Principal axes and moments of inertia in atomic units:
                           1         2         3
     Eigenvalues --  8987.73014********************
           X            0.99896   0.04156   0.01856
           Y           -0.04188   0.99897   0.01741
           Z           -0.01781  -0.01817   0.99968
 This molecule is an asymmetric top.
 Rotational symmetry number  1.
 Warning -- assumption of classical behavior for rotation
           may cause significant error
 Rotational temperatures (Kelvin)      0.00964     0.00786     0.00673
 Rotational constants (GHZ):           0.20080     0.16387     0.14033
    2 imaginary frequencies ignored.
 Zero-point vibrational energy     940169.5 (Joules/Mol)
                                  224.70589 (Kcal/Mol)
 Warning -- explicit consideration of  41 degrees of freedom as
           vibrations may cause significant error
 Vibrational temperatures:     21.12    36.75    45.46    73.37    77.44
          (Kelvin)             89.49    97.91   121.15   129.80   146.14
                              150.69   155.19   172.13   175.66   189.09
                              193.59   211.66   237.21   240.45   272.21
                              302.94   327.86   356.56   375.48   420.32
                              455.43   462.14   493.26   507.57   532.56
                              541.04   560.59   584.43   592.83   628.45
                              649.04   688.30   725.32   766.68   798.46
                              886.16   902.71   928.24  1006.68  1019.59
                             1092.87  1100.76  1154.98  1166.33  1182.94
                             1213.91  1243.28  1251.42  1274.44  1325.11
                             1345.92  1380.98  1400.23  1416.47  1427.71
                             1439.40  1442.99  1449.48  1455.67  1494.35
                             1505.09  1526.49  1535.68  1572.86  1594.02
                             1623.89  1631.23  1668.73  1681.77  1690.17
                             1702.79  1718.93  1733.19  1768.12  1807.82
                             1814.27  1849.69  1899.08  1904.05  1912.75
                             1925.05  1950.59  1954.42  1966.86  1981.40
                             1996.72  2021.66  2038.41  2056.62  2093.23
                             2105.73  2115.43  2119.25  2130.80  2141.59
                             2157.79  2163.15  2168.20  2179.86  2261.23
                             2330.51  2358.81  2535.49  4313.11  4347.11
                             4375.30  4393.35  4400.94  4415.47  4425.54
                             4427.14  4462.23  4468.77  4470.96  4484.15
                             4489.22  4516.91  4543.15  4555.64  4559.89
                             4563.59  4580.47  4595.79  4619.73  4642.52

 Zero-point correction=                           0.358092 (Hartree/Particle)
 Thermal correction to Energy=                    0.384962
 Thermal correction to Enthalpy=                  0.385907
 Thermal correction to Gibbs Free Energy=         0.296334
 Sum of electronic and zero-point Energies=          -3531.053737
 Sum of electronic and thermal Energies=             -3531.026867
 Sum of electronic and thermal Enthalpies=           -3531.025922
 Sum of electronic and thermal Free Energies=        -3531.115495

                     E (Thermal)             CV                S
                      KCal/Mol        Cal/Mol-Kelvin    Cal/Mol-Kelvin
 Total                  241.568             95.935            188.522
 Electronic               0.000              0.000              3.561
 Translational            0.889              2.981             44.100
 Rotational               0.889              2.981             35.497
 Vibrational            239.790             89.973            105.364
 Vibration     1          0.593              1.986              7.248
 Vibration     2          0.593              1.985              6.148
 Vibration     3          0.594              1.983              5.726
 Vibration     4          0.595              1.977              4.779
 Vibration     5          0.596              1.976              4.672
 Vibration     6          0.597              1.972              4.386
 Vibration     7          0.598              1.969              4.209
 Vibration     8          0.601              1.960              3.791
 Vibration     9          0.602              1.956              3.655
 Vibration    10          0.604              1.948              3.424
 Vibration    11          0.605              1.945              3.364
 Vibration    12          0.606              1.943              3.307
 Vibration    13          0.609              1.933              3.106
 Vibration    14          0.610              1.931              3.067
 Vibration    15          0.612              1.922              2.925
 Vibration    16          0.613              1.919              2.880
 Vibration    17          0.617              1.906              2.709
 Vibration    18          0.623              1.886              2.493
 Vibration    19          0.624              1.883              2.468
 Vibration    20          0.633              1.855              2.236
 Vibration    21          0.643              1.825              2.039
 Vibration    22          0.651              1.799              1.896
 Vibration    23          0.661              1.766              1.746
 Vibration    24          0.669              1.744              1.655
 Vibration    25          0.688              1.688              1.462
 Vibration    26          0.703              1.642              1.328
 Vibration    27          0.707              1.633              1.304
 Vibration    28          0.722              1.590              1.199
 Vibration    29          0.729              1.570              1.154
 Vibration    30          0.742              1.534              1.079
 Vibration    31          0.747              1.521              1.055
 Vibration    32          0.758              1.492              1.002
 Vibration    33          0.771              1.457              0.940
 Vibration    34          0.776              1.444              0.919
 Vibration    35          0.797              1.390              0.837
 Vibration    36          0.810              1.358              0.792
 Vibration    37          0.835              1.298              0.714
 Vibration    38          0.859              1.241              0.648
 Vibration    39          0.888              1.177              0.581
 Vibration    40          0.910              1.129              0.534
 Vibration    41          0.976              0.998              0.423

                           ! Non-Optimized Parameters !
 Normal termination of Gaussian 16 at Sun Jun 20 08:03:57 2021.

 ----------------------------------------------------------------------
 #p ub3lyp jul-cc-pvdz pop=cm5 scrf=(pcm,solvent=dichloroethane) guess=
 read geom=allcheck
 ----------------------------------------------------------------------

 Structure from the checkpoint file:  "checkpoint.chk"
 -----
 title
 -----
 Charge =  0 Multiplicity = 6

 SCF Done:  E(UB3LYP) =  -3531.43559724     A.U. after   19 cycles
 Normal termination of Gaussian 16 at Sun Jun 20 08:25:35 2021.
 Gaussian 16:  ES64L-G16RevA.03 25-Dec-2016

 ----------------------------------------------------------------------
 #p ub3lyp jul-cc-pvdz pop=cm5 scrf=(pcm,solvent=water) guess=read geom
 =allcheck
 ----------------------------------------------------------------------

 Structure from the checkpoint file:  "checkpoint.chk"
 -----
 title
 -----
 Charge =  0 Multiplicity = 6

                         Standard orientation:
 ---------------------------------------------------------------------
 Center     Atomic      Atomic             Coordinates (Angstroms)
 Number     Number       Type             X           Y           Z
 ---------------------------------------------------------------------
      1          6           0        3.110819   -0.945740    0.419828
      2          6           0        1.740560   -0.779823    0.698644
      3          6           0        1.343318   -0.589966    2.032868
      4          6           0        2.289260   -0.575206    3.061799
      5          6           0        3.644267   -0.752105    2.774790
      6          6           0        4.052136   -0.932982    1.447032
      7          6           0        0.686916   -0.760038   -0.390330
      8          6           0        0.983203    0.099211   -1.681637
      9          6           0        1.609032   -0.753173   -2.787443
     10          6           0        0.888763   -2.103604   -2.709420
     11          6           0        0.829958   -2.455498   -1.235877
     12          6           0       -0.305584   -2.948864   -0.583143
     13          6           0       -1.663219   -2.916796   -1.178417
     14          8           0       -0.553566   -0.653474    0.072366
     15         26           0       -2.086959    0.433135    0.363674
     16         17           0       -2.758439    1.123222   -1.643063
     17          6           0       -0.195540   -3.542342    0.772583
     18         17           0       -1.632607    2.057300    1.795065
     19         17           0       -3.540690   -0.989873    1.291710
     20          1           0        0.293029   -0.423358    2.258752
     21          1           0        1.960867   -0.416454    4.089700
     22          1           0        4.382985   -0.740628    3.577722
     23          1           0        5.109642   -1.056198    1.210176
     24          1           0        3.456775   -1.070255   -0.604452
     25          1           0       -0.011365    0.439929   -1.996497
     26          6           0        1.814784    1.345349   -1.375135
     27          1           0        1.489094   -0.271992   -3.766703
     28          1           0        2.687656   -0.864964   -2.619553
     29          1           0       -0.115108   -2.020490   -3.142834
     30          1           0        1.420820   -2.886609   -3.268188
     31          1           0        1.775738   -2.807209   -0.823792
     32          1           0        0.833944   -3.613578    1.135546
     33          1           0       -0.805623   -2.945798    1.469755
     34          1           0       -0.651499   -4.545863    0.757143
     35          1           0       -1.806063   -3.893162   -1.679464
     36          1           0       -2.438829   -2.819080   -0.410088
     37          1           0       -1.792443   -2.136752   -1.933516
     38          8           0        1.061932    2.297571   -0.814584
     39          8           0        2.995817    1.459492   -1.633641
     40          6           0        1.730760    3.548404   -0.473300
     41          6           0        0.662634    4.570346   -0.144544
     42          1           0        2.394036    3.348045    0.379699
     43          1           0        2.352445    3.846672   -1.326992
     44          1           0        1.146550    5.516246    0.139549
     45          1           0        0.018515    4.757536   -1.014618
     46          1           0        0.033428    4.229640    0.687078
 ---------------------------------------------------------------------

 SCF Done:  E(UB3LYP) =  -3531.44002169     A.U. after   16 cycles

 The electronic state is 6-A.
 Alpha  occ. eigenvalues -- -256.20104-101.51930-101.51868-101.51716 -30.19512
 Alpha  occ. eigenvalues --  -26.04814 -26.04755 -26.04656 -19.20472 -19.16141
 Alpha  occ. eigenvalues --  -19.15352 -10.33129 -10.31932 -10.28996 -10.24815
 Alpha  occ. eigenvalues --  -10.22453 -10.22273 -10.21734 -10.20964 -10.20756
 Alpha  occ. eigenvalues --  -10.20709 -10.20632 -10.20517 -10.20451 -10.20426
 Alpha  occ. eigenvalues --  -10.20330 -10.20080 -10.18467  -9.43645  -9.43604
 Alpha  occ. eigenvalues --   -9.43436  -7.19510  -7.19467  -7.19307  -7.19196
 Alpha  occ. eigenvalues --   -7.19182  -7.19153  -7.19139  -7.18983  -7.18963
 Alpha  occ. eigenvalues --   -3.67218  -2.44739  -2.44552  -2.44403  -1.12299
 Alpha  occ. eigenvalues --   -1.05668  -1.03755  -0.88273  -0.87237  -0.83971
 Alpha  occ. eigenvalues --   -0.79860  -0.79191  -0.79021  -0.78823  -0.77964
 Alpha  occ. eigenvalues --   -0.76246  -0.75249  -0.73164  -0.71443  -0.66499
 Alpha  occ. eigenvalues --   -0.64456  -0.62179  -0.61603  -0.59466  -0.57236
 Alpha  occ. eigenvalues --   -0.56357  -0.54506  -0.52906  -0.51478  -0.50660
 Alpha  occ. eigenvalues --   -0.50093  -0.49318  -0.48918  -0.48027  -0.47837
 Alpha  occ. eigenvalues --   -0.47463  -0.47299  -0.46713  -0.46605  -0.46037
 Alpha  occ. eigenvalues --   -0.44746  -0.44546  -0.43813  -0.43289  -0.42779
 Alpha  occ. eigenvalues --   -0.42446  -0.41655  -0.40880  -0.40524  -0.40017
 Alpha  occ. eigenvalues --   -0.39873  -0.38920  -0.38064  -0.37574  -0.37264
 Alpha  occ. eigenvalues --   -0.37020  -0.36711  -0.36148  -0.35877  -0.35686
 Alpha  occ. eigenvalues --   -0.34727  -0.34179  -0.33687  -0.31993  -0.31686
 Alpha  occ. eigenvalues --   -0.30810  -0.30715  -0.30469  -0.30063  -0.29771
 Alpha  occ. eigenvalues --   -0.29437  -0.28798  -0.28288  -0.27025  -0.26100
 Alpha virt. eigenvalues --   -0.12008  -0.03314  -0.02774  -0.01570  -0.01220
 Alpha virt. eigenvalues --   -0.00160  -0.00004  -0.00001   0.01459   0.01602
 Alpha virt. eigenvalues --    0.01835   0.01958   0.02490   0.03348   0.03678

  Beta  occ. eigenvalues -- -256.19920-101.51759-101.51693-101.51550 -30.10566
  Beta  occ. eigenvalues --  -25.97331 -25.97278 -25.97247 -19.20472 -19.15483
  Beta  occ. eigenvalues --  -19.15350 -10.33129 -10.31929 -10.28977 -10.24815
  Beta  occ. eigenvalues --  -10.22408 -10.22256 -10.21712 -10.20964 -10.20756
  Beta  occ. eigenvalues --  -10.20710 -10.20634 -10.20522 -10.20449 -10.20427
  Beta  occ. eigenvalues --  -10.20329 -10.20078 -10.18466  -9.43477  -9.43431
  Beta  occ. eigenvalues --   -9.43273  -7.19221  -7.19178  -7.19017  -7.18965
  Beta  occ. eigenvalues --   -7.18961  -7.18916  -7.18905  -7.18761  -7.18757
  Beta  occ. eigenvalues --   -3.46363  -2.22666  -2.22594  -2.22500  -1.12296
  Beta  occ. eigenvalues --   -1.04399  -1.03752  -0.88118  -0.87212  -0.83922
  Beta  occ. eigenvalues --   -0.78841  -0.78756  -0.77995  -0.77884  -0.77803
  Beta  occ. eigenvalues --   -0.76240  -0.75212  -0.73152  -0.71321  -0.66353
  Beta  occ. eigenvalues --   -0.64375  -0.62136  -0.61555  -0.59111  -0.56991
  Beta  occ. eigenvalues --   -0.55975  -0.54391  -0.51934  -0.51454  -0.50375
  Beta  occ. eigenvalues --   -0.50067  -0.48568  -0.48436  -0.47992  -0.47006
  Beta  occ. eigenvalues --   -0.45881  -0.44782  -0.43789  -0.43342  -0.42802
  Beta  occ. eigenvalues --   -0.42419  -0.41656  -0.40877  -0.40489  -0.40029
  Beta  occ. eigenvalues --   -0.39880  -0.38870  -0.37953  -0.37693  -0.37419
  Beta  occ. eigenvalues --   -0.37034  -0.36846  -0.36147  -0.35881  -0.35825
  Beta  occ. eigenvalues --   -0.35462  -0.35400  -0.34654  -0.32941  -0.32756
  Beta  occ. eigenvalues --   -0.32278  -0.32010  -0.31869  -0.31258  -0.29933
  Beta  occ. eigenvalues --   -0.29350  -0.28792  -0.28337  -0.27023  -0.26089
  Beta virt. eigenvalues --   -0.13943  -0.13659  -0.12923  -0.12620  -0.12187
  Beta virt. eigenvalues --   -0.11250  -0.03257  -0.02765  -0.01488  -0.01169
  Beta virt. eigenvalues --   -0.00118   0.00025   0.00031   0.01473   0.01624

 Mulliken charges and spin densities:
               1          2
     1  C    0.087786   0.000135
     2  C    2.719311   0.004477
     3  C   -0.447762  -0.012464
     4  C    0.050280   0.005743
     5  C    0.242045  -0.001878
     6  C   -0.069948   0.002168
     7  C   -2.343363  -0.003125
     8  C    0.428727   0.009155
     9  C    0.588103   0.002015
    10  C    0.683331  -0.000604
    11  C    0.606104   0.024616
    12  C   -0.388553   0.008759
    13  C    0.293640   0.001860
    14  O   -0.401680   0.204921
    15  Fe   0.636052   4.056129
    16  Cl  -0.532894   0.225991
    17  C    0.336624  -0.000219
    18  Cl  -0.484480   0.239886
    19  Cl  -0.527736   0.225741
    20  H   -0.224768   0.002322
    21  H   -0.161526  -0.000009
    22  H   -0.159472   0.000032
    23  H   -0.157819   0.000203
    24  H   -0.220107  -0.000103
    25  H   -0.212510   0.000084
    26  C    0.851288  -0.000530
    27  H   -0.150281   0.000369
    28  H   -0.028480  -0.000054
    29  H   -0.092193   0.000003
    30  H   -0.121672   0.000985
    31  H   -0.225983  -0.000697
    32  H    0.019008   0.000055
    33  H    0.116067  -0.000025
    34  H    0.016661   0.000350
    35  H    0.045991   0.000134
    36  H    0.057836   0.000418
    37  H    0.077389  -0.000030
    38  O   -0.685027   0.002420
    39  O   -0.656737   0.001143
    40  C    0.425547   0.000828
    41  C    0.039936  -0.001063
    42  H   -0.036767   0.000047
    43  H   -0.038202   0.000028
    44  H   -0.006226   0.000028
    45  H    0.023988   0.000073
    46  H    0.028472  -0.000318
 Sum of Mulliken charges =  -0.00000   5.00000

 Dipole moment (field-independent basis, Debye):
    X=              8.9483    Y=            -10.0865    Z=             -3.0138  Tot=             13.8164
 Quadrupole moment (field-independent basis, Debye-Ang):
   XX=           -201.7569   YY=           -147.4889   ZZ=           -171.9515
   XY=              4.1843   XZ=             12.0651   YZ=              6.8824

 Normal termination of Gaussian 16 at Sun Jun 20 08:43:47 2021.
