 Gaussian 16, Revision A.03,

 -----------------------------------------------------------
 #p opt=modredundant freq=noraman ub3lyp jul-cc-pvdz pop=cm5
 -----------------------------------------------------------

 -----
 title
 -----
 Symbolic Z-matrix:
 Charge =  0 Multiplicity = 6

 SCF Done:  E(UB3LYP) =  -3531.40772662     A.U. after   25 cycles
 SCF Done:  E(UB3LYP) =  -3531.40817292     A.U. after   15 cycles
 SCF Done:  E(UB3LYP) =  -3531.40715260     A.U. after   15 cycles
 SCF Done:  E(UB3LYP) =  -3531.40828869     A.U. after   15 cycles
 SCF Done:  E(UB3LYP) =  -3531.40834122     A.U. after   14 cycles
 SCF Done:  E(UB3LYP) =  -3531.40836756     A.U. after   13 cycles
 SCF Done:  E(UB3LYP) =  -3531.40837642     A.U. after   13 cycles
 SCF Done:  E(UB3LYP) =  -3531.40837979     A.U. after   12 cycles
 SCF Done:  E(UB3LYP) =  -3531.40838127     A.U. after   11 cycles
 SCF Done:  E(UB3LYP) =  -3531.40838259     A.U. after   13 cycles
 SCF Done:  E(UB3LYP) =  -3531.40838437     A.U. after   12 cycles
 SCF Done:  E(UB3LYP) =  -3531.40838532     A.U. after   11 cycles
 SCF Done:  E(UB3LYP) =  -3531.40838552     A.U. after   11 cycles
 SCF Done:  E(UB3LYP) =  -3531.40838553     A.U. after   10 cycles
 SCF Done:  E(UB3LYP) =  -3531.40838536     A.U. after   10 cycles
 SCF Done:  E(UB3LYP) =  -3531.40838533     A.U. after    9 cycles
 SCF Done:  E(UB3LYP) =  -3531.40838536     A.U. after    9 cycles
 Optimization completed.
    -- Stationary point found.
 Normal termination of Gaussian 16 at Sun Jun 20 04:07:10 2021.

 ----------------------------------------------------------------------
 #P Geom=AllCheck Guess=TCheck SCRF=Check GenChk UB3LYP/Jul-CC-pVDZ Fre
 q
 ----------------------------------------------------------------------

 Structure from the checkpoint file:  "checkpoint.chk"
 -----
 title
 -----
 Charge =  0 Multiplicity = 6

 SCF Done:  E(UB3LYP) =  -3531.40838536     A.U. after    2 cycles

  Exact polarizability: 328.188  11.086 290.429  14.468  15.308 288.775
 Approx polarizability: 503.993  21.386 435.175  14.274  33.740 476.327

 ******    1 imaginary frequencies (negative Signs) ******

                      1                      2                      3
                      A                      A                      A
 Frequencies --   -507.0657                12.3244                19.0238
 Red. masses --      9.0108                 5.4796                 6.1474
 Frc consts  --      1.3650                 0.0005                 0.0013
 IR Inten    --    168.0385                 0.8167                 1.5754

                      4                      5                      6
                      A                      A                      A
 Frequencies --     33.4020                40.1644                42.4303
 Red. masses --      6.5870                 4.3868                 4.1153
 Frc consts  --      0.0043                 0.0042                 0.0044
 IR Inten    --      0.4952                 1.3605                 0.4434

                      7                      8                      9
                      A                      A                      A
 Frequencies --     55.6317                61.0451                68.4223
 Red. masses --      3.4717                 4.2469                 5.3847
 Frc consts  --      0.0063                 0.0093                 0.0149
 IR Inten    --      0.5635                 0.2491                 2.2557

                     10                     11                     12
                      A                      A                      A
 Frequencies --     84.9499                86.3306                95.9913
 Red. masses --     10.4064                 5.6445                 3.0010
 Frc consts  --      0.0442                 0.0248                 0.0163
 IR Inten    --      1.7624                 2.4021                 3.1328

                     13                     14                     15
                      A                      A                      A
 Frequencies --     98.9299               112.7027               117.7356
 Red. masses --      8.3492                 3.7852                 4.4226
 Frc consts  --      0.0481                 0.0283                 0.0361
 IR Inten    --      0.9838                 1.3705                 3.5603

                     16                     17                     18
                      A                      A                      A
 Frequencies --    129.5460               132.9660               146.4784
 Red. masses --      3.5289                 4.3735                 2.0821
 Frc consts  --      0.0349                 0.0456                 0.0263
 IR Inten    --      1.1118                 4.6320                 1.2293

                     19                     20                     21
                      A                      A                      A
 Frequencies --    152.5035               171.2615               172.5251
 Red. masses --      1.3664                 2.6281                 3.7631
 Frc consts  --      0.0187                 0.0454                 0.0660
 IR Inten    --      1.0364                 5.2716                 9.7114

                     22                     23                     24
                      A                      A                      A
 Frequencies --    188.3000               213.6315               234.5873
 Red. masses --      2.7499                 2.8793                 5.3692
 Frc consts  --      0.0574                 0.0774                 0.1741
 IR Inten    --      3.0328                 7.4824                 4.3103

                     25                     26                     27
                      A                      A                      A
 Frequencies --    251.3024               261.9384               292.3078
 Red. masses --      2.1653                 2.4707                 4.2963
 Frc consts  --      0.0806                 0.0999                 0.2163
 IR Inten    --      3.4609                 8.3952                 4.6922

                     28                     29                     30
                      A                      A                      A
 Frequencies --    311.1220               317.4301               333.6362
 Red. masses --      2.8542                 4.3764                25.3200
 Frc consts  --      0.1628                 0.2598                 1.6606
 IR Inten    --      3.5104                22.0519                57.6089

                     31                     32                     33
                      A                      A                      A
 Frequencies --    352.1359               369.5173               372.0625
 Red. masses --      7.2293                28.3054                 3.7203
 Frc consts  --      0.5282                 2.2771                 0.3034
 IR Inten    --      8.2336                78.7529                11.0245

                     34                     35                     36
                      A                      A                      A
 Frequencies --    388.8960               410.0445               410.2071
 Red. masses --     29.1661                 3.1431                 2.8848
 Frc consts  --      2.5989                 0.3114                 0.2860
 IR Inten    --     76.4405                 8.4487                 2.8991

                     37                     38                     39
                      A                      A                      A
 Frequencies --    431.9050               460.0899               481.3415
 Red. masses --      3.8509                 4.0064                 3.0348
 Frc consts  --      0.4232                 0.4997                 0.4143
 IR Inten    --     13.5357                 7.5461                31.4998

                     40                     41                     42
                      A                      A                      A
 Frequencies --    505.4374               532.7061               572.7935
 Red. masses --      2.4621                 3.2290                 3.1242
 Frc consts  --      0.3706                 0.5399                 0.6039
 IR Inten    --      5.7673                 3.5784                44.9138

                     43                     44                     45
                      A                      A                      A
 Frequencies --    616.5758               628.4301               654.0876
 Red. masses --      3.7561                 5.6863                 5.1545
 Frc consts  --      0.8413                 1.3231                 1.2993
 IR Inten    --     19.7470                 3.9654                84.1138

                     46                     47                     48
                      A                      A                      A
 Frequencies --    700.3607               713.2998               761.2827
 Red. masses --      1.7917                 3.7602                 3.0989
 Frc consts  --      0.5178                 1.1272                 1.0581
 IR Inten    --     30.5115                53.2583                 0.0990

                     49                     50                     51
                      A                      A                      A
 Frequencies --    767.0692               804.7871               807.6814
 Red. masses --      3.2530                 1.1670                 2.3236
 Frc consts  --      1.1277                 0.4453                 0.8931
 IR Inten    --     16.2940                 3.4494                 9.0551

                     52                     53                     54
                      A                      A                      A
 Frequencies --    830.7898               835.7826               843.7675
 Red. masses --      3.2796                 1.6442                 1.2689
 Frc consts  --      1.3337                 0.6767                 0.5323
 IR Inten    --     27.2192                 8.7639                 1.6430

                     55                     56                     57
                      A                      A                      A
 Frequencies --    863.6856               878.4837               918.0836
 Red. masses --      2.3013                 2.0606                 2.4920
 Frc consts  --      1.0114                 0.9369                 1.2375
 IR Inten    --     16.2811                12.8750                 8.0556

                     58                     59                     60
                      A                      A                      A
 Frequencies --    932.7986               960.3873               981.6188
 Red. masses --      1.4530                 2.5706                 1.5314
 Frc consts  --      0.7449                 1.3970                 0.8694
 IR Inten    --      4.4143                15.1305                19.1282

                     61                     62                     63
                      A                      A                      A
 Frequencies --    984.0615               994.7007              1000.2742
 Red. masses --      1.5927                 1.9178                 1.5793
 Frc consts  --      0.9087                 1.1180                 0.9310
 IR Inten    --     18.2188                12.0225                 2.8362

                     64                     65                     66
                      A                      A                      A
 Frequencies --   1004.6116              1007.5432              1008.9552
 Red. masses --      2.5913                 2.3346                 1.6604
 Frc consts  --      1.5409                 1.3964                 0.9959
 IR Inten    --     10.0795                19.3489                 3.8812

                     67                     68                     69
                      A                      A                      A
 Frequencies --   1040.1727              1041.9247              1049.5662
 Red. masses --      2.9384                 2.1015                 1.9965
 Frc consts  --      1.8732                 1.3441                 1.2958
 IR Inten    --     37.1916                35.9759                14.3777

                     70                     71                     72
                      A                      A                      A
 Frequencies --   1064.6551              1092.6659              1104.3098
 Red. masses --      2.1702                 1.6094                 1.6778
 Frc consts  --      1.4493                 1.1321                 1.2055
 IR Inten    --     10.8601                56.4792                29.4156

                     73                     74                     75
                      A                      A                      A
 Frequencies --   1121.0672              1133.9875              1140.2086
 Red. masses --      2.9984                 2.1736                 2.6308
 Frc consts  --      2.2203                 1.6468                 2.0151
 IR Inten    --     29.8336                10.8926                88.9105

                     76                     77                     78
                      A                      A                      A
 Frequencies --   1159.5578              1169.2725              1174.1475
 Red. masses --      1.6724                 1.5910                 1.0885
 Frc consts  --      1.3249                 1.2816                 0.8841
 IR Inten    --     28.9086                 7.1156                 0.4832

                     79                     80                     81
                      A                      A                      A
 Frequencies --   1195.3983              1203.1829              1229.1619
 Red. masses --      1.7053                 1.3232                 1.7708
 Frc consts  --      1.4358                 1.1286                 1.5763
 IR Inten    --     63.4102                31.6831               113.1096

                     82                     83                     84
                      A                      A                      A
 Frequencies --   1240.2287              1255.0907              1284.4138
 Red. masses --      2.6809                 1.7858                 1.1098
 Frc consts  --      2.4296                 1.6575                 1.0787
 IR Inten    --    235.0577                36.0264                 1.8544

                     85                     86                     87
                      A                      A                      A
 Frequencies --   1316.4807              1321.0000              1324.3876
 Red. masses --      1.4680                 1.3882                 1.4711
 Frc consts  --      1.4990                 1.4273                 1.5203
 IR Inten    --     52.8275                 1.0006                62.3147

                     88                     89                     90
                      A                      A                      A
 Frequencies --   1329.5367              1344.8189              1357.3014
 Red. masses --      1.6309                 1.3829                 3.4148
 Frc consts  --      1.6986                 1.4735                 3.7065
 IR Inten    --      5.4686                82.6055                 0.5482

                     91                     92                     93
                      A                      A                      A
 Frequencies --   1366.4525              1370.1798              1382.4462
 Red. masses --      1.3627                 1.1958                 1.5246
 Frc consts  --      1.4992                 1.3227                 1.7168
 IR Inten    --     13.5467                35.5806                81.8769

                     94                     95                     96
                      A                      A                      A
 Frequencies --   1390.6673              1416.5655              1418.2741
 Red. masses --      1.5426                 1.3104                 1.3101
 Frc consts  --      1.7577                 1.5493                 1.5527
 IR Inten    --     52.5764                37.3720                13.6491

                     97                     98                     99
                      A                      A                      A
 Frequencies --   1436.6944              1463.8766              1471.5898
 Red. masses --      1.1544                 1.6273                 1.6160
 Frc consts  --      1.4039                 2.0546                 2.0619
 IR Inten    --      2.5864                16.5881                35.0723

                    100                    101                    102
                      A                      A                      A
 Frequencies --   1473.1462              1483.8326              1487.5888
 Red. masses --      1.0389                 1.1173                 1.0538
 Frc consts  --      1.3284                 1.4494                 1.3739
 IR Inten    --      5.6884                16.2697                 4.9545

                    103                    104                    105
                      A                      A                      A
 Frequencies --   1498.9341              1500.2546              1506.8863
 Red. masses --      1.3485                 1.1707                 1.0851
 Frc consts  --      1.7851                 1.5525                 1.4517
 IR Inten    --     39.0650                12.3045                 7.4692

                    106                    107                    108
                      A                      A                      A
 Frequencies --   1514.8502              1516.5972              1619.3575
 Red. masses --      1.9046                 1.5112                 5.6766
 Frc consts  --      2.5751                 2.0480                 8.7705
 IR Inten    --     16.3149                12.7193                 0.4811

                    109                    110                    111
                      A                      A                      A
 Frequencies --   1639.8874              1762.2149              2987.3242
 Red. masses --      5.7007                11.6441                 1.0542
 Frc consts  --      9.0325                21.3045                 5.5429
 IR Inten    --      7.7159               230.7190                11.3135

                    112                    113                    114
                      A                      A                      A
 Frequencies --   3003.0279              3041.0139              3057.3414
 Red. masses --      1.0490                 1.0361                 1.0627
 Frc consts  --      5.5735                 5.6453                 5.8527
 IR Inten    --      6.6535                19.4111                22.6372

                    115                    116                    117
                      A                      A                      A
 Frequencies --   3057.9719              3069.1445              3074.8535
 Red. masses --      1.0592                 1.0652                 1.0813
 Frc consts  --      5.8357                 5.9119                 6.0234
 IR Inten    --     15.4349                21.0075                 3.0045

                    118                    119                    120
                      A                      A                      A
 Frequencies --   3081.9685              3101.4032              3105.5551
 Red. masses --      1.0839                 1.1005                 1.1060
 Frc consts  --      6.0660                 6.2369                 6.2847
 IR Inten    --      5.8539                11.0989                 9.9086

                    121                    122                    123
                      A                      A                      A
 Frequencies --   3109.8713              3116.4948              3119.7893
 Red. masses --      1.0769                 1.1019                 1.1018
 Frc consts  --      6.1364                 6.3058                 6.3186
 IR Inten    --      5.0836                18.8690                11.4800

                    124                    125                    126
                      A                      A                      A
 Frequencies --   3138.5625              3138.8983              3157.4922
 Red. masses --      1.1040                 1.0880                 1.1041
 Frc consts  --      6.4071                 6.3157                 6.4853
 IR Inten    --     13.7593                 9.9586                 1.1436

                    127                    128                    129
                      A                      A                      A
 Frequencies --   3169.3689              3170.7455              3181.9345
 Red. masses --      1.1064                 1.0854                 1.0900
 Frc consts  --      6.5481                 6.4291                 6.5025
 IR Inten    --      1.8456                 0.0581                 6.9848

                    130                    131                    132
                      A                      A                      A
 Frequencies --   3192.7536              3203.5851              3228.6231
 Red. masses --      1.0952                 1.0946                 1.0920
 Frc consts  --      6.5780                 6.6189                 6.7066
 IR Inten    --     16.6316                 5.9981                 3.7984

 - Thermochemistry -
 -------------------
 Temperature   298.150 Kelvin.  Pressure   1.00000 Atm.
 Atom     1 has atomic number  6 and mass  12.00000

 Molecular mass:   434.99839 amu.
 Principal axes and moments of inertia in atomic units:
                           1         2         3
     Eigenvalues --  8824.88699********************
           X            0.99777   0.06413   0.01841
           Y           -0.06439   0.99782   0.01428
           Z           -0.01745  -0.01543   0.99973
 This molecule is an asymmetric top.
 Rotational symmetry number  1.
 Warning -- assumption of classical behavior for rotation
           may cause significant error
 Rotational temperatures (Kelvin)      0.00981     0.00776     0.00671
 Rotational constants (GHZ):           0.20451     0.16175     0.13990
    1 imaginary frequencies ignored.
 Zero-point vibrational energy     938742.1 (Joules/Mol)
                                  224.36476 (Kcal/Mol)
 Warning -- explicit consideration of  42 degrees of freedom as
           vibrations may cause significant error
 Vibrational temperatures:     17.73    27.37    48.06    57.79    61.05
          (Kelvin)             80.04    87.83    98.44   122.22   124.21
                              138.11   142.34   162.15   169.40   186.39
                              191.31   210.75   219.42   246.41   248.23
                              270.92   307.37   337.52   361.57   376.87
                              420.57   447.64   456.71   480.03   506.64
                              531.65   535.31   559.53   589.96   590.20
                              621.41   661.97   692.54   727.21   766.45
                              824.12   887.11   904.17   941.09  1007.66
                             1026.28  1095.32  1103.64  1157.91  1162.07
                             1195.32  1202.50  1213.99  1242.65  1263.94
                             1320.92  1342.09  1381.78  1412.33  1415.85
                             1431.15  1439.17  1445.41  1449.63  1451.66
                             1496.58  1499.10  1510.09  1531.80  1572.10
                             1588.86  1612.97  1631.56  1640.51  1668.35
                             1682.32  1689.34  1719.91  1731.11  1768.49
                             1784.41  1805.80  1847.99  1894.12  1900.62
                             1905.50  1912.91  1934.89  1952.85  1966.02
                             1971.38  1989.03  2000.86  2038.12  2040.58
                             2067.08  2106.19  2117.29  2119.53  2134.90
                             2140.31  2156.63  2158.53  2168.07  2179.53
                             2182.05  2329.89  2359.43  2535.43  4298.09
                             4320.69  4375.34  4398.83  4399.74  4415.81
                             4424.03  4434.27  4462.23  4468.20  4474.41
                             4483.94  4488.68  4515.69  4516.17  4542.93
                             4560.01  4562.00  4578.09  4593.66  4609.24
                             4645.27

 Zero-point correction=                           0.357548 (Hartree/Particle)
 Thermal correction to Energy=                    0.385261
 Thermal correction to Enthalpy=                  0.386205
 Thermal correction to Gibbs Free Energy=         0.293731
 Sum of electronic and zero-point Energies=          -3531.050837
 Sum of electronic and thermal Energies=             -3531.023124
 Sum of electronic and thermal Enthalpies=           -3531.022180
 Sum of electronic and thermal Free Energies=        -3531.114654

                     E (Thermal)             CV                S
                      KCal/Mol        Cal/Mol-Kelvin    Cal/Mol-Kelvin
 Total                  241.755             97.977            194.629
 Electronic               0.000              0.000              3.561
 Translational            0.889              2.981             44.100
 Rotational               0.889              2.981             35.495
 Vibrational            239.978             92.015            111.473
 Vibration     1          0.593              1.987              7.596
 Vibration     2          0.593              1.986              6.734
 Vibration     3          0.594              1.983              5.616
 Vibration     4          0.594              1.981              5.251
 Vibration     5          0.595              1.980              5.142
 Vibration     6          0.596              1.975              4.606
 Vibration     7          0.597              1.973              4.423
 Vibration     8          0.598              1.969              4.198
 Vibration     9          0.601              1.960              3.773
 Vibration    10          0.601              1.959              3.742
 Vibration    11          0.603              1.952              3.534
 Vibration    12          0.604              1.950              3.475
 Vibration    13          0.607              1.939              3.222
 Vibration    14          0.608              1.935              3.137
 Vibration    15          0.612              1.924              2.953
 Vibration    16          0.613              1.920              2.903
 Vibration    17          0.617              1.906              2.717
 Vibration    18          0.619              1.900              2.641
 Vibration    19          0.626              1.878              2.422
 Vibration    20          0.626              1.876              2.408
 Vibration    21          0.633              1.856              2.244
 Vibration    22          0.644              1.820              2.012
 Vibration    23          0.654              1.788              1.844
 Vibration    24          0.663              1.761              1.721
 Vibration    25          0.669              1.742              1.649
 Vibration    26          0.688              1.688              1.461
 Vibration    27          0.700              1.653              1.356
 Vibration    28          0.704              1.640              1.323
 Vibration    29          0.715              1.608              1.242
 Vibration    30          0.729              1.571              1.157
 Vibration    31          0.742              1.535              1.082
 Vibration    32          0.744              1.530              1.071
 Vibration    33          0.757              1.494              1.004
 Vibration    34          0.774              1.448              0.926
 Vibration    35          0.774              1.448              0.926
 Vibration    36          0.793              1.401              0.852
 Vibration    37          0.818              1.339              0.766
 Vibration    38          0.838              1.291              0.706
 Vibration    39          0.861              1.238              0.645
 Vibration    40          0.888              1.178              0.581
 Vibration    41          0.929              1.090              0.499
 Vibration    42          0.976              0.997              0.422

                           ! Non-Optimized Parameters !
 Normal termination of Gaussian 16 at Sun Jun 20 08:04:56 2021.

 ----------------------------------------------------------------------
 #p ub3lyp jul-cc-pvdz pop=cm5 scrf=(pcm,solvent=dichloroethane) guess=
 read geom=allcheck
 ----------------------------------------------------------------------

 Structure from the checkpoint file:  "checkpoint.chk"
 -----
 title
 -----
 Charge =  0 Multiplicity = 6

 SCF Done:  E(UB3LYP) =  -3531.43420056     A.U. after   19 cycles
 Normal termination of Gaussian 16 at Sun Jun 20 08:31:58 2021.
 Gaussian 16:  ES64L-G16RevA.03 25-Dec-2016

 ----------------------------------------------------------------------
 #p ub3lyp jul-cc-pvdz pop=cm5 scrf=(pcm,solvent=water) guess=read geom
 =allcheck
 ----------------------------------------------------------------------

 Structure from the checkpoint file:  "checkpoint.chk"
 -----
 title
 -----
 Charge =  0 Multiplicity = 6

                         Standard orientation:
 ---------------------------------------------------------------------
 Center     Atomic      Atomic             Coordinates (Angstroms)
 Number     Number       Type             X           Y           Z
 ---------------------------------------------------------------------
      1          6           0        3.002177   -1.330745    0.464317
      2          6           0        1.683410   -0.913771    0.727756
      3          6           0        1.356597   -0.498422    2.028709
      4          6           0        2.323225   -0.500310    3.039661
      5          6           0        3.625778   -0.923694    2.769305
      6          6           0        3.962526   -1.337334    1.474068
      7          6           0        0.623344   -0.878453   -0.357091
      8          6           0        0.994559   -0.105958   -1.681621
      9          6           0        1.483281   -1.107390   -2.733694
     10          6           0        0.597746   -2.348232   -2.549387
     11          6           0        0.467747   -2.535176   -1.043421
     12          6           0       -0.790338   -2.807169   -0.404773
     13          6           0       -2.084462   -2.700096   -1.110874
     14          8           0       -0.619172   -0.579434    0.141036
     15         26           0       -2.024295    0.661249    0.348921
     16         17           0       -2.654040    1.226103   -1.717922
     17          6           0       -0.811797   -3.323136    0.980760
     18         17           0       -1.449099    2.363109    1.639039
     19         17           0       -3.595628   -0.570414    1.378057
     20          1           0        0.349133   -0.150011    2.241524
     21          1           0        2.050852   -0.164728    4.041191
     22          1           0        4.378775   -0.928030    3.558935
     23          1           0        4.979984   -1.659179    1.248260
     24          1           0        3.294181   -1.642190   -0.537458
     25          1           0        0.046702    0.343176   -2.005255
     26          6           0        1.988107    1.030596   -1.459402
     27          1           0        1.407235   -0.688324   -3.745273
     28          1           0        2.542351   -1.342183   -2.567791
     29          1           0       -0.379492   -2.177715   -3.017089
     30          1           0        1.031205   -3.240854   -3.021148
     31          1           0        1.293334   -3.089952   -0.591996
     32          1           0       -1.103171   -4.388585    0.916301
     33          1           0        0.160717   -3.257790    1.478632
     34          1           0       -1.594486   -2.816689    1.562197
     35          1           0       -2.203512   -3.652189   -1.664946
     36          1           0       -2.924101   -2.589156   -0.417853
     37          1           0       -2.102067   -1.895440   -1.852920
     38          8           0        1.385988    2.095263   -0.916013
     39          8           0        3.164980    0.980114   -1.755297
     40          6           0        2.226923    3.254598   -0.643314
     41          6           0        1.318350    4.408147   -0.272680
     42          1           0        2.913704    2.984975    0.171110
     43          1           0        2.825910    3.460533   -1.539742
     44          1           0        1.933499    5.289408   -0.039008
     45          1           0        0.648733    4.662941   -1.105503
     46          1           0        0.703848    4.161659    0.602205
 ---------------------------------------------------------------------

 SCF Done:  E(UB3LYP) =  -3531.43910200     A.U. after   15 cycles

 The electronic state is 6-A.
 Alpha  occ. eigenvalues -- -256.19794-101.51775-101.51755-101.51546 -30.19201
 Alpha  occ. eigenvalues --  -26.04512 -26.04427 -26.04355 -19.20342 -19.15906
 Alpha  occ. eigenvalues --  -19.15214 -10.32923 -10.31414 -10.30952 -10.24763
 Alpha  occ. eigenvalues --  -10.22903 -10.21959 -10.21552 -10.21503 -10.21414
 Alpha  occ. eigenvalues --  -10.20551 -10.20410 -10.20397 -10.20315 -10.20265
 Alpha  occ. eigenvalues --  -10.20180 -10.19963 -10.18461  -9.43492  -9.43486
 Alpha  occ. eigenvalues --   -9.43262  -7.19351  -7.19350  -7.19132  -7.19042
 Alpha  occ. eigenvalues --   -7.19038  -7.19026  -7.19020  -7.18808  -7.18788
 Alpha  occ. eigenvalues --   -3.66920  -2.44453  -2.44222  -2.44132  -1.12150
 Alpha  occ. eigenvalues --   -1.04111  -1.03604  -0.88462  -0.87221  -0.84190
 Alpha  occ. eigenvalues --   -0.79699  -0.79056  -0.78864  -0.78767  -0.77776
 Alpha  occ. eigenvalues --   -0.76046  -0.75307  -0.74013  -0.71581  -0.66412
 Alpha  occ. eigenvalues --   -0.64315  -0.61970  -0.61436  -0.59377  -0.57061
 Alpha  occ. eigenvalues --   -0.56458  -0.54459  -0.52875  -0.51396  -0.50701
 Alpha  occ. eigenvalues --   -0.50249  -0.49222  -0.48864  -0.48107  -0.47571
 Alpha  occ. eigenvalues --   -0.47214  -0.47047  -0.46559  -0.46403  -0.45985
 Alpha  occ. eigenvalues --   -0.44645  -0.44285  -0.44038  -0.43122  -0.43033
 Alpha  occ. eigenvalues --   -0.42528  -0.41982  -0.41144  -0.40410  -0.40262
 Alpha  occ. eigenvalues --   -0.39939  -0.38959  -0.37947  -0.37505  -0.37043
 Alpha  occ. eigenvalues --   -0.36816  -0.36519  -0.36183  -0.35763  -0.35514
 Alpha  occ. eigenvalues --   -0.34640  -0.34082  -0.33600  -0.31878  -0.31620
 Alpha  occ. eigenvalues --   -0.30693  -0.30590  -0.30385  -0.29981  -0.29645
 Alpha  occ. eigenvalues --   -0.29358  -0.28702  -0.28287  -0.26859  -0.25945
 Alpha virt. eigenvalues --   -0.12675  -0.03172  -0.02681  -0.01533  -0.01240
 Alpha virt. eigenvalues --   -0.00165  -0.00042   0.00011   0.01447   0.01585
 Alpha virt. eigenvalues --    0.01827   0.01962   0.02454   0.03388   0.03704

  Beta  occ. eigenvalues -- -256.19609-101.51609-101.51584-101.51386 -30.10261
  Beta  occ. eigenvalues --  -25.97039 -25.96971 -25.96928 -19.20342 -19.15211
  Beta  occ. eigenvalues --  -19.15171 -10.32924 -10.31416 -10.30938 -10.24763
  Beta  occ. eigenvalues --  -10.22857 -10.21942 -10.21550 -10.21482 -10.21414
  Beta  occ. eigenvalues --  -10.20549 -10.20411 -10.20398 -10.20313 -10.20268
  Beta  occ. eigenvalues --  -10.20180 -10.19961 -10.18460  -9.43324  -9.43322
  Beta  occ. eigenvalues --   -9.43104  -7.19070  -7.19065  -7.18848  -7.18813
  Beta  occ. eigenvalues --   -7.18810  -7.18810  -7.18799  -7.18596  -7.18592
  Beta  occ. eigenvalues --   -3.46079  -2.22400  -2.22321  -2.22199  -1.12147
  Beta  occ. eigenvalues --   -1.03599  -1.02693  -0.88283  -0.87197  -0.84135
  Beta  occ. eigenvalues --   -0.78819  -0.78625  -0.77877  -0.77716  -0.77634
  Beta  occ. eigenvalues --   -0.76039  -0.75267  -0.74006  -0.71439  -0.66275
  Beta  occ. eigenvalues --   -0.64244  -0.61922  -0.61396  -0.59092  -0.56882
  Beta  occ. eigenvalues --   -0.56045  -0.54340  -0.51994  -0.51301  -0.50454
  Beta  occ. eigenvalues --   -0.50129  -0.48812  -0.48099  -0.48029  -0.46715
  Beta  occ. eigenvalues --   -0.45825  -0.44661  -0.44062  -0.43190  -0.43025
  Beta  occ. eigenvalues --   -0.42524  -0.41988  -0.41166  -0.40373  -0.40247
  Beta  occ. eigenvalues --   -0.39942  -0.38922  -0.37806  -0.37583  -0.37294
  Beta  occ. eigenvalues --   -0.36764  -0.36669  -0.36171  -0.35800  -0.35685
  Beta  occ. eigenvalues --   -0.35318  -0.35196  -0.34566  -0.32816  -0.32610
  Beta  occ. eigenvalues --   -0.32181  -0.31907  -0.31788  -0.31269  -0.29841
  Beta  occ. eigenvalues --   -0.29290  -0.28703  -0.28349  -0.26853  -0.25954
  Beta virt. eigenvalues --   -0.13703  -0.13376  -0.12856  -0.12372  -0.12191
  Beta virt. eigenvalues --   -0.11384  -0.03120  -0.02667  -0.01443  -0.01196
  Beta virt. eigenvalues --   -0.00122  -0.00009   0.00039   0.01459   0.01608

 Mulliken charges and spin densities:
               1          2
     1  C    0.077205   0.001582
     2  C    2.524634   0.004050
     3  C   -0.336887  -0.011437
     4  C    0.018463   0.005010
     5  C    0.245610  -0.000433
     6  C   -0.096142   0.001012
     7  C   -2.108553  -0.006755
     8  C    0.376671   0.010896
     9  C    0.591158   0.002282
    10  C    0.622862   0.000175
    11  C    0.693930   0.029210
    12  C   -0.476704  -0.003640
    13  C    0.317124   0.002002
    14  O   -0.480556   0.237921
    15  Fe   0.664850   4.050764
    16  Cl  -0.545559   0.218555
    17  C    0.326248  -0.001374
    18  Cl  -0.490670   0.235879
    19  Cl  -0.548016   0.217163
    20  H   -0.215995   0.003278
    21  H   -0.161043  -0.000002
    22  H   -0.163321   0.000004
    23  H   -0.158567   0.000210
    24  H   -0.207914  -0.000085
    25  H   -0.218120   0.000031
    26  C    0.918698   0.000287
    27  H   -0.145328   0.000337
    28  H   -0.034663  -0.000036
    29  H   -0.093109  -0.000036
    30  H   -0.124792   0.000939
    31  H   -0.218421  -0.000157
    32  H    0.055336   0.000177
    33  H    0.050997   0.000053
    34  H    0.080824  -0.000263
    35  H    0.060909  -0.000536
    36  H    0.029321  -0.000231
    37  H    0.099191  -0.000138
    38  O   -0.700661   0.002115
    39  O   -0.667851   0.001379
    40  C    0.429101   0.000781
    41  C    0.043174  -0.000838
    42  H   -0.036187   0.000044
    43  H   -0.039379   0.000032
    44  H   -0.006922   0.000026
    45  H    0.022234   0.000064
    46  H    0.026821  -0.000294
 Sum of Mulliken charges =  -0.00000   5.00000

 Dipole moment (field-independent basis, Debye):
    X=              7.0787    Y=            -12.2031    Z=             -2.6749  Tot=             14.3589
 Quadrupole moment (field-independent basis, Debye-Ang):
   XX=           -201.1918   YY=           -145.3876   ZZ=           -174.0808
   XY=             13.3579   XZ=             13.4029   YZ=              5.5300

 Normal termination of Gaussian 16 at Sun Jun 20 08:53:26 2021.
