 Gaussian 16, Revision A.03,

 -----------------------------------------------------------
 #p opt=modredundant freq=noraman ub3lyp jul-cc-pvdz pop=cm5
 -----------------------------------------------------------

 -----
 title
 -----
 Symbolic Z-matrix:
 Charge =  0 Multiplicity = 6

 SCF Done:  E(UB3LYP) =  -3531.39426724     A.U. after   24 cycles
 SCF Done:  E(UB3LYP) =  -3531.39309826     A.U. after   18 cycles
 SCF Done:  E(UB3LYP) =  -3531.39133048     A.U. after   16 cycles
 SCF Done:  E(UB3LYP) =  -3531.38988150     A.U. after   19 cycles
 SCF Done:  E(UB3LYP) =  -3531.39440516     A.U. after   14 cycles
 SCF Done:  E(UB3LYP) =  -3531.39405416     A.U. after   18 cycles
 SCF Done:  E(UB3LYP) =  -3531.39445402     A.U. after   15 cycles
 SCF Done:  E(UB3LYP) =  -3531.39468899     A.U. after   18 cycles
 SCF Done:  E(UB3LYP) =  -3531.39481585     A.U. after   14 cycles
 SCF Done:  E(UB3LYP) =  -3531.39484441     A.U. after   14 cycles
 SCF Done:  E(UB3LYP) =  -3531.39486652     A.U. after   12 cycles
 SCF Done:  E(UB3LYP) =  -3531.39486729     A.U. after   13 cycles
 SCF Done:  E(UB3LYP) =  -3531.39486790     A.U. after   11 cycles
 SCF Done:  E(UB3LYP) =  -3531.39486763     A.U. after   11 cycles
 SCF Done:  E(UB3LYP) =  -3531.39486777     A.U. after   10 cycles
 SCF Done:  E(UB3LYP) =  -3531.39486772     A.U. after    8 cycles
 SCF Done:  E(UB3LYP) =  -3531.39486770     A.U. after    8 cycles
 Optimization completed.
    -- Stationary point found.
 Normal termination of Gaussian 16 at Sun Jun 20 05:32:18 2021.

 ----------------------------------------------------------------------
 #P Geom=AllCheck Guess=TCheck SCRF=Check GenChk UB3LYP/Jul-CC-pVDZ Fre
 q
 ----------------------------------------------------------------------

 Structure from the checkpoint file:  "checkpoint.chk"
 -----
 title
 -----
 Charge =  0 Multiplicity = 6

 SCF Done:  E(UB3LYP) =  -3531.39486770     A.U. after    1 cycles

  Exact polarizability: 327.262   8.421 285.612  19.069  13.178 300.901
 Approx polarizability: 505.506  23.138 431.605  26.030  31.768 502.854

 ******    1 imaginary frequencies (negative Signs) ******

                      1                      2                      3
                      A                      A                      A
 Frequencies --   -550.4958                19.0175                24.6986
 Red. masses --     10.5592                 4.2026                 8.8369
 Frc consts  --      1.8853                 0.0009                 0.0032
 IR Inten    --    194.2310                 0.9440                 0.3572

                      4                      5                      6
                      A                      A                      A
 Frequencies --     36.9536                50.9949                55.0037
 Red. masses --      4.9632                 6.2268                 3.4887
 Frc consts  --      0.0040                 0.0095                 0.0062
 IR Inten    --      2.0864                 1.2581                 0.5461

                      7                      8                      9
                      A                      A                      A
 Frequencies --     59.4008                68.0753                73.6754
 Red. masses --      4.0356                 5.5819                 6.4393
 Frc consts  --      0.0084                 0.0152                 0.0206
 IR Inten    --      1.6618                 1.6285                 3.2157

                     10                     11                     12
                      A                      A                      A
 Frequencies --     83.1240                96.3798               102.2542
 Red. masses --     12.7235                 6.6682                 6.4115
 Frc consts  --      0.0518                 0.0365                 0.0395
 IR Inten    --      0.9235                 1.1027                 1.0799

                     13                     14                     15
                      A                      A                      A
 Frequencies --    112.8723               115.9756               117.7549
 Red. masses --     10.2433                 5.5755                 4.7696
 Frc consts  --      0.0769                 0.0442                 0.0390
 IR Inten    --      2.0485                 9.4923                 0.1232

                     16                     17                     18
                      A                      A                      A
 Frequencies --    128.6150               144.4152               171.2406
 Red. masses --      6.8476                 5.4100                 2.6605
 Frc consts  --      0.0667                 0.0665                 0.0460
 IR Inten    --      7.5563                 5.6725                 0.8893

                     19                     20                     21
                      A                      A                      A
 Frequencies --    188.5716               198.0381               202.1378
 Red. masses --      2.8016                 3.9466                 2.1997
 Frc consts  --      0.0587                 0.0912                 0.0530
 IR Inten    --     16.4837                 2.1754                 5.3485

                     22                     23                     24
                      A                      A                      A
 Frequencies --    213.9455               222.3626               240.3174
 Red. masses --      1.4715                 4.6474                 2.1123
 Frc consts  --      0.0397                 0.1354                 0.0719
 IR Inten    --      1.4656                21.2954                21.3473

                     25                     26                     27
                      A                      A                      A
 Frequencies --    252.6759               258.6984               281.4511
 Red. masses --      1.3636                 1.8158                 3.3493
 Frc consts  --      0.0513                 0.0716                 0.1563
 IR Inten    --      6.1702                 5.8533                13.7532

                     28                     29                     30
                      A                      A                      A
 Frequencies --    302.3758               317.0357               338.9314
 Red. masses --      4.4127                 2.3491                23.7614
 Frc consts  --      0.2377                 0.1391                 1.6082
 IR Inten    --     26.9859                 3.4284                26.6904

                     31                     32                     33
                      A                      A                      A
 Frequencies --    359.9981               384.8268               386.2491
 Red. masses --      4.1385                 4.8585                18.4474
 Frc consts  --      0.3160                 0.4239                 1.6215
 IR Inten    --      1.1230                 8.9592                77.1106

                     34                     35                     36
                      A                      A                      A
 Frequencies --    396.4171               401.3051               406.9216
 Red. masses --      3.6917                12.9959                 3.4695
 Frc consts  --      0.3418                 1.2331                 0.3385
 IR Inten    --     23.6689                68.5231                17.3481

                     37                     38                     39
                      A                      A                      A
 Frequencies --    416.6238               439.6486               462.3949
 Red. masses --      2.9848                 4.4748                 3.6981
 Frc consts  --      0.3053                 0.5096                 0.4659
 IR Inten    --      2.1092                10.5110                 1.2069

                     40                     41                     42
                      A                      A                      A
 Frequencies --    499.8785               517.7625               571.5926
 Red. masses --      2.7474                 3.0397                 3.0887
 Frc consts  --      0.4045                 0.4801                 0.5946
 IR Inten    --      1.8774                 5.4942                30.3035

                     43                     44                     45
                      A                      A                      A
 Frequencies --    599.8250               627.2046               647.6585
 Red. masses --      3.8946                 6.3060                 4.5883
 Frc consts  --      0.8256                 1.4616                 1.1339
 IR Inten    --     30.0304                 2.0978                27.4359

                     46                     47                     48
                      A                      A                      A
 Frequencies --    696.2613               703.2544               761.7158
 Red. masses --      3.7991                 1.7969                 3.2042
 Frc consts  --      1.0851                 0.5236                 1.0954
 IR Inten    --      1.6182                66.1140                13.9049

                     49                     50                     51
                      A                      A                      A
 Frequencies --    769.6141               782.6614               804.1648
 Red. masses --      3.2357                 2.3869                 1.2156
 Frc consts  --      1.1292                 0.8615                 0.4632
 IR Inten    --      1.0713                 0.7779                 2.2211

                     52                     53                     54
                      A                      A                      A
 Frequencies --    826.5121               844.2743               858.9949
 Red. masses --      4.0903                 1.2523                 1.9525
 Frc consts  --      1.6463                 0.5259                 0.8488
 IR Inten    --      6.6407                 0.2607                 3.1843

                     55                     56                     57
                      A                      A                      A
 Frequencies --    869.3049               890.2575               901.9098
 Red. masses --      2.1708                 1.5352                 1.4097
 Frc consts  --      0.9665                 0.7169                 0.6756
 IR Inten    --     23.7776                12.0374                10.3696

                     58                     59                     60
                      A                      A                      A
 Frequencies --    924.8861               934.1450               958.7234
 Red. masses --      2.0257                 1.4507                 2.3770
 Frc consts  --      1.0209                 0.7459                 1.2872
 IR Inten    --      2.8952                 2.7679                73.5769

                     61                     62                     63
                      A                      A                      A
 Frequencies --    976.6835               984.1664               987.5025
 Red. masses --      2.6920                 1.3948                 2.8252
 Frc consts  --      1.5130                 0.7960                 1.6232
 IR Inten    --     21.4958                 0.1904                19.6838

                     64                     65                     66
                      A                      A                      A
 Frequencies --    999.5012              1004.8153              1011.6746
 Red. masses --      1.5533                 3.1302                 1.6168
 Frc consts  --      0.9143                 1.8621                 0.9750
 IR Inten    --      0.7654                 0.9337                17.0560

                     67                     68                     69
                      A                      A                      A
 Frequencies --   1018.8576              1042.1571              1046.0817
 Red. masses --      2.0273                 2.5910                 2.7042
 Frc consts  --      1.2399                 1.6580                 1.7435
 IR Inten    --     60.1734                24.7848                 9.6701

                     70                     71                     72
                      A                      A                      A
 Frequencies --   1060.9842              1075.7091              1091.2645
 Red. masses --      1.9748                 2.4061                 1.9280
 Frc consts  --      1.3097                 1.6404                 1.3527
 IR Inten    --      7.6136                15.7784                44.2774

                     73                     74                     75
                      A                      A                      A
 Frequencies --   1116.7529              1128.4513              1133.5615
 Red. masses --      1.9602                 2.2241                 2.1825
 Frc consts  --      1.4403                 1.6686                 1.6523
 IR Inten    --      7.2684                 8.4241                12.2538

                     76                     77                     78
                      A                      A                      A
 Frequencies --   1160.3576              1170.4310              1175.0295
 Red. masses --      1.6177                 1.5632                 1.0851
 Frc consts  --      1.2833                 1.2617                 0.8827
 IR Inten    --     35.2942                 1.4953                 0.2900

                     79                     80                     81
                      A                      A                      A
 Frequencies --   1204.0694              1209.5976              1229.3834
 Red. masses --      1.1712                 1.4008                 2.5417
 Frc consts  --      1.0004                 1.2076                 2.2633
 IR Inten    --      7.3163                33.1214               214.5350

                     82                     83                     84
                      A                      A                      A
 Frequencies --   1245.2473              1271.0136              1285.9126
 Red. masses --      1.9092                 2.5378                 1.1314
 Frc consts  --      1.7442                 2.4155                 1.1023
 IR Inten    --     48.8157                79.5171                 2.6860

                     85                     86                     87
                      A                      A                      A
 Frequencies --   1310.7163              1315.1893              1318.6839
 Red. masses --      2.3312                 1.3581                 1.4365
 Frc consts  --      2.3596                 1.3840                 1.4717
 IR Inten    --     56.8175                 9.2092                46.4755

                     88                     89                     90
                      A                      A                      A
 Frequencies --   1333.6906              1344.7976              1359.1879
 Red. masses --      1.8365                 1.6159                 2.2592
 Frc consts  --      1.9246                 1.7218                 2.4590
 IR Inten    --     28.4174                69.6183                11.1681

                     91                     92                     93
                      A                      A                      A
 Frequencies --   1362.1859              1386.3550              1390.3461
 Red. masses --      1.6625                 1.4621                 1.3561
 Frc consts  --      1.8176                 1.6557                 1.5445
 IR Inten    --     13.3880                36.3940                36.8428

                     94                     95                     96
                      A                      A                      A
 Frequencies --   1401.2873              1411.2835              1416.6194
 Red. masses --      1.2660                 1.5625                 1.4416
 Frc consts  --      1.4647                 1.8336                 1.7046
 IR Inten    --     48.7419                17.8976                 3.8687

                     97                     98                     99
                      A                      A                      A
 Frequencies --   1450.3903              1468.7155              1472.6709
 Red. masses --      1.0921                 1.9684                 1.1939
 Frc consts  --      1.3536                 2.5017                 1.5255
 IR Inten    --      0.6540                11.7802                 7.2531

                    100                    101                    102
                      A                      A                      A
 Frequencies --   1473.1849              1476.9027              1486.4738
 Red. masses --      1.0405                 1.1543                 1.0840
 Frc consts  --      1.3305                 1.4834                 1.4112
 IR Inten    --      6.5089                 6.1666                 4.9372

                    103                    104                    105
                      A                      A                      A
 Frequencies --   1487.7901              1496.6655              1507.4298
 Red. masses --      1.0532                 1.1097                 1.0850
 Frc consts  --      1.3735                 1.4646                 1.4526
 IR Inten    --      5.1256                 7.0445                 6.5638

                    106                    107                    108
                      A                      A                      A
 Frequencies --   1509.9227              1518.4172              1616.4207
 Red. masses --      1.0850                 2.1526                 5.5089
 Frc consts  --      1.4575                 2.9241                 8.4806
 IR Inten    --      6.4022                 1.5630                 0.1713

                    109                    110                    111
                      A                      A                      A
 Frequencies --   1640.6932              1762.6598              3012.6009
 Red. masses --      5.6287                11.7383                 1.0485
 Frc consts  --      8.9272                21.4878                 5.6065
 IR Inten    --      5.6336               238.9215                 0.2475

                    112                    113                    114
                      A                      A                      A
 Frequencies --   3020.7818              3041.5572              3050.5222
 Red. masses --      1.0493                 1.0361                 1.0613
 Frc consts  --      5.6415                 5.6474                 5.8189
 IR Inten    --      8.1906                18.5788                26.9163

                    115                    116                    117
                      A                      A                      A
 Frequencies --   3058.9260              3062.8332              3067.2588
 Red. masses --      1.0594                 1.0715                 1.0735
 Frc consts  --      5.8405                 5.9225                 5.9503
 IR Inten    --     16.9289                17.6230                10.4209

                    118                    119                    120
                      A                      A                      A
 Frequencies --   3091.9457              3106.4182              3107.0412
 Red. masses --      1.1028                 1.0840                 1.1059
 Frc consts  --      6.2117                 6.1630                 6.2901
 IR Inten    --      9.7006                 1.5678                 8.6774

                    121                    122                    123
                      A                      A                      A
 Frequencies --   3113.7605              3116.9470              3120.2842
 Red. masses --      1.1033                 1.1018                 1.0832
 Frc consts  --      6.3027                 6.3067                 6.2138
 IR Inten    --     16.4762                19.7797                 2.5439

                    124                    125                    126
                      A                      A                      A
 Frequencies --   3139.0258              3154.7853              3158.9653
 Red. masses --      1.1042                 1.0902                 1.1049
 Frc consts  --      6.4102                 6.3931                 6.4963
 IR Inten    --     15.5643                 5.1651                 1.5477

                    127                    128                    129
                      A                      A                      A
 Frequencies --   3169.6840              3171.5296              3182.9286
 Red. masses --      1.1045                 1.0856                 1.0908
 Frc consts  --      6.5383                 6.4335                 6.5111
 IR Inten    --      2.8045                 0.1226                 8.3078

                    130                    131                    132
                      A                      A                      A
 Frequencies --   3194.4787              3218.0865              3231.7974
 Red. masses --      1.0967                 1.0926                 1.0918
 Frc consts  --      6.5941                 6.6665                 6.7184
 IR Inten    --     17.0700                 2.0570                 1.0849

 - Thermochemistry -
 -------------------
 Temperature   298.150 Kelvin.  Pressure   1.00000 Atm.
 Atom     1 has atomic number  6 and mass  12.00000

 Molecular mass:   434.99839 amu.
 Principal axes and moments of inertia in atomic units:
                           1         2         3
     Eigenvalues --  8937.46099********************
           X            0.99663   0.07867   0.02341
           Y           -0.07915   0.99666   0.02021
           Z           -0.02175  -0.02199   0.99952
 This molecule is an asymmetric top.
 Rotational symmetry number  1.
 Warning -- assumption of classical behavior for rotation
           may cause significant error
 Rotational temperatures (Kelvin)      0.00969     0.00779     0.00694
 Rotational constants (GHZ):           0.20193     0.16235     0.14460
    1 imaginary frequencies ignored.
 Zero-point vibrational energy     939439.5 (Joules/Mol)
                                  224.53143 (Kcal/Mol)
 Warning -- explicit consideration of  42 degrees of freedom as
           vibrations may cause significant error
 Vibrational temperatures:     27.36    35.54    53.17    73.37    79.14
          (Kelvin)             85.46    97.95   106.00   119.60   138.67
                              147.12   162.40   166.86   169.42   185.05
                              207.78   246.38   271.31   284.93   290.83
                              307.82   319.93   345.76   363.54   372.21
                              404.95   435.05   456.14   487.65   517.96
                              553.68   555.73   570.36   577.39   585.47
                              599.43   632.56   665.28   719.21   744.94
                              822.39   863.01   902.41   931.84  1001.76
                             1011.83  1095.94  1107.30  1126.08  1157.01
                             1189.17  1214.72  1235.90  1250.74  1280.88
                             1297.65  1330.70  1344.03  1379.39  1405.23
                             1416.00  1420.80  1438.06  1445.71  1455.57
                             1465.91  1499.43  1505.08  1526.52  1547.71
                             1570.09  1606.76  1623.59  1630.94  1669.50
                             1683.99  1690.61  1732.39  1740.34  1768.81
                             1791.63  1828.71  1850.14  1885.83  1892.26
                             1897.29  1918.88  1934.86  1955.57  1959.88
                             1994.66  2000.40  2016.14  2030.52  2038.20
                             2086.79  2113.15  2118.84  2119.58  2124.93
                             2138.70  2140.60  2153.37  2168.86  2172.44
                             2184.66  2325.67  2360.59  2536.07  4334.46
                             4346.23  4376.12  4389.02  4401.11  4406.73
                             4413.10  4448.62  4469.44  4470.34  4480.01
                             4484.59  4489.39  4516.36  4539.03  4545.05
                             4560.47  4563.12  4579.52  4596.14  4630.11
                             4649.84

 Zero-point correction=                           0.357814 (Hartree/Particle)
 Thermal correction to Energy=                    0.385164
 Thermal correction to Enthalpy=                  0.386108
 Thermal correction to Gibbs Free Energy=         0.296081
 Sum of electronic and zero-point Energies=          -3531.037054
 Sum of electronic and thermal Energies=             -3531.009704
 Sum of electronic and thermal Enthalpies=           -3531.008760
 Sum of electronic and thermal Free Energies=        -3531.098787

                     E (Thermal)             CV                S
                      KCal/Mol        Cal/Mol-Kelvin    Cal/Mol-Kelvin
 Total                  241.694             98.079            189.478
 Electronic               0.000              0.000              3.561
 Translational            0.889              2.981             44.100
 Rotational               0.889              2.981             35.471
 Vibrational            239.917             92.118            106.346
 Vibration     1          0.593              1.986              6.734
 Vibration     2          0.593              1.985              6.215
 Vibration     3          0.594              1.982              5.416
 Vibration     4          0.595              1.977              4.778
 Vibration     5          0.596              1.976              4.629
 Vibration     6          0.597              1.974              4.477
 Vibration     7          0.598              1.969              4.208
 Vibration     8          0.599              1.966              4.053
 Vibration     9          0.600              1.961              3.816
 Vibration    10          0.603              1.952              3.526
 Vibration    11          0.604              1.947              3.411
 Vibration    12          0.607              1.939              3.219
 Vibration    13          0.608              1.936              3.166
 Vibration    14          0.608              1.935              3.137
 Vibration    15          0.611              1.925              2.967
 Vibration    16          0.616              1.909              2.745
 Vibration    17          0.626              1.878              2.422
 Vibration    18          0.633              1.856              2.242
 Vibration    19          0.637              1.843              2.151
 Vibration    20          0.639              1.837              2.114
 Vibration    21          0.644              1.820              2.010
 Vibration    22          0.648              1.807              1.940
 Vibration    23          0.657              1.779              1.801
 Vibration    24          0.664              1.758              1.712
 Vibration    25          0.668              1.748              1.671
 Vibration    26          0.681              1.708              1.525
 Vibration    27          0.694              1.669              1.404
 Vibration    28          0.704              1.641              1.325
 Vibration    29          0.719              1.598              1.217
 Vibration    30          0.735              1.555              1.122
 Vibration    31          0.754              1.503              1.020
 Vibration    32          0.755              1.500              1.015
 Vibration    33          0.763              1.478              0.976
 Vibration    34          0.767              1.467              0.958
 Vibration    35          0.772              1.455              0.938
 Vibration    36          0.780              1.434              0.904
 Vibration    37          0.800              1.384              0.828
 Vibration    38          0.820              1.333              0.759
 Vibration    39          0.855              1.250              0.658
 Vibration    40          0.873              1.211              0.615
 Vibration    41          0.928              1.093              0.501
 Vibration    42          0.958              1.032              0.450

 Optimization completed.
    -- Stationary point found.
 Normal termination of Gaussian 16 at Sun Jun 20 09:39:40 2021.

 ----------------------------------------------------------------------
 #p ub3lyp jul-cc-pvdz pop=cm5 scrf=(pcm,solvent=dichloroethane) guess=
 read geom=allcheck
 ----------------------------------------------------------------------

 Structure from the checkpoint file:  "checkpoint.chk"
 -----
 title
 -----
 Charge =  0 Multiplicity = 6

 SCF Done:  E(UB3LYP) =  -3531.41510937     A.U. after   20 cycles
 Normal termination of Gaussian 16 at Sun Jun 20 10:08:41 2021.
 Gaussian 16:  ES64L-G16RevA.03 25-Dec-2016

 ----------------------------------------------------------------------
 #p ub3lyp jul-cc-pvdz pop=cm5 scrf=(pcm,solvent=water) guess=read geom
 =allcheck
 ----------------------------------------------------------------------

 Structure from the checkpoint file:  "checkpoint.chk"
 -----
 title
 -----
 Charge =  0 Multiplicity = 6

                         Standard orientation:
 ---------------------------------------------------------------------
 Center     Atomic      Atomic             Coordinates (Angstroms)
 Number     Number       Type             X           Y           Z
 ---------------------------------------------------------------------
      1          6           0        2.980667   -1.201321    0.567654
      2          6           0        1.597804   -1.014086    0.779922
      3          6           0        1.123613   -0.962061    2.104361
      4          6           0        2.004664   -1.081785    3.181540
      5          6           0        3.370416   -1.270752    2.958881
      6          6           0        3.853526   -1.330507    1.645560
      7          6           0        0.660214   -0.917000   -0.366324
      8          6           0        1.058990   -0.184891   -1.669463
      9          6           0        1.544995   -1.214819   -2.707383
     10          6           0        0.567842   -2.407390   -2.660342
     11          6           0        0.248374   -2.684540   -1.206671
     12          6           0       -1.114076   -2.503123   -0.629644
     13          6           0       -2.299624   -2.267371   -1.509426
     14          8           0       -0.713743   -0.761180    0.014849
     15         26           0       -1.913682    0.751724    0.401402
     16         17           0       -2.348277    1.684536   -1.562021
     17          6           0       -1.381433   -3.215668    0.657025
     18         17           0       -1.016838    2.106991    1.883479
     19         17           0       -3.694838   -0.268588    1.254907
     20          1           0        0.065803   -0.799884    2.292391
     21          1           0        1.617369   -1.020942    4.199386
     22          1           0        4.057263   -1.367227    3.801091
     23          1           0        4.918729   -1.473985    1.459435
     24          1           0        3.382565   -1.242690   -0.442127
     25          1           0        0.132323    0.282824   -2.029237
     26          6           0        2.065920    0.950037   -1.482083
     27          1           0        1.599282   -0.763444   -3.707205
     28          1           0        2.563016   -1.539152   -2.455740
     29          1           0       -0.337109   -2.161941   -3.231206
     30          1           0        1.015613   -3.288531   -3.141188
     31          1           0        0.837678   -3.458955   -0.711582
     32          1           0       -1.629313   -4.258377    0.390406
     33          1           0       -0.497517   -3.237480    1.303730
     34          1           0       -2.236106   -2.783219    1.188011
     35          1           0       -2.517954   -3.229237   -2.005979
     36          1           0       -3.177593   -1.972884   -0.925339
     37          1           0       -2.114291   -1.521987   -2.287835
     38          8           0        1.492098    2.003594   -0.887213
     39          8           0        3.223733    0.912214   -1.846387
     40          6           0        2.340647    3.166188   -0.654090
     41          6           0        1.448594    4.315311   -0.232782
     42          1           0        3.070371    2.897223    0.122289
     43          1           0        2.890619    3.377883   -1.579936
     44          1           0        2.071745    5.200206   -0.037364
     45          1           0        0.729721    4.564352   -1.025212
     46          1           0        0.889232    4.068311    0.678171
 ---------------------------------------------------------------------

 SCF Done:  E(UB3LYP) =  -3531.41926231     A.U. after   16 cycles

 The electronic state is 6-A.
 Alpha  occ. eigenvalues -- -256.20532-101.52326-101.52283-101.52244 -30.19889
 Alpha  occ. eigenvalues --  -26.05182 -26.05150 -26.05047 -19.20321 -19.18717
 Alpha  occ. eigenvalues --  -19.15283 -10.33036 -10.30797 -10.30317 -10.24769
 Alpha  occ. eigenvalues --  -10.22601 -10.22188 -10.21784 -10.20524 -10.20460
 Alpha  occ. eigenvalues --  -10.20419 -10.20419 -10.20368 -10.20328 -10.20240
 Alpha  occ. eigenvalues --  -10.20041 -10.20022 -10.18467  -9.44059  -9.44002
 Alpha  occ. eigenvalues --   -9.43961  -7.19920  -7.19866  -7.19825  -7.19612
 Alpha  occ. eigenvalues --   -7.19599  -7.19556  -7.19538  -7.19511  -7.19503
 Alpha  occ. eigenvalues --   -3.67568  -2.45038  -2.44930  -2.44778  -1.12178
 Alpha  occ. eigenvalues --   -1.04191  -1.03661  -0.87496  -0.85817  -0.83786
 Alpha  occ. eigenvalues --   -0.80340  -0.79616  -0.79526  -0.78619  -0.77937
 Alpha  occ. eigenvalues --   -0.76140  -0.74794  -0.72711  -0.70470  -0.66497
 Alpha  occ. eigenvalues --   -0.64281  -0.61960  -0.61249  -0.59173  -0.56886
 Alpha  occ. eigenvalues --   -0.55621  -0.54221  -0.52432  -0.51147  -0.50747
 Alpha  occ. eigenvalues --   -0.49858  -0.49362  -0.48496  -0.48014  -0.47891
 Alpha  occ. eigenvalues --   -0.47717  -0.47409  -0.46719  -0.46587  -0.45872
 Alpha  occ. eigenvalues --   -0.44777  -0.44384  -0.43686  -0.43219  -0.42717
 Alpha  occ. eigenvalues --   -0.42361  -0.41255  -0.40578  -0.40009  -0.39719
 Alpha  occ. eigenvalues --   -0.39365  -0.38582  -0.38425  -0.37589  -0.37119
 Alpha  occ. eigenvalues --   -0.36850  -0.36471  -0.35949  -0.35850  -0.35552
 Alpha  occ. eigenvalues --   -0.34528  -0.34222  -0.33967  -0.32433  -0.31891
 Alpha  occ. eigenvalues --   -0.31167  -0.31131  -0.30924  -0.30767  -0.29923
 Alpha  occ. eigenvalues --   -0.29698  -0.29563  -0.28722  -0.26928  -0.24090
 Alpha virt. eigenvalues --   -0.10112  -0.02914  -0.02785  -0.01495  -0.01284
 Alpha virt. eigenvalues --   -0.00127  -0.00008   0.00054   0.01471   0.01685
 Alpha virt. eigenvalues --    0.01813   0.01965   0.02500   0.03355   0.03396

  Beta  occ. eigenvalues -- -256.20347-101.52139-101.52103-101.52066 -30.10987
  Beta  occ. eigenvalues --  -25.97738 -25.97706 -25.97674 -19.20320 -19.18214
  Beta  occ. eigenvalues --  -19.15281 -10.33037 -10.30804 -10.30303 -10.24770
  Beta  occ. eigenvalues --  -10.22535 -10.22180 -10.21777 -10.20520 -10.20457
  Beta  occ. eigenvalues --  -10.20418 -10.20417 -10.20364 -10.20329 -10.20242
  Beta  occ. eigenvalues --  -10.20040 -10.20020 -10.18465  -9.43875  -9.43826
  Beta  occ. eigenvalues --   -9.43786  -7.19623  -7.19568  -7.19530  -7.19353
  Beta  occ. eigenvalues --   -7.19343  -7.19312  -7.19303  -7.19271  -7.19264
  Beta  occ. eigenvalues --   -3.46793  -2.23099  -2.23002  -2.22956  -1.12175
  Beta  occ. eigenvalues --   -1.03657  -1.03226  -0.87453  -0.85684  -0.83756
  Beta  occ. eigenvalues --   -0.79163  -0.78640  -0.78316  -0.78285  -0.77865
  Beta  occ. eigenvalues --   -0.76133  -0.74754  -0.72694  -0.70312  -0.66419
  Beta  occ. eigenvalues --   -0.64248  -0.61927  -0.61211  -0.58989  -0.56738
  Beta  occ. eigenvalues --   -0.55232  -0.54142  -0.51732  -0.51063  -0.50095
  Beta  occ. eigenvalues --   -0.49796  -0.48725  -0.47798  -0.47491  -0.46590
  Beta  occ. eigenvalues --   -0.45444  -0.44519  -0.43659  -0.43227  -0.42744
  Beta  occ. eigenvalues --   -0.42276  -0.41248  -0.40508  -0.40014  -0.39725
  Beta  occ. eigenvalues --   -0.39311  -0.38579  -0.38227  -0.37815  -0.37397
  Beta  occ. eigenvalues --   -0.36868  -0.36465  -0.36042  -0.35905  -0.35853
  Beta  occ. eigenvalues --   -0.35723  -0.35578  -0.34313  -0.33360  -0.33067
  Beta  occ. eigenvalues --   -0.32588  -0.32485  -0.31793  -0.31139  -0.30503
  Beta  occ. eigenvalues --   -0.29754  -0.29642  -0.28876  -0.26915  -0.24321
  Beta virt. eigenvalues --   -0.14654  -0.14117  -0.13300  -0.13109  -0.12646
  Beta virt. eigenvalues --   -0.09688  -0.02893  -0.02654  -0.01416  -0.01224
  Beta virt. eigenvalues --   -0.00082   0.00029   0.00079   0.01500   0.01701

 Mulliken charges and spin densities:
               1          2
     1  C   -0.002303   0.004411
     2  C    2.631874  -0.010865
     3  C   -0.337028  -0.008518
     4  C    0.054059   0.002743
     5  C    0.248890   0.003910
     6  C   -0.089275  -0.001295
     7  C   -1.753517   0.007667
     8  C    0.303293   0.008343
     9  C    0.507942   0.003025
    10  C    0.551994  -0.002840
    11  C    0.755854   0.046981
    12  C   -0.737209  -0.005800
    13  C    0.372128   0.000284
    14  O   -0.490315   0.153084
    15  Fe   0.671700   4.059939
    16  Cl  -0.527349   0.235849
    17  C    0.363936  -0.001590
    18  Cl  -0.480685   0.255458
    19  Cl  -0.514311   0.243219
    20  H   -0.265814   0.001831
    21  H   -0.161594   0.000007
    22  H   -0.161921  -0.000056
    23  H   -0.158945   0.000118
    24  H   -0.231678  -0.000083
    25  H   -0.196611  -0.000130
    26  C    0.838203  -0.000206
    27  H   -0.128555   0.000258
    28  H   -0.026293   0.000040
    29  H   -0.080466   0.000113
    30  H   -0.115089   0.001239
    31  H   -0.255068   0.000114
    32  H    0.044672   0.001681
    33  H    0.053422  -0.000147
    34  H    0.029183  -0.000568
    35  H    0.035468  -0.000086
    36  H    0.026969  -0.000146
    37  H    0.071441  -0.000601
    38  O   -0.681328   0.001684
    39  O   -0.612847   0.000924
    40  C    0.435793   0.001261
    41  C    0.040006  -0.001106
    42  H   -0.034094   0.000059
    43  H   -0.036684   0.000040
    44  H   -0.007630   0.000044
    45  H    0.023240   0.000033
    46  H    0.026542  -0.000321
 Sum of Mulliken charges =  -0.00000   5.00000

 Dipole moment (field-independent basis, Debye):
    X=              4.9593    Y=             -9.8074    Z=             -2.6687  Tot=             11.3093
 Quadrupole moment (field-independent basis, Debye-Ang):
   XX=           -195.1151   YY=           -155.0405   ZZ=           -173.0275
   XY=             13.3185   XZ=             13.6497   YZ=              4.7445

 Normal termination of Gaussian 16 at Sun Jun 20 10:31:55 2021.
