 Gaussian 16, Revision A.03,

 -----------------------------------------------------------
 #p opt=modredundant freq=noraman ub3lyp jul-cc-pvdz pop=cm5
 -----------------------------------------------------------

 -----
 title
 -----
 Symbolic Z-matrix:
 Charge =  0 Multiplicity = 6

 SCF Done:  E(UB3LYP) =  -3531.43592044     A.U. after   24 cycles
 SCF Done:  E(UB3LYP) =  -3531.42650711     A.U. after   22 cycles
 SCF Done:  E(UB3LYP) =  -3531.43489898     A.U. after   17 cycles
 SCF Done:  E(UB3LYP) =  -3531.43594361     A.U. after   10 cycles
 SCF Done:  E(UB3LYP) =  -3531.43596058     A.U. after   14 cycles
 SCF Done:  E(UB3LYP) =  -3531.43597324     A.U. after   14 cycles
 SCF Done:  E(UB3LYP) =  -3531.43597402     A.U. after   14 cycles
 SCF Done:  E(UB3LYP) =  -3531.43599562     A.U. after   13 cycles
 SCF Done:  E(UB3LYP) =  -3531.43600008     A.U. after   12 cycles
 SCF Done:  E(UB3LYP) =  -3531.43600467     A.U. after   11 cycles
 SCF Done:  E(UB3LYP) =  -3531.43602080     A.U. after   13 cycles
 SCF Done:  E(UB3LYP) =  -3531.43602499     A.U. after   13 cycles
 SCF Done:  E(UB3LYP) =  -3531.43602577     A.U. after   13 cycles
 SCF Done:  E(UB3LYP) =  -3531.43602668     A.U. after   11 cycles
 SCF Done:  E(UB3LYP) =  -3531.43602701     A.U. after   11 cycles
 SCF Done:  E(UB3LYP) =  -3531.43602707     A.U. after   10 cycles
 SCF Done:  E(UB3LYP) =  -3531.43602705     A.U. after    9 cycles
 Optimization completed.
    -- Stationary point found.
 Normal termination of Gaussian 16 at Tue Jun 22 06:46:20 2021.

 ----------------------------------------------------------------------
 #P Geom=AllCheck Guess=TCheck SCRF=Check GenChk UB3LYP/Jul-CC-pVDZ Fre
 q
 ----------------------------------------------------------------------

 Structure from the checkpoint file:  "checkpoint.chk"
 -----
 title
 -----
 Charge =  0 Multiplicity = 6

 SCF Done:  E(UB3LYP) =  -3531.43602705     A.U. after    2 cycles

  Exact polarizability: 319.756  13.423 301.511  18.834   1.521 301.687
 Approx polarizability: 498.958  49.159 454.925  28.776 -12.308 493.741

 ******    1 imaginary frequencies (negative Signs) ******

                      1                      2                      3
                      A                      A                      A
 Frequencies --    -26.0690                16.6891                17.8415
 Red. masses --      5.3169                 7.7084                 5.0414
 Frc consts  --      0.0021                 0.0013                 0.0009
 IR Inten    --      0.4458                 1.1107                 0.5998

                      4                      5                      6
                      A                      A                      A
 Frequencies --     28.5099                48.6351                49.8256
 Red. masses --      7.2747                 6.7235                 5.8410
 Frc consts  --      0.0035                 0.0094                 0.0085
 IR Inten    --      1.5851                 0.9584                 1.7017

                      7                      8                      9
                      A                      A                      A
 Frequencies --     55.6486                63.5525                79.0345
 Red. masses --      3.5395                 3.0446                10.8664
 Frc consts  --      0.0065                 0.0072                 0.0400
 IR Inten    --      1.0332                 1.6978                 0.2175

                     10                     11                     12
                      A                      A                      A
 Frequencies --     85.3725                89.1459                98.2625
 Red. masses --      9.0665                 6.6278                 4.1234
 Frc consts  --      0.0389                 0.0310                 0.0235
 IR Inten    --      0.7879                 4.1636                 0.8469

                     13                     14                     15
                      A                      A                      A
 Frequencies --    103.5978               114.3520               122.9250
 Red. masses --      5.5014                19.9197                11.4216
 Frc consts  --      0.0348                 0.1535                 0.1017
 IR Inten    --      0.3341                 0.1315                 2.1587

                     16                     17                     18
                      A                      A                      A
 Frequencies --    126.0576               139.4459               145.3192
 Red. masses --      2.1154                 2.6245                 3.4315
 Frc consts  --      0.0198                 0.0301                 0.0427
 IR Inten    --      2.0125                 3.0366                 2.0116

                     19                     20                     21
                      A                      A                      A
 Frequencies --    164.4708               175.3666               190.3157
 Red. masses --      5.0198                 1.8322                 2.7751
 Frc consts  --      0.0800                 0.0332                 0.0592
 IR Inten    --     11.8366                 0.4954                 8.1566

                     22                     23                     24
                      A                      A                      A
 Frequencies --    203.8866               209.0455               222.0328
 Red. masses --      2.7014                 1.1911                 3.0760
 Frc consts  --      0.0662                 0.0307                 0.0893
 IR Inten    --      0.5871                 2.3805                 6.3707

                     25                     26                     27
                      A                      A                      A
 Frequencies --    257.8783               271.3169               283.9765
 Red. masses --      1.6228                 4.1771                 4.0329
 Frc consts  --      0.0636                 0.1812                 0.1916
 IR Inten    --      2.7284                43.1105                 2.4366

                     28                     29                     30
                      A                      A                      A
 Frequencies --    318.0932               339.6401               352.9637
 Red. masses --      2.2220                26.7144                 5.4859
 Frc consts  --      0.1325                 1.8157                 0.4027
 IR Inten    --      0.2655                29.2907                 2.6492

                     31                     32                     33
                      A                      A                      A
 Frequencies --    363.3909               380.7986               396.0895
 Red. masses --      6.8018                 5.1155                 3.1477
 Frc consts  --      0.5292                 0.4370                 0.2910
 IR Inten    --     29.6592                12.6099                24.3139

                     34                     35                     36
                      A                      A                      A
 Frequencies --    398.9172               403.1799               411.3661
 Red. masses --     11.4753                18.2853                 2.9534
 Frc consts  --      1.0759                 1.7513                 0.2945
 IR Inten    --     58.4863                72.3674                 3.1337

                     37                     38                     39
                      A                      A                      A
 Frequencies --    422.5562               450.7463               473.8335
 Red. masses --      3.7090                 3.4441                 3.2328
 Frc consts  --      0.3902                 0.4123                 0.4276
 IR Inten    --     41.4864                 1.6872                 5.8708

                     40                     41                     42
                      A                      A                      A
 Frequencies --    503.9265               516.1867               548.4889
 Red. masses --      3.1924                 2.7069                 3.1094
 Frc consts  --      0.4776                 0.4250                 0.5511
 IR Inten    --     15.0433                 1.6204                20.8419

                     43                     44                     45
                      A                      A                      A
 Frequencies --    569.0962               623.8993               654.8419
 Red. masses --      4.2711                 6.3515                 4.2797
 Frc consts  --      0.8150                 1.4567                 1.0813
 IR Inten    --     69.3263                 3.2129                71.3119

                     46                     47                     48
                      A                      A                      A
 Frequencies --    690.8648               696.2004               751.0012
 Red. masses --      1.5917                 5.9933                 4.3311
 Frc consts  --      0.4476                 1.7115                 1.4392
 IR Inten    --     59.3053                14.9848                 7.8518

                     49                     50                     51
                      A                      A                      A
 Frequencies --    772.0084               780.8981               804.8872
 Red. masses --      2.3237                 2.1705                 1.1868
 Frc consts  --      0.8160                 0.7798                 0.4530
 IR Inten    --     21.0638                 5.9681                 1.7285

                     52                     53                     54
                      A                      A                      A
 Frequencies --    827.0297               841.7338               845.8943
 Red. masses --      3.9328                 1.4922                 1.2726
 Frc consts  --      1.5849                 0.6229                 0.5365
 IR Inten    --     11.1583                20.6092                 0.2128

                     55                     56                     57
                      A                      A                      A
 Frequencies --    863.6404               895.2858               908.9768
 Red. masses --      2.7829                 2.0998                 2.1431
 Frc consts  --      1.2230                 0.9916                 1.0433
 IR Inten    --     27.9013                 3.4013                17.9020

                     58                     59                     60
                      A                      A                      A
 Frequencies --    955.0260               957.7119               971.8088
 Red. masses --      1.4432                 1.3488                 3.5792
 Frc consts  --      0.7756                 0.7289                 1.9916
 IR Inten    --      1.6344                 2.9463                23.8548

                     61                     62                     63
                      A                      A                      A
 Frequencies --    989.5082               991.0352               994.1194
 Red. masses --      2.2868                 1.3275                 1.5334
 Frc consts  --      1.3192                 0.7682                 0.8929
 IR Inten    --     21.4296                 5.0263                 9.3025

                     64                     65                     66
                      A                      A                      A
 Frequencies --   1002.7212              1011.8587              1013.6625
 Red. masses --      3.9341                 1.3933                 2.0311
 Frc consts  --      2.3305                 0.8405                 1.2296
 IR Inten    --      2.0852                 0.5681                 2.3107

                     67                     68                     69
                      A                      A                      A
 Frequencies --   1036.2481              1046.2487              1074.5537
 Red. masses --      2.6506                 2.4483                 2.2586
 Frc consts  --      1.6770                 1.5790                 1.5366
 IR Inten    --     43.7145                 3.2499                 4.0628

                     70                     71                     72
                      A                      A                      A
 Frequencies --   1091.4422              1093.9266              1114.5640
 Red. masses --      2.1198                 1.8483                 1.5585
 Frc consts  --      1.4878                 1.3032                 1.1407
 IR Inten    --      6.2946                22.1116                 8.2494

                     73                     74                     75
                      A                      A                      A
 Frequencies --   1133.3615              1136.0062              1161.7559
 Red. masses --      2.1416                 2.1179                 1.6819
 Frc consts  --      1.6208                 1.6104                 1.3374
 IR Inten    --     15.1547                11.0931                80.8158

                     76                     77                     78
                      A                      A                      A
 Frequencies --   1170.0738              1178.4585              1204.1196
 Red. masses --      1.5611                 1.0847                 1.2351
 Frc consts  --      1.2593                 0.8876                 1.0551
 IR Inten    --      1.9998                 1.7036                41.3394

                     79                     80                     81
                      A                      A                      A
 Frequencies --   1209.5919              1226.4441              1253.1947
 Red. masses --      1.6457                 1.9713                 1.9650
 Frc consts  --      1.4186                 1.7470                 1.8182
 IR Inten    --     89.7482               123.0830                32.8856

                     82                     83                     84
                      A                      A                      A
 Frequencies --   1276.9349              1285.9209              1322.0689
 Red. masses --      2.1761                 1.1698                 1.4269
 Frc consts  --      2.0906                 1.1397                 1.4695
 IR Inten    --    161.4411                11.2302                16.8068

                     85                     86                     87
                      A                      A                      A
 Frequencies --   1330.9095              1337.2688              1339.1442
 Red. masses --      1.4470                 1.6339                 1.6331
 Frc consts  --      1.5102                 1.7215                 1.7255
 IR Inten    --     73.2684                54.6375                48.3140

                     88                     89                     90
                      A                      A                      A
 Frequencies --   1363.1495              1369.5134              1375.3638
 Red. masses --      1.4994                 3.2419                 1.3437
 Frc consts  --      1.6416                 3.5825                 1.4976
 IR Inten    --      7.7063                12.1605                 2.3991

                     91                     92                     93
                      A                      A                      A
 Frequencies --   1381.6913              1401.4807              1409.2903
 Red. masses --      1.3709                 1.3487                 1.3602
 Frc consts  --      1.5419                 1.5608                 1.5916
 IR Inten    --     23.9703                 7.0975                16.2662

                     94                     95                     96
                      A                      A                      A
 Frequencies --   1416.1108              1459.4827              1464.7577
 Red. masses --      1.4011                 1.1768                 1.9740
 Frc consts  --      1.6554                 1.4769                 2.4953
 IR Inten    --     11.7749                29.6209                49.0180

                     97                     98                     99
                      A                      A                      A
 Frequencies --   1471.8903              1473.5808              1477.3368
 Red. masses --      1.0792                 1.0384                 1.0517
 Frc consts  --      1.3775                 1.3285                 1.3524
 IR Inten    --      8.2647                 5.9982                 9.2520

                    100                    101                    102
                      A                      A                      A
 Frequencies --   1480.3102              1486.8999              1488.1275
 Red. masses --      1.0836                 1.0562                 1.1052
 Frc consts  --      1.3991                 1.3758                 1.4420
 IR Inten    --      3.8229                 4.4087                10.8180

                    103                    104                    105
                      A                      A                      A
 Frequencies --   1499.5296              1505.4796              1515.6240
 Red. masses --      1.0836                 1.0838                 2.3139
 Frc consts  --      1.4356                 1.4473                 3.1316
 IR Inten    --     12.1131                 5.5328                80.3202

                    106                    107                    108
                      A                      A                      A
 Frequencies --   1529.9792              1618.0944              1640.8155
 Red. masses --      4.5397                 5.4233                 5.6617
 Frc consts  --      6.2611                 8.3660                 8.9809
 IR Inten    --    593.1451                18.8132                43.3316

                    109                    110                    111
                      A                      A                      A
 Frequencies --   1701.4231              1768.3166              3017.4931
 Red. masses --      6.3604                11.5701                 1.0419
 Frc consts  --     10.8483                21.3161                 5.5897
 IR Inten    --     90.7112               223.0447                 8.6502

                    112                    113                    114
                      A                      A                      A
 Frequencies --   3023.4522              3034.6131              3042.7935
 Red. masses --      1.0476                 1.0660                 1.0359
 Frc consts  --      5.6424                 5.7838                 5.6506
 IR Inten    --     13.7604                32.2055                16.5107

                    115                    116                    117
                      A                      A                      A
 Frequencies --   3061.2206              3065.5049              3076.8924
 Red. masses --      1.0587                 1.0653                 1.0948
 Frc consts  --      5.8453                 5.8983                 6.1065
 IR Inten    --     14.4087                28.9372                10.0781

                    118                    119                    120
                      A                      A                      A
 Frequencies --   3078.7539              3088.7072              3101.2781
 Red. masses --      1.0850                 1.0962                 1.0851
 Frc consts  --      6.0592                 6.1614                 6.1489
 IR Inten    --      0.0672                 4.9029                 3.1063

                    121                    122                    123
                      A                      A                      A
 Frequencies --   3109.3864              3119.1483              3122.4631
 Red. masses --      1.1070                 1.1016                 1.0981
 Frc consts  --      6.3058                 6.3146                 6.3081
 IR Inten    --      8.0196                16.8246                14.6078

                    124                    125                    126
                      A                      A                      A
 Frequencies --   3123.2391              3134.1401              3139.7330
 Red. masses --      1.1019                 1.0888                 1.1048
 Frc consts  --      6.3327                 6.3016                 6.4171
 IR Inten    --      2.2615                27.3580                14.6707

                    127                    128                    129
                      A                      A                      A
 Frequencies --   3150.7956              3175.6573              3189.6307
 Red. masses --      1.1007                 1.0864                 1.0913
 Frc consts  --      6.4379                 6.4554                 6.5417
 IR Inten    --     11.1712                 0.7043                 6.0865

                    130                    131                    132
                      A                      A                      A
 Frequencies --   3198.0286              3229.5218              3238.0820
 Red. masses --      1.0968                 1.0927                 1.0924
 Frc consts  --      6.6091                 6.7148                 6.7484
 IR Inten    --     10.5645                 1.5546                 4.1299

 - Thermochemistry -
 -------------------
 Temperature   298.150 Kelvin.  Pressure   1.00000 Atm.
 Atom     1 has atomic number  6 and mass  12.00000

 Molecular mass:   434.99839 amu.
 Principal axes and moments of inertia in atomic units:
                           1         2         3
     Eigenvalues --  9498.29944********************
           X            0.99777  -0.06519   0.01442
           Y            0.06473   0.99745   0.02999
           Z           -0.01634  -0.02899   0.99945
 This molecule is an asymmetric top.
 Rotational symmetry number  1.
 Warning -- assumption of classical behavior for rotation
           may cause significant error
 Rotational temperatures (Kelvin)      0.00912     0.00783     0.00668
 Rotational constants (GHZ):           0.19001     0.16317     0.13910
    1 imaginary frequencies ignored.
 Zero-point vibrational energy     944436.3 (Joules/Mol)
                                  225.72568 (Kcal/Mol)
 Warning -- explicit consideration of  42 degrees of freedom as
           vibrations may cause significant error
 Vibrational temperatures:     24.01    25.67    41.02    69.98    71.69
          (Kelvin)             80.07    91.44   113.71   122.83   128.26
                              141.38   149.05   164.53   176.86   181.37
                              200.63   209.08   236.64   252.31   273.82
                              293.35   300.77   319.46   371.03   390.36
                              408.58   457.67   488.67   507.84   522.84
                              547.88   569.88   573.95   580.09   591.86
                              607.96   648.52   681.74   725.04   742.68
                              789.15   818.80   897.65   942.17   994.00
                             1001.68  1080.52  1110.75  1123.54  1158.05
                             1189.91  1211.07  1217.05  1242.59  1288.12
                             1307.81  1374.07  1377.93  1398.22  1423.68
                             1425.88  1430.32  1442.69  1455.84  1458.43
                             1490.93  1505.32  1546.04  1570.34  1573.92
                             1603.61  1630.65  1634.46  1671.51  1683.48
                             1695.54  1732.46  1740.33  1764.58  1803.07
                             1837.22  1850.15  1902.16  1914.88  1924.03
                             1926.73  1961.27  1970.42  1978.84  1987.95
                             2016.42  2027.65  2037.47  2099.87  2107.46
                             2117.72  2120.15  2125.56  2129.84  2139.32
                             2141.08  2157.49  2166.05  2180.64  2201.30
                             2328.08  2360.77  2447.97  2544.21  4341.50
                             4350.07  4366.13  4377.90  4404.41  4410.58
                             4426.96  4429.64  4443.96  4462.05  4473.71
                             4487.76  4492.53  4493.64  4509.33  4517.38
                             4533.29  4569.06  4589.17  4601.25  4646.56
                             4658.88

 Zero-point correction=                           0.359717 (Hartree/Particle)
 Thermal correction to Energy=                    0.387219
 Thermal correction to Enthalpy=                  0.388164
 Thermal correction to Gibbs Free Energy=         0.296716
 Sum of electronic and zero-point Energies=          -3531.076310
 Sum of electronic and thermal Energies=             -3531.048808
 Sum of electronic and thermal Enthalpies=           -3531.047864
 Sum of electronic and thermal Free Energies=        -3531.139311

                     E (Thermal)             CV                S
                      KCal/Mol        Cal/Mol-Kelvin    Cal/Mol-Kelvin
 Total                  242.984             97.637            192.467
 Electronic               0.000              0.000              3.561
 Translational            0.889              2.981             44.100
 Rotational               0.889              2.981             35.565
 Vibrational            241.206             91.676            109.242
 Vibration     1          0.593              1.986              6.994
 Vibration     2          0.593              1.986              6.861
 Vibration     3          0.593              1.984              5.930
 Vibration     4          0.595              1.978              4.872
 Vibration     5          0.595              1.978              4.824
 Vibration     6          0.596              1.975              4.606
 Vibration     7          0.597              1.972              4.344
 Vibration     8          0.600              1.963              3.915
 Vibration     9          0.601              1.959              3.763
 Vibration    10          0.602              1.957              3.679
 Vibration    11          0.604              1.950              3.488
 Vibration    12          0.605              1.946              3.385
 Vibration    13          0.607              1.938              3.194
 Vibration    14          0.610              1.930              3.054
 Vibration    15          0.611              1.927              3.005
 Vibration    16          0.615              1.914              2.811
 Vibration    17          0.617              1.908              2.733
 Vibration    18          0.623              1.886              2.498
 Vibration    19          0.627              1.873              2.377
 Vibration    20          0.634              1.853              2.225
 Vibration    21          0.640              1.834              2.098
 Vibration    22          0.642              1.827              2.052
 Vibration    23          0.648              1.808              1.942
 Vibration    24          0.667              1.749              1.676
 Vibration    25          0.675              1.726              1.588
 Vibration    26          0.682              1.703              1.510
 Vibration    27          0.704              1.639              1.320
 Vibration    28          0.720              1.596              1.214
 Vibration    29          0.729              1.569              1.153
 Vibration    30          0.737              1.548              1.108
 Vibration    31          0.751              1.511              1.036
 Vibration    32          0.763              1.479              0.977
 Vibration    33          0.765              1.472              0.967
 Vibration    34          0.769              1.463              0.951
 Vibration    35          0.775              1.446              0.922
 Vibration    36          0.785              1.421              0.883
 Vibration    37          0.810              1.359              0.794
 Vibration    38          0.831              1.308              0.727
 Vibration    39          0.859              1.241              0.648
 Vibration    40          0.871              1.214              0.619
 Vibration    41          0.904              1.143              0.547
 Vibration    42          0.925              1.098              0.506

                           ! Non-Optimized Parameters !
 Normal termination of Gaussian 16 at Tue Jun 22 10:21:16 2021.

 ----------------------------------------------------------------------
 #p ub3lyp jul-cc-pvdz pop=cm5 scrf=(pcm,solvent=dichloroethane) guess=
 read geom=allcheck
 ----------------------------------------------------------------------

 Structure from the checkpoint file:  "checkpoint.chk"
 -----
 title
 -----
 Charge =  0 Multiplicity = 6

 SCF Done:  E(UB3LYP) =  -3531.45288313     A.U. after   18 cycles
 Normal termination of Gaussian 16 at Tue Jun 22 10:42:46 2021.
 Gaussian 16:  ES64L-G16RevA.03 25-Dec-2016

 ----------------------------------------------------------------------
 #p ub3lyp jul-cc-pvdz pop=cm5 scrf=(pcm,solvent=water) guess=read geom
 =allcheck
 ----------------------------------------------------------------------

 Structure from the checkpoint file:  "checkpoint.chk"
 -----
 title
 -----
 Charge =  0 Multiplicity = 6

                         Standard orientation:
 ---------------------------------------------------------------------
 Center     Atomic      Atomic             Coordinates (Angstroms)
 Number     Number       Type             X           Y           Z
 ---------------------------------------------------------------------
      1          6           0        3.140120    0.280028    0.720694
      2          6           0        1.867291   -0.326785    0.791319
      3          6           0        1.512573   -1.030123    1.964291
      4          6           0        2.408460   -1.139130    3.022992
      5          6           0        3.672766   -0.544080    2.934441
      6          6           0        4.031872    0.169497    1.785465
      7          6           0        0.868862   -0.216379   -0.288693
      8          6           0        1.060315    0.683135   -1.520518
      9          6           0        2.147515    0.233194   -2.517629
     10          6           0        1.888416   -1.204654   -2.997798
     11          6           0        1.739246   -2.127941   -1.821130
     12          6           0        0.601474   -2.712519   -1.389337
     13          6           0       -0.709091   -2.667262   -2.127873
     14          8           0       -0.264325   -0.741951   -0.117622
     15         26           0       -2.105034   -0.256404    0.437575
     16         17           0       -3.078461    0.664667   -1.309599
     17          6           0        0.615106   -3.627655   -0.196877
     18         17           0       -1.847411    1.098929    2.156853
     19         17           0       -3.018758   -2.168323    1.045645
     20          1           0        0.523025   -1.473781    2.041112
     21          1           0        2.118099   -1.679834    3.924111
     22          1           0        4.374444   -0.627192    3.766086
     23          1           0        5.009287    0.648426    1.720900
     24          1           0        3.432087    0.861682   -0.148636
     25          1           0        0.084159    0.651966   -2.021626
     26          6           0        1.266996    2.147721   -1.090268
     27          1           0        2.141314    0.935507   -3.362692
     28          1           0        3.142321    0.309896   -2.064820
     29          1           0        0.996250   -1.226444   -3.636831
     30          1           0        2.733479   -1.522856   -3.627892
     31          1           0        2.653401   -2.313523   -1.249654
     32          1           0        1.599326   -3.668098    0.286062
     33          1           0       -0.142485   -3.324468    0.540385
     34          1           0        0.343185   -4.648773   -0.510452
     35          1           0       -0.803001   -3.585470   -2.731759
     36          1           0       -1.557275   -2.664180   -1.432552
     37          1           0       -0.812004   -1.813017   -2.804076
     38          8           0        0.122708    2.665094   -0.636336
     39          8           0        2.316727    2.749179   -1.175546
     40          6           0        0.156571    4.056977   -0.193260
     41          6           0       -1.268099    4.484010    0.089571
     42          1           0        0.794536    4.106227    0.699774
     43          1           0        0.628032    4.652591   -0.985507
     44          1           0       -1.266841    5.528417    0.433761
     45          1           0       -1.885372    4.416636   -0.816401
     46          1           0       -1.719604    3.856368    0.868164
 ---------------------------------------------------------------------

 SCF Done:  E(UB3LYP) =  -3531.45605783     A.U. after   16 cycles

 The electronic state is 6-A.
 Alpha  occ. eigenvalues -- -256.21495-101.52773-101.52747-101.52720 -30.20862
 Alpha  occ. eigenvalues --  -26.06301 -26.06034 -26.05958 -19.21045 -19.19387
 Alpha  occ. eigenvalues --  -19.16131 -10.34097 -10.33685 -10.25160 -10.23391
 Alpha  occ. eigenvalues --  -10.22924 -10.22095 -10.22082 -10.21958 -10.21280
 Alpha  occ. eigenvalues --  -10.21256 -10.21059 -10.20533 -10.19420 -10.18652
 Alpha  occ. eigenvalues --  -10.18518 -10.18401 -10.18366  -9.44498  -9.44461
 Alpha  occ. eigenvalues --   -9.44438  -7.20365  -7.20333  -7.20305  -7.20052
 Alpha  occ. eigenvalues --   -7.20038  -7.20019  -7.19997  -7.19991  -7.19980
 Alpha  occ. eigenvalues --   -3.68517  -2.46236  -2.45749  -2.45592  -1.12994
 Alpha  occ. eigenvalues --   -1.10040  -1.04506  -0.88707  -0.84994  -0.82429
 Alpha  occ. eigenvalues --   -0.80787  -0.80032  -0.79997  -0.79054  -0.78597
 Alpha  occ. eigenvalues --   -0.77365  -0.74962  -0.70079  -0.69539  -0.67306
 Alpha  occ. eigenvalues --   -0.64801  -0.63013  -0.61672  -0.59971  -0.57816
 Alpha  occ. eigenvalues --   -0.56320  -0.53799  -0.52872  -0.51954  -0.50756
 Alpha  occ. eigenvalues --   -0.50376  -0.49385  -0.49141  -0.48663  -0.48580
 Alpha  occ. eigenvalues --   -0.48219  -0.47382  -0.47156  -0.46935  -0.45873
 Alpha  occ. eigenvalues --   -0.45404  -0.45125  -0.44293  -0.43148  -0.42522
 Alpha  occ. eigenvalues --   -0.42361  -0.40903  -0.40544  -0.40027  -0.39429
 Alpha  occ. eigenvalues --   -0.39047  -0.38355  -0.37899  -0.37755  -0.37642
 Alpha  occ. eigenvalues --   -0.37228  -0.36985  -0.36625  -0.36254  -0.35049
 Alpha  occ. eigenvalues --   -0.34970  -0.34415  -0.33448  -0.32565  -0.32314
 Alpha  occ. eigenvalues --   -0.31579  -0.31542  -0.31355  -0.31165  -0.30386
 Alpha  occ. eigenvalues --   -0.30103  -0.29812  -0.28769  -0.28008  -0.24510
 Alpha virt. eigenvalues --   -0.11489  -0.03628  -0.02235  -0.01670  -0.00993
 Alpha virt. eigenvalues --   -0.00145   0.00004   0.00100   0.00891   0.01548
 Alpha virt. eigenvalues --    0.01692   0.01943   0.02397   0.02810   0.03193

  Beta  occ. eigenvalues -- -256.21310-101.52582-101.52551-101.52529 -30.11935
  Beta  occ. eigenvalues --  -25.98731 -25.98644 -25.98596 -19.21044 -19.19030
  Beta  occ. eigenvalues --  -19.16129 -10.34095 -10.33657 -10.25160 -10.23381
  Beta  occ. eigenvalues --  -10.22909 -10.22092 -10.22077 -10.21956 -10.21280
  Beta  occ. eigenvalues --  -10.21257 -10.21037 -10.20530 -10.19421 -10.18651
  Beta  occ. eigenvalues --  -10.18487 -10.18402 -10.18366  -9.44312  -9.44269
  Beta  occ. eigenvalues --   -9.44250  -7.20055  -7.20016  -7.19997  -7.19791
  Beta  occ. eigenvalues --   -7.19781  -7.19750  -7.19734  -7.19730  -7.19719
  Beta  occ. eigenvalues --   -3.47693  -2.23991  -2.23907  -2.23838  -1.12987
  Beta  occ. eigenvalues --   -1.09349  -1.04502  -0.88673  -0.84938  -0.82368
  Beta  occ. eigenvalues --   -0.79543  -0.79013  -0.78716  -0.78650  -0.78559
  Beta  occ. eigenvalues --   -0.77359  -0.74929  -0.70054  -0.69427  -0.67197
  Beta  occ. eigenvalues --   -0.64760  -0.62984  -0.61542  -0.59589  -0.57643
  Beta  occ. eigenvalues --   -0.55736  -0.53311  -0.52717  -0.51877  -0.50559
  Beta  occ. eigenvalues --   -0.49871  -0.49066  -0.47834  -0.47194  -0.46863
  Beta  occ. eigenvalues --   -0.45439  -0.45269  -0.44291  -0.43166  -0.42503
  Beta  occ. eigenvalues --   -0.42332  -0.40928  -0.40513  -0.40032  -0.39345
  Beta  occ. eigenvalues --   -0.38974  -0.38483  -0.38290  -0.37810  -0.37640
  Beta  occ. eigenvalues --   -0.37232  -0.36967  -0.36610  -0.36448  -0.36369
  Beta  occ. eigenvalues --   -0.36257  -0.35025  -0.33800  -0.33593  -0.33379
  Beta  occ. eigenvalues --   -0.32850  -0.32794  -0.32309  -0.31508  -0.30845
  Beta  occ. eigenvalues --   -0.29968  -0.29791  -0.28946  -0.28004  -0.24387
  Beta virt. eigenvalues --   -0.15606  -0.15053  -0.14342  -0.13803  -0.13736
  Beta virt. eigenvalues --   -0.10440  -0.03606  -0.02207  -0.01550  -0.00916
  Beta virt. eigenvalues --   -0.00104   0.00043   0.00141   0.01043   0.01569

 Mulliken charges and spin densities:
               1          2
     1  C   -0.006972   0.002490
     2  C    3.056798  -0.009591
     3  C   -0.657185  -0.003400
     4  C    0.110924   0.000725
     5  C    0.299265   0.005866
     6  C   -0.155091  -0.000265
     7  C   -2.088498   0.005260
     8  C    0.344208   0.013575
     9  C    0.608478   0.004244
    10  C    0.591948  -0.001822
    11  C    0.154272   0.020969
    12  C    0.001164   0.013980
    13  C    0.160969  -0.001274
    14  O   -0.321112   0.101306
    15  Fe   0.705430   4.064464
    16  Cl  -0.507997   0.254694
    17  C    0.247416  -0.000997
    18  Cl  -0.474554   0.261279
    19  Cl  -0.473188   0.261034
    20  H   -0.248249  -0.000729
    21  H   -0.157526   0.000023
    22  H   -0.145454  -0.000079
    23  H   -0.152686   0.000124
    24  H   -0.183307  -0.000098
    25  H   -0.166447  -0.001126
    26  C    0.797882   0.002535
    27  H   -0.129551   0.000206
    28  H   -0.030246   0.000009
    29  H   -0.087916   0.000015
    30  H   -0.122831   0.001213
    31  H   -0.253733  -0.000884
    32  H   -0.024613   0.000037
    33  H    0.050966   0.000507
    34  H   -0.033291   0.001124
    35  H   -0.019068   0.001171
    36  H    0.045096   0.001605
    37  H    0.029094  -0.000197
    38  O   -0.660100   0.001891
    39  O   -0.559044   0.001174
    40  C    0.434649   0.000731
    41  C    0.038582  -0.001452
    42  H   -0.031479   0.000043
    43  H   -0.035540   0.000023
    44  H   -0.007827   0.000065
    45  H    0.027300   0.000038
    46  H    0.029063  -0.000506
 Sum of Mulliken charges =  -0.00000   5.00000

 Dipole moment (field-independent basis, Debye):
    X=             10.0772    Y=             -0.6826    Z=             -1.2004  Tot=             10.1714
 Quadrupole moment (field-independent basis, Debye-Ang):
   XX=           -187.1667   YY=           -169.3990   ZZ=           -167.7762
   XY=            -10.2268   XZ=             11.9224   YZ=              1.3660

 Normal termination of Gaussian 16 at Tue Jun 22 11:01:40 2021.
