 Gaussian 16, Revision A.03,

 -----------------------------------------------------------
 #p opt=modredundant freq=noraman ub3lyp jul-cc-pvdz pop=cm5
 -----------------------------------------------------------

 -----
 title
 -----
 Symbolic Z-matrix:
 Charge =  0 Multiplicity = 6

 SCF Done:  E(UB3LYP) =  -3531.41746991     A.U. after   26 cycles
 SCF Done:  E(UB3LYP) =  -3531.41753743     A.U. after   17 cycles
 SCF Done:  E(UB3LYP) =  -3531.40725935     A.U. after   24 cycles
 SCF Done:  E(UB3LYP) =  -3531.40810539     A.U. after   20 cycles
 SCF Done:  E(UB3LYP) =  -3531.41780793     A.U. after   14 cycles
 SCF Done:  E(UB3LYP) =  -3531.41804960     A.U. after   17 cycles
 SCF Done:  E(UB3LYP) =  -3531.41790440     A.U. after   15 cycles
 SCF Done:  E(UB3LYP) =  -3531.41808820     A.U. after   15 cycles
 SCF Done:  E(UB3LYP) =  -3531.41812488     A.U. after   14 cycles
 SCF Done:  E(UB3LYP) =  -3531.41814118     A.U. after   14 cycles
 SCF Done:  E(UB3LYP) =  -3531.41817728     A.U. after   13 cycles
 SCF Done:  E(UB3LYP) =  -3531.41818007     A.U. after   13 cycles
 SCF Done:  E(UB3LYP) =  -3531.41818140     A.U. after   13 cycles
 SCF Done:  E(UB3LYP) =  -3531.41818159     A.U. after   10 cycles
 SCF Done:  E(UB3LYP) =  -3531.41818172     A.U. after   11 cycles
 SCF Done:  E(UB3LYP) =  -3531.41818189     A.U. after   11 cycles
 SCF Done:  E(UB3LYP) =  -3531.41818199     A.U. after   11 cycles
 Optimization completed.
    -- Stationary point found.
 Normal termination of Gaussian 16 at Sun Jun 20 06:28:44 2021.

 ----------------------------------------------------------------------
 #P Geom=AllCheck Guess=TCheck SCRF=Check GenChk UB3LYP/Jul-CC-pVDZ Fre
 q
 ----------------------------------------------------------------------

 Structure from the checkpoint file:  "checkpoint.chk"
 -----
 title
 -----
 Charge =  0 Multiplicity = 6

 SCF Done:  E(UB3LYP) =  -3531.41818199     A.U. after    1 cycles

  Exact polarizability: 319.257  15.572 301.275  11.025  11.976 293.500
 Approx polarizability: 495.058  39.055 455.938   3.956  22.047 488.978

 ******    2 imaginary frequencies (negative Signs) ******

                      1                      2                      3
                      A                      A                      A
 Frequencies --   -186.8713               -19.4331                14.0942
 Red. masses --      8.4439                 5.6122                 5.8103
 Frc consts  --      0.1737                 0.0012                 0.0007
 IR Inten    --    321.3228                 1.0524                 1.1852

                      4                      5                      6
                      A                      A                      A
 Frequencies --     26.0852                32.9955                52.5994
 Red. masses --      3.8217                 8.6706                 6.2756
 Frc consts  --      0.0015                 0.0056                 0.0102
 IR Inten    --      0.2870                 0.4480                 4.7161

                      7                      8                      9
                      A                      A                      A
 Frequencies --     55.3547                62.7057                69.7884
 Red. masses --      2.8291                 5.6273                 4.6526
 Frc consts  --      0.0051                 0.0130                 0.0134
 IR Inten    --      1.3840                 0.9879                 0.2523

                     10                     11                     12
                      A                      A                      A
 Frequencies --     83.3363                89.0459               100.4611
 Red. masses --     10.7110                 7.3521                 6.8914
 Frc consts  --      0.0438                 0.0343                 0.0410
 IR Inten    --      0.3569                 1.7957                 0.8298

                     13                     14                     15
                      A                      A                      A
 Frequencies --    105.8801               110.3616               117.3307
 Red. masses --      5.5914                 4.9078                 1.6046
 Frc consts  --      0.0369                 0.0352                 0.0130
 IR Inten    --      6.2022                11.8933                 0.2385

                     16                     17                     18
                      A                      A                      A
 Frequencies --    120.3300               131.4229               140.0382
 Red. masses --      3.7976                 6.0467                 1.3070
 Frc consts  --      0.0324                 0.0615                 0.0151
 IR Inten    --      1.7681                 3.6662                 0.5211

                     19                     20                     21
                      A                      A                      A
 Frequencies --    147.6899               158.3420               160.4361
 Red. masses --      2.0009                 4.2327                 2.9336
 Frc consts  --      0.0257                 0.0625                 0.0445
 IR Inten    --      3.8648                 3.9889                 2.2653

                     22                     23                     24
                      A                      A                      A
 Frequencies --    190.7206               208.0627               223.1685
 Red. masses --      3.1114                 3.4535                 4.1071
 Frc consts  --      0.0667                 0.0881                 0.1205
 IR Inten    --      2.1293                 6.3280                18.6801

                     25                     26                     27
                      A                      A                      A
 Frequencies --    243.4614               260.3335               291.8399
 Red. masses --      3.2542                 1.8322                 4.0950
 Frc consts  --      0.1136                 0.0732                 0.2055
 IR Inten    --      5.7732                 3.3368                 2.4719

                     28                     29                     30
                      A                      A                      A
 Frequencies --    315.6709               321.9956               346.1704
 Red. masses --      2.4095                 7.8889                15.2048
 Frc consts  --      0.1415                 0.4819                 1.0735
 IR Inten    --      3.7128                 1.0523                46.6951

                     31                     32                     33
                      A                      A                      A
 Frequencies --    356.0837               369.2011               381.9191
 Red. masses --      6.3206                 4.1371                33.4104
 Frc consts  --      0.4722                 0.3323                 2.8713
 IR Inten    --     15.3132                11.0285                86.9955

                     34                     35                     36
                      A                      A                      A
 Frequencies --    391.5933               403.8081               412.6402
 Red. masses --     31.1810                 2.8712                 2.8872
 Frc consts  --      2.8172                 0.2758                 0.2896
 IR Inten    --     76.6096                 5.5103                 0.5368

                     37                     38                     39
                      A                      A                      A
 Frequencies --    437.1403               450.5144               482.9408
 Red. masses --      3.7874                 4.4219                 2.2680
 Frc consts  --      0.4264                 0.5288                 0.3117
 IR Inten    --     29.7676                 5.3179                 8.9337

                     40                     41                     42
                      A                      A                      A
 Frequencies --    505.5232               532.0044               546.3955
 Red. masses --      2.8245                 3.2220                 3.2421
 Frc consts  --      0.4253                 0.5373                 0.5703
 IR Inten    --      3.2826                 1.3281                32.6733

                     43                     44                     45
                      A                      A                      A
 Frequencies --    610.7652               626.2250               641.5560
 Red. masses --      4.8997                 6.2029                 4.0197
 Frc consts  --      1.0769                 1.4332                 0.9748
 IR Inten    --     31.8694                10.4060               129.9912

                     46                     47                     48
                      A                      A                      A
 Frequencies --    698.8753               703.2636               756.3845
 Red. masses --      1.7166                 4.9920                 4.2512
 Frc consts  --      0.4940                 1.4547                 1.4330
 IR Inten    --     41.8373                40.4372                 5.6436

                     49                     50                     51
                      A                      A                      A
 Frequencies --    766.0348               800.9363               812.0837
 Red. masses --      2.3952                 1.5115                 2.0017
 Frc consts  --      0.8281                 0.5713                 0.7778
 IR Inten    --     10.5798                17.1529                14.3422

                     52                     53                     54
                      A                      A                      A
 Frequencies --    821.2476               844.2533               865.0450
 Red. masses --      2.9864                 1.2587                 2.4397
 Frc consts  --      1.1867                 0.5286                 1.0757
 IR Inten    --     17.5214                 1.7658                14.3040

                     55                     56                     57
                      A                      A                      A
 Frequencies --    875.9848               896.1298               924.9739
 Red. masses --      1.6434                 1.7158                 2.1855
 Frc consts  --      0.7430                 0.8118                 1.1017
 IR Inten    --     20.7779                 4.2249                17.2269

                     58                     59                     60
                      A                      A                      A
 Frequencies --    938.1523               962.5319               962.9161
 Red. masses --      1.4396                 1.4589                 2.5469
 Frc consts  --      0.7465                 0.7963                 1.3913
 IR Inten    --      1.0096                 6.1299                11.0089

                     61                     62                     63
                      A                      A                      A
 Frequencies --    985.2686               989.9768              1000.9258
 Red. masses --      1.4204                 3.0480                 1.8110
 Frc consts  --      0.8124                 1.7600                 1.0690
 IR Inten    --      1.2426                53.3283                 0.6966

                     64                     65                     66
                      A                      A                      A
 Frequencies --   1006.0517              1007.9303              1008.9403
 Red. masses --      1.5194                 2.2904                 1.5963
 Frc consts  --      0.9061                 1.3709                 0.9574
 IR Inten    --      3.8728                 1.1613                37.4016

                     67                     68                     69
                      A                      A                      A
 Frequencies --   1038.3398              1046.9648              1064.9731
 Red. masses --      2.8159                 2.3930                 2.2389
 Frc consts  --      1.7887                 1.5455                 1.4961
 IR Inten    --     38.7898                 5.6959                 1.7838

                     70                     71                     72
                      A                      A                      A
 Frequencies --   1073.9312              1093.8149              1109.2047
 Red. masses --      1.8487                 1.6604                 1.5697
 Frc consts  --      1.2563                 1.1705                 1.1379
 IR Inten    --     11.5257                13.6939                11.0787

                     73                     74                     75
                      A                      A                      A
 Frequencies --   1132.3177              1135.6741              1161.8283
 Red. masses --      2.2195                 2.3806                 1.7212
 Frc consts  --      1.6766                 1.8091                 1.3688
 IR Inten    --     12.0098                 6.3594                35.3686

                     76                     77                     78
                      A                      A                      A
 Frequencies --   1169.9027              1175.3233              1194.3574
 Red. masses --      1.5738                 1.0895                 1.6580
 Frc consts  --      1.2691                 0.8868                 1.3935
 IR Inten    --      5.7006                 0.6035                64.4002

                     79                     80                     81
                      A                      A                      A
 Frequencies --   1202.0119              1212.1015              1230.2479
 Red. masses --      1.3210                 2.6605                 1.9684
 Frc consts  --      1.1246                 2.3030                 1.7553
 IR Inten    --     12.2057                30.0065               165.5737

                     82                     83                     84
                      A                      A                      A
 Frequencies --   1261.6429              1281.3111              1288.2404
 Red. masses --      1.8286                 1.5655                 1.4170
 Frc consts  --      1.7149                 1.5143                 1.3855
 IR Inten    --     32.0177               221.9178               156.7819

                     85                     86                     87
                      A                      A                      A
 Frequencies --   1322.3669              1325.4171              1331.8421
 Red. masses --      1.5213                 1.4262                 1.7026
 Frc consts  --      1.5674                 1.4762                 1.7794
 IR Inten    --     67.6625                17.4886                24.1482

                     88                     89                     90
                      A                      A                      A
 Frequencies --   1353.3944              1359.6556              1364.7577
 Red. masses --      1.5841                 3.6226                 1.4191
 Frc consts  --      1.7095                 3.9458                 1.5573
 IR Inten    --    123.8461                 2.1044                36.6387

                     91                     92                     93
                      A                      A                      A
 Frequencies --   1373.2519              1385.0940              1387.8276
 Red. masses --      1.3344                 1.3325                 1.3789
 Frc consts  --      1.4827                 1.5062                 1.5648
 IR Inten    --     91.6301                10.5935                91.1996

                     94                     95                     96
                      A                      A                      A
 Frequencies --   1409.3881              1416.9379              1440.8019
 Red. masses --      1.7846                 1.4513                 1.0673
 Frc consts  --      2.0886                 1.7168                 1.3054
 IR Inten    --    114.3882                 0.6915                12.1676

                     97                     98                     99
                      A                      A                      A
 Frequencies --   1453.7030              1470.5474              1473.0066
 Red. masses --      1.0683                 2.0420                 1.0389
 Frc consts  --      1.3301                 2.6018                 1.3281
 IR Inten    --      5.8450                21.9941                 5.6739

                    100                    101                    102
                      A                      A                      A
 Frequencies --   1475.1108              1479.4801              1488.2601
 Red. masses --      1.1596                 1.1242                 1.0541
 Frc consts  --      1.4866                 1.4498                 1.3756
 IR Inten    --     27.7452                18.7863                 4.3969

                    103                    104                    105
                      A                      A                      A
 Frequencies --   1495.5533              1500.1592              1507.1223
 Red. masses --      1.1240                 1.1537                 1.0849
 Frc consts  --      1.4812                 1.5298                 1.4519
 IR Inten    --     20.5851                11.1269                 7.5514

                    106                    107                    108
                      A                      A                      A
 Frequencies --   1515.5155              1609.8558              1621.1158
 Red. masses --      1.9826                 4.4390                 5.4848
 Frc consts  --      2.6829                 6.7782                 8.4925
 IR Inten    --      2.7632               133.2976                16.7261

                    109                    110                    111
                      A                      A                      A
 Frequencies --   1639.5532              1763.4460              3009.0979
 Red. masses --      5.6710                11.6387                 1.0487
 Frc consts  --      8.9817                21.3245                 5.5946
 IR Inten    --     12.0446               232.4714                 5.2678

                    112                    113                    114
                      A                      A                      A
 Frequencies --   3021.5222              3041.6050              3049.0433
 Red. masses --      1.0422                 1.0361                 1.0648
 Frc consts  --      5.6057                 5.6476                 5.8322
 IR Inten    --      2.4844                19.3960                21.4973

                    115                    116                    117
                      A                      A                      A
 Frequencies --   3059.1107              3068.0672              3074.5397
 Red. masses --      1.0596                 1.0640                 1.0825
 Frc consts  --      5.8420                 5.9011                 6.0289
 IR Inten    --     16.0553                21.1195                 3.1215

                    118                    119                    120
                      A                      A                      A
 Frequencies --   3078.2242              3091.2540              3101.8657
 Red. masses --      1.0935                 1.0864                 1.1008
 Frc consts  --      6.1050                 6.1164                 6.2401
 IR Inten    --      2.3290                 9.9560                 5.0436

                    121                    122                    123
                      A                      A                      A
 Frequencies --   3108.0744              3117.3308              3119.0228
 Red. masses --      1.1055                 1.1021                 1.1027
 Frc consts  --      6.2920                 6.3098                 6.3205
 IR Inten    --      9.9181                16.8490                15.3906

                    124                    125                    126
                      A                      A                      A
 Frequencies --   3139.9006              3151.1653              3167.6888
 Red. masses --      1.1042                 1.1014                 1.0990
 Frc consts  --      6.4139                 6.4436                 6.4976
 IR Inten    --     13.9419                 7.2289                 5.0977

                    127                    128                    129
                      A                      A                      A
 Frequencies --   3171.4105              3172.4823              3184.4043
 Red. masses --      1.0876                 1.0858                 1.0907
 Frc consts  --      6.4451                 6.4386                 6.5163
 IR Inten    --      8.9460                 1.1676                 7.1576

                    130                    131                    132
                      A                      A                      A
 Frequencies --   3194.8083              3214.4801              3225.5072
 Red. masses --      1.0964                 1.0929                 1.0923
 Frc consts  --      6.5934                 6.6534                 6.6953
 IR Inten    --     14.5147                 2.3636                 2.5781

 - Thermochemistry -
 -------------------
 Temperature   298.150 Kelvin.  Pressure   1.00000 Atm.
 Atom     1 has atomic number  6 and mass  12.00000

 Molecular mass:   434.99839 amu.
 Principal axes and moments of inertia in atomic units:
                           1         2         3
     Eigenvalues --  9053.49408********************
           X            0.99962   0.02164   0.01737
           Y           -0.02196   0.99958   0.01897
           Z           -0.01695  -0.01935   0.99967
 This molecule is an asymmetric top.
 Rotational symmetry number  1.
 Warning -- assumption of classical behavior for rotation
           may cause significant error
 Rotational temperatures (Kelvin)      0.00957     0.00786     0.00670
 Rotational constants (GHZ):           0.19934     0.16381     0.13965
    2 imaginary frequencies ignored.
 Zero-point vibrational energy     941173.3 (Joules/Mol)
                                  224.94583 (Kcal/Mol)
 Warning -- explicit consideration of  41 degrees of freedom as
           vibrations may cause significant error
 Vibrational temperatures:     20.28    37.53    47.47    75.68    79.64
          (Kelvin)             90.22   100.41   119.90   128.12   144.54
                              152.34   158.79   168.81   173.13   189.09
                              201.48   212.49   227.82   230.83   274.40
                              299.36   321.09   350.29   374.56   419.89
                              454.18   463.28   498.06   512.33   531.20
                              549.50   563.42   580.99   593.70   628.95
                              648.19   694.84   727.34   765.44   786.14
                              878.75   901.00   923.06  1005.53  1011.84
                             1088.27  1102.15  1152.37  1168.41  1181.59
                             1214.69  1244.61  1260.35  1289.33  1330.83
                             1349.79  1384.87  1385.42  1417.58  1424.36
                             1440.11  1447.48  1450.19  1451.64  1493.94
                             1506.35  1532.26  1545.15  1573.76  1595.90
                             1629.15  1633.98  1671.61  1683.23  1691.03
                             1718.41  1729.43  1743.94  1770.05  1815.22
                             1843.52  1853.49  1902.59  1906.98  1916.22
                             1947.23  1956.24  1963.58  1975.80  1992.84
                             1996.77  2027.80  2038.66  2072.99  2091.55
                             2115.79  2119.33  2122.36  2128.64  2141.27
                             2151.77  2158.39  2168.41  2180.49  2316.22
                             2332.42  2358.95  2537.21  4329.42  4347.30
                             4376.19  4386.89  4401.38  4414.26  4423.58
                             4428.88  4447.63  4462.89  4471.83  4485.14
                             4487.58  4517.62  4533.82  4557.60  4562.95
                             4564.49  4581.65  4596.62  4624.92  4640.79

 Zero-point correction=                           0.358474 (Hartree/Particle)
 Thermal correction to Energy=                    0.385351
 Thermal correction to Enthalpy=                  0.386295
 Thermal correction to Gibbs Free Energy=         0.296745
 Sum of electronic and zero-point Energies=          -3531.059708
 Sum of electronic and thermal Energies=             -3531.032831
 Sum of electronic and thermal Enthalpies=           -3531.031887
 Sum of electronic and thermal Free Energies=        -3531.121437

                     E (Thermal)             CV                S
                      KCal/Mol        Cal/Mol-Kelvin    Cal/Mol-Kelvin
 Total                  241.811             95.875            188.473
 Electronic               0.000              0.000              3.561
 Translational            0.889              2.981             44.100
 Rotational               0.889              2.981             35.509
 Vibrational            240.034             89.913            105.302
 Vibration     1          0.593              1.986              7.329
 Vibration     2          0.593              1.985              6.107
 Vibration     3          0.594              1.983              5.641
 Vibration     4          0.596              1.977              4.717
 Vibration     5          0.596              1.975              4.616
 Vibration     6          0.597              1.972              4.370
 Vibration     7          0.598              1.969              4.159
 Vibration     8          0.600              1.961              3.811
 Vibration     9          0.602              1.957              3.681
 Vibration    10          0.604              1.949              3.445
 Vibration    11          0.605              1.945              3.343
 Vibration    12          0.606              1.941              3.263
 Vibration    13          0.608              1.935              3.144
 Vibration    14          0.609              1.932              3.095
 Vibration    15          0.612              1.922              2.925
 Vibration    16          0.615              1.913              2.803
 Vibration    17          0.617              1.905              2.702
 Vibration    18          0.621              1.893              2.570
 Vibration    19          0.622              1.891              2.545
 Vibration    20          0.634              1.853              2.221
 Vibration    21          0.641              1.828              2.061
 Vibration    22          0.649              1.806              1.933
 Vibration    23          0.659              1.774              1.777
 Vibration    24          0.668              1.745              1.660
 Vibration    25          0.687              1.689              1.463
 Vibration    26          0.703              1.644              1.332
 Vibration    27          0.707              1.631              1.300
 Vibration    28          0.724              1.583              1.184
 Vibration    29          0.732              1.563              1.139
 Vibration    30          0.741              1.536              1.083
 Vibration    31          0.751              1.509              1.032
 Vibration    32          0.759              1.488              0.994
 Vibration    33          0.769              1.462              0.949
 Vibration    34          0.776              1.443              0.917
 Vibration    35          0.797              1.389              0.836
 Vibration    36          0.809              1.360              0.794
 Vibration    37          0.839              1.288              0.702
 Vibration    38          0.861              1.238              0.644
 Vibration    39          0.887              1.179              0.583
 Vibration    40          0.902              1.148              0.552
 Vibration    41          0.970              1.009              0.432

                           ! Non-Optimized Parameters !
 Normal termination of Gaussian 16 at Sun Jun 20 10:28:48 2021.

 ----------------------------------------------------------------------
 #p ub3lyp jul-cc-pvdz pop=cm5 scrf=(pcm,solvent=dichloroethane) guess=
 read geom=allcheck
 ----------------------------------------------------------------------

 Structure from the checkpoint file:  "checkpoint.chk"
 -----
 title
 -----
 Charge =  0 Multiplicity = 6

 SCF Done:  E(UB3LYP) =  -3531.44016970     A.U. after   19 cycles
 Normal termination of Gaussian 16 at Sun Jun 20 10:55:48 2021.
 Gaussian 16:  ES64L-G16RevA.03 25-Dec-2016

 ----------------------------------------------------------------------
 #p ub3lyp jul-cc-pvdz pop=cm5 scrf=(pcm,solvent=water) guess=read geom
 =allcheck
 ----------------------------------------------------------------------

 Structure from the checkpoint file:  "checkpoint.chk"
 -----
 title
 -----
 Charge =  0 Multiplicity = 6

                         Standard orientation:
 ---------------------------------------------------------------------
 Center     Atomic      Atomic             Coordinates (Angstroms)
 Number     Number       Type             X           Y           Z
 ---------------------------------------------------------------------
      1          6           0        3.157472   -0.646436    0.415144
      2          6           0        1.778300   -0.637615    0.700513
      3          6           0        1.367824   -0.545498    2.041877
      4          6           0        2.310132   -0.477753    3.071052
      5          6           0        3.675299   -0.501102    2.777142
      6          6           0        4.095438   -0.579957    1.443282
      7          6           0        0.724261   -0.671843   -0.380638
      8          6           0        0.958152    0.173458   -1.687278
      9          6           0        1.651423   -0.623098   -2.794013
     10          6           0        1.046398   -2.027817   -2.730297
     11          6           0        1.065441   -2.428782   -1.273256
     12          6           0        0.031768   -3.041023   -0.588296
     13          6           0       -1.358044   -3.134602   -1.105289
     14          8           0       -0.505330   -0.686474    0.057942
     15         26           0       -2.134942    0.291316    0.349135
     16         17           0       -2.785423    1.072129   -1.623602
     17          6           0        0.257726   -3.611425    0.768285
     18         17           0       -1.775507    1.845149    1.880515
     19         17           0       -3.548459   -1.228173    1.155000
     20          1           0        0.306727   -0.491159    2.272875
     21          1           0        1.971310   -0.396135    4.104515
     22          1           0        4.411665   -0.447119    3.580501
     23          1           0        5.159224   -0.581428    1.202757
     24          1           0        3.510664   -0.689334   -0.612953
     25          1           0       -0.059902    0.431357   -2.006477
     26          6           0        1.680446    1.490594   -1.389657
     27          1           0        1.493625   -0.144011   -3.768944
     28          1           0        2.735713   -0.649207   -2.627228
     29          1           0        0.026666   -2.020259   -3.133623
     30          1           0        1.627024   -2.746343   -3.327075
     31          1           0        2.063042   -2.616914   -0.877302
     32          1           0        1.314252   -3.651698    1.050675
     33          1           0       -0.296203   -3.003298    1.502918
     34          1           0       -0.176985   -4.621331    0.822423
     35          1           0       -1.511944   -4.173817   -1.447679
     36          1           0       -2.088599   -2.949146   -0.306847
     37          1           0       -1.565063   -2.467836   -1.946092
     38          8           0        0.864166    2.356648   -0.781075
     39          8           0        2.832647    1.721746   -1.694348
     40          6           0        1.421414    3.664486   -0.451398
     41          6           0        0.275066    4.569157   -0.050787
     42          1           0        2.145690    3.521227    0.362593
     43          1           0        1.964111    4.034472   -1.330481
     44          1           0        0.676137    5.556067    0.222543
     45          1           0       -0.430514    4.698962   -0.882680
     46          1           0       -0.271486    4.158137    0.807094
 ---------------------------------------------------------------------

 SCF Done:  E(UB3LYP) =  -3531.44429092     A.U. after   17 cycles

 The electronic state is 6-A.
 Alpha  occ. eigenvalues -- -256.20500-101.52149-101.52048-101.51973 -30.19906
 Alpha  occ. eigenvalues --  -26.05233 -26.05140 -26.05034 -19.20560 -19.16780
 Alpha  occ. eigenvalues --  -19.15483 -10.33285 -10.32389 -10.27045 -10.24873
 Alpha  occ. eigenvalues --  -10.22466 -10.21928 -10.21896 -10.20939 -10.20818
 Alpha  occ. eigenvalues --  -10.20731 -10.20580 -10.20465 -10.20421 -10.20303
 Alpha  occ. eigenvalues --  -10.20119 -10.20115 -10.18493  -9.43869  -9.43782
 Alpha  occ. eigenvalues --   -9.43700  -7.19734  -7.19649  -7.19570  -7.19416
 Alpha  occ. eigenvalues --   -7.19411  -7.19329  -7.19319  -7.19244  -7.19232
 Alpha  occ. eigenvalues --   -3.67593  -2.45141  -2.44925  -2.44741  -1.12418
 Alpha  occ. eigenvalues --   -1.06666  -1.03881  -0.88038  -0.86996  -0.83705
 Alpha  occ. eigenvalues --   -0.80099  -0.79395  -0.79280  -0.78844  -0.78111
 Alpha  occ. eigenvalues --   -0.76416  -0.75138  -0.72440  -0.71075  -0.66572
 Alpha  occ. eigenvalues --   -0.64524  -0.62316  -0.61652  -0.59532  -0.57350
 Alpha  occ. eigenvalues --   -0.56146  -0.54484  -0.52999  -0.51518  -0.50535
 Alpha  occ. eigenvalues --   -0.49881  -0.49352  -0.48865  -0.48077  -0.47861
 Alpha  occ. eigenvalues --   -0.47772  -0.47572  -0.46916  -0.46776  -0.46049
 Alpha  occ. eigenvalues --   -0.44987  -0.44728  -0.43722  -0.43370  -0.42675
 Alpha  occ. eigenvalues --   -0.42451  -0.41178  -0.40635  -0.40479  -0.40033
 Alpha  occ. eigenvalues --   -0.39518  -0.38737  -0.38065  -0.37614  -0.37469
 Alpha  occ. eigenvalues --   -0.37196  -0.36836  -0.36144  -0.35927  -0.35772
 Alpha  occ. eigenvalues --   -0.34754  -0.34335  -0.33815  -0.32084  -0.31877
 Alpha  occ. eigenvalues --   -0.30986  -0.30914  -0.30626  -0.30262  -0.29912
 Alpha  occ. eigenvalues --   -0.29584  -0.29005  -0.28319  -0.27173  -0.26143
 Alpha virt. eigenvalues --   -0.11427  -0.03342  -0.02903  -0.01579  -0.01201
 Alpha virt. eigenvalues --   -0.00168  -0.00008   0.00024   0.01464   0.01604
 Alpha virt. eigenvalues --    0.01823   0.01962   0.02502   0.03389   0.03646

  Beta  occ. eigenvalues -- -256.20315-101.51971-101.51868-101.51801 -30.10954
  Beta  occ. eigenvalues --  -25.97708 -25.97680 -25.97636 -19.20560 -19.16209
  Beta  occ. eigenvalues --  -19.15481 -10.33286 -10.32388 -10.27013 -10.24873
  Beta  occ. eigenvalues --  -10.22451 -10.21907 -10.21858 -10.20940 -10.20821
  Beta  occ. eigenvalues --  -10.20736 -10.20577 -10.20463 -10.20422 -10.20304
  Beta  occ. eigenvalues --  -10.20117 -10.20116 -10.18492  -9.43695  -9.43605
  Beta  occ. eigenvalues --   -9.43531  -7.19438  -7.19352  -7.19274  -7.19181
  Beta  occ. eigenvalues --   -7.19174  -7.19088  -7.19076  -7.19016  -7.19011
  Beta  occ. eigenvalues --   -3.46724  -2.23008  -2.22941  -2.22878  -1.12416
  Beta  occ. eigenvalues --   -1.05562  -1.03878  -0.87943  -0.86936  -0.83653
  Beta  occ. eigenvalues --   -0.78962  -0.78845  -0.78168  -0.78082  -0.77987
  Beta  occ. eigenvalues --   -0.76412  -0.75106  -0.72425  -0.70968  -0.66425
  Beta  occ. eigenvalues --   -0.64446  -0.62279  -0.61596  -0.59149  -0.57099
  Beta  occ. eigenvalues --   -0.55744  -0.54381  -0.52063  -0.51474  -0.50266
  Beta  occ. eigenvalues --   -0.49842  -0.48704  -0.48301  -0.47768  -0.47116
  Beta  occ. eigenvalues --   -0.45889  -0.44838  -0.43709  -0.43403  -0.42708
  Beta  occ. eigenvalues --   -0.42404  -0.41171  -0.40602  -0.40477  -0.40041
  Beta  occ. eigenvalues --   -0.39530  -0.38647  -0.38039  -0.37826  -0.37488
  Beta  occ. eigenvalues --   -0.37265  -0.36894  -0.36182  -0.35962  -0.35834
  Beta  occ. eigenvalues --   -0.35689  -0.35640  -0.34657  -0.33123  -0.32962
  Beta  occ. eigenvalues --   -0.32425  -0.32181  -0.31942  -0.31294  -0.30098
  Beta  occ. eigenvalues --   -0.29480  -0.28990  -0.28403  -0.27173  -0.26095
  Beta virt. eigenvalues --   -0.14396  -0.14015  -0.13206  -0.12940  -0.12538
  Beta virt. eigenvalues --   -0.10669  -0.03285  -0.02891  -0.01498  -0.01148
  Beta virt. eigenvalues --   -0.00127   0.00021   0.00055   0.01479   0.01629

 Mulliken charges and spin densities:
               1          2
     1  C    0.089550  -0.001185
     2  C    2.814751   0.007352
     3  C   -0.499759  -0.011972
     4  C    0.052408   0.005549
     5  C    0.254863  -0.002326
     6  C   -0.064424   0.002795
     7  C   -2.414303  -0.002606
     8  C    0.439974   0.008521
     9  C    0.597377   0.001814
    10  C    0.709461  -0.000517
    11  C    0.535010   0.017597
    12  C   -0.299554   0.020019
    13  C    0.239944   0.000853
    14  O   -0.355223   0.171181
    15  Fe   0.633019   4.061192
    16  Cl  -0.520400   0.234162
    17  C    0.336677  -0.000724
    18  Cl  -0.480773   0.245110
    19  Cl  -0.507258   0.235573
    20  H   -0.234242   0.001922
    21  H   -0.159813  -0.000007
    22  H   -0.157095   0.000039
    23  H   -0.157283   0.000173
    24  H   -0.220586  -0.000096
    25  H   -0.199475   0.000090
    26  C    0.812978  -0.001635
    27  H   -0.153850   0.000344
    28  H   -0.026442  -0.000057
    29  H   -0.091044   0.000047
    30  H   -0.121610   0.000945
    31  H   -0.232443  -0.000859
    32  H    0.005216   0.000048
    33  H    0.109852   0.000737
    34  H   -0.003787   0.000767
    35  H    0.029291   0.000751
    36  H    0.076105   0.001322
    37  H    0.047741  -0.000022
    38  O   -0.682949   0.002505
    39  O   -0.644613   0.000988
    40  C    0.426620   0.000878
    41  C    0.042183  -0.001092
    42  H   -0.035145   0.000045
    43  H   -0.036542   0.000024
    44  H   -0.006829   0.000028
    45  H    0.023679   0.000055
    46  H    0.028740  -0.000330
 Sum of Mulliken charges =  -0.00000   5.00000

 Dipole moment (field-independent basis, Debye):
    X=              9.8359    Y=             -8.3068    Z=             -2.4099  Tot=             13.0979
 Quadrupole moment (field-independent basis, Debye-Ang):
   XX=           -200.1825   YY=           -150.6635   ZZ=           -171.6095
   XY=             -0.7747   XZ=             11.6163   YZ=              6.7386

 Normal termination of Gaussian 16 at Sun Jun 20 11:19:43 2021.
