 Gaussian 16, Revision A.03,

 -----------------------------------------------------------
 #p opt=modredundant freq=noraman ub3lyp jul-cc-pvdz pop=cm5
 -----------------------------------------------------------

 -----
 title
 -----
 Symbolic Z-matrix:
 Charge =  0 Multiplicity = 6

 SCF Done:  E(UB3LYP) =  -3531.42832943     A.U. after   26 cycles
 SCF Done:  E(UB3LYP) =  -3531.42753611     A.U. after   17 cycles
 SCF Done:  E(UB3LYP) =  -3531.42638590     A.U. after   18 cycles
 SCF Done:  E(UB3LYP) =  -3531.42603194     A.U. after   18 cycles
 SCF Done:  E(UB3LYP) =  -3531.42852337     A.U. after   12 cycles
 SCF Done:  E(UB3LYP) =  -3531.42817001     A.U. after   17 cycles
 SCF Done:  E(UB3LYP) =  -3531.42873670     A.U. after   17 cycles
 SCF Done:  E(UB3LYP) =  -3531.42888781     A.U. after   15 cycles
 SCF Done:  E(UB3LYP) =  -3531.42898406     A.U. after   15 cycles
 SCF Done:  E(UB3LYP) =  -3531.42897921     A.U. after   15 cycles
 SCF Done:  E(UB3LYP) =  -3531.42902073     A.U. after   12 cycles
 SCF Done:  E(UB3LYP) =  -3531.42902174     A.U. after   13 cycles
 SCF Done:  E(UB3LYP) =  -3531.42902230     A.U. after   12 cycles
 SCF Done:  E(UB3LYP) =  -3531.42902283     A.U. after   12 cycles
 SCF Done:  E(UB3LYP) =  -3531.42902299     A.U. after   12 cycles
 SCF Done:  E(UB3LYP) =  -3531.42902307     A.U. after   10 cycles
 SCF Done:  E(UB3LYP) =  -3531.42902299     A.U. after    9 cycles
 Optimization completed.
    -- Stationary point found.
 Normal termination of Gaussian 16 at Sun Jun 20 08:03:50 2021.

 ----------------------------------------------------------------------
 #P Geom=AllCheck Guess=TCheck SCRF=Check GenChk UB3LYP/Jul-CC-pVDZ Fre
 q
 ----------------------------------------------------------------------

 Structure from the checkpoint file:  "checkpoint.chk"
 -----
 title
 -----
 Charge =  0 Multiplicity = 6

 SCF Done:  E(UB3LYP) =  -3531.42902299     A.U. after    2 cycles

  Exact polarizability: 316.844  15.081 305.875  12.002  10.198 297.587
 Approx polarizability: 489.289  44.243 464.119   6.908  13.135 496.344

 ******    1 imaginary frequencies (negative Signs) ******

                      1                      2                      3
                      A                      A                      A
 Frequencies --    -18.7817                15.5241                26.4304
 Red. masses --      6.1703                 5.5690                 4.2828
 Frc consts  --      0.0013                 0.0008                 0.0018
 IR Inten    --      0.8187                 0.3558                 0.5019

                      4                      5                      6
                      A                      A                      A
 Frequencies --     30.0869                44.2017                52.0000
 Red. masses --      9.2449                 3.8341                 4.3251
 Frc consts  --      0.0049                 0.0044                 0.0069
 IR Inten    --      0.4159                 5.2944                 1.7705

                      7                      8                      9
                      A                      A                      A
 Frequencies --     60.8669                67.2376                80.5032
 Red. masses --      4.6571                 4.7023                 9.3215
 Frc consts  --      0.0102                 0.0125                 0.0356
 IR Inten    --      0.5040                 3.0398                 1.7806

                     10                     11                     12
                      A                      A                      A
 Frequencies --     87.1643                95.3974               100.6106
 Red. masses --      7.0131                 8.7815                 4.2890
 Frc consts  --      0.0314                 0.0471                 0.0256
 IR Inten    --      0.8531                 3.2316                 5.8060

                     13                     14                     15
                      A                      A                      A
 Frequencies --    104.1958               108.4102               117.7323
 Red. masses --      4.4580                 1.6010                12.6295
 Frc consts  --      0.0285                 0.0111                 0.1031
 IR Inten    --      0.8536                 5.4676                 4.5263

                     16                     17                     18
                      A                      A                      A
 Frequencies --    127.7403               138.0300               147.4630
 Red. masses --      7.0651                 3.0324                 3.8669
 Frc consts  --      0.0679                 0.0340                 0.0495
 IR Inten    --      3.0411                22.8423                 3.2838

                     19                     20                     21
                      A                      A                      A
 Frequencies --    153.1943               159.3096               170.3975
 Red. masses --      2.4908                 2.9826                 1.3458
 Frc consts  --      0.0344                 0.0446                 0.0230
 IR Inten    --      5.0652                68.1797                 1.1069

                     22                     23                     24
                      A                      A                      A
 Frequencies --    198.7528               207.3143               228.7697
 Red. masses --      3.0368                 2.6361                 4.0976
 Frc consts  --      0.0707                 0.0668                 0.1264
 IR Inten    --      0.1999                11.6880                27.9867

                     25                     26                     27
                      A                      A                      A
 Frequencies --    240.0496               259.5071               293.3441
 Red. masses --      4.1138                 1.7235                 3.9768
 Frc consts  --      0.1397                 0.0684                 0.2016
 IR Inten    --     79.6297                 2.9462                 2.1698

                     28                     29                     30
                      A                      A                      A
 Frequencies --    314.2147               320.3227               346.0640
 Red. masses --      2.4291                 7.5476                18.2569
 Frc consts  --      0.1413                 0.4563                 1.2882
 IR Inten    --      3.7135                 1.3164                50.7800

                     31                     32                     33
                      A                      A                      A
 Frequencies --    355.3484               374.0450               390.0201
 Red. masses --      5.3197                 4.6556                30.6660
 Frc consts  --      0.3958                 0.3838                 2.7484
 IR Inten    --      4.7365                17.0350                88.0596

                     34                     35                     36
                      A                      A                      A
 Frequencies --    396.3706               400.9541               411.5836
 Red. masses --     16.5742                 2.9501                 2.8810
 Frc consts  --      1.5342                 0.2794                 0.2876
 IR Inten    --     70.6679                10.3176                 0.9552

                     37                     38                     39
                      A                      A                      A
 Frequencies --    429.6668               454.6636               482.2317
 Red. masses --      3.7898                 3.9507                 2.5622
 Frc consts  --      0.4122                 0.4812                 0.3510
 IR Inten    --     41.8467                 2.5448                 9.6218

                     40                     41                     42
                      A                      A                      A
 Frequencies --    505.8976               524.1710               543.9223
 Red. masses --      2.8144                 3.3291                 3.2930
 Frc consts  --      0.4244                 0.5389                 0.5740
 IR Inten    --      5.1112                 3.3979                31.2702

                     43                     44                     45
                      A                      A                      A
 Frequencies --    596.6054               625.0587               642.2887
 Red. masses --      4.7036                 6.1270                 4.0030
 Frc consts  --      0.9864                 1.4104                 0.9730
 IR Inten    --     71.3977                10.9856               108.5746

                     46                     47                     48
                      A                      A                      A
 Frequencies --    694.7026               701.1590               753.9985
 Red. masses --      1.6324                 6.1781                 4.3883
 Frc consts  --      0.4642                 1.7895                 1.4699
 IR Inten    --     58.9268                17.2252                 5.4988

                     49                     50                     51
                      A                      A                      A
 Frequencies --    766.6156               799.4057               807.1977
 Red. masses --      2.3352                 1.7649                 1.6829
 Frc consts  --      0.8086                 0.6645                 0.6461
 IR Inten    --     14.6463                19.2064                 4.0978

                     52                     53                     54
                      A                      A                      A
 Frequencies --    820.7961               843.3223               863.3983
 Red. masses --      2.9605                 1.2585                 2.2366
 Frc consts  --      1.1751                 0.5273                 0.9824
 IR Inten    --     17.9305                 1.4591                 9.0466

                     55                     56                     57
                      A                      A                      A
 Frequencies --    871.3910               903.4003               925.9627
 Red. masses --      1.7324                 1.8041                 1.9317
 Frc consts  --      0.7750                 0.8675                 0.9758
 IR Inten    --     33.0099                 6.4708                17.2034

                     58                     59                     60
                      A                      A                      A
 Frequencies --    941.3212               958.1320               967.5724
 Red. masses --      1.4200                 1.4250                 2.9794
 Frc consts  --      0.7413                 0.7707                 1.6434
 IR Inten    --      0.2140                 4.6700                19.8460

                     61                     62                     63
                      A                      A                      A
 Frequencies --    986.0620               988.0842               995.5841
 Red. masses --      1.6438                 2.0494                 1.3115
 Frc consts  --      0.9417                 1.1789                 0.7659
 IR Inten    --      7.1455                47.7774                10.5416

                     64                     65                     66
                      A                      A                      A
 Frequencies --   1002.2463              1007.7146              1013.7425
 Red. masses --      2.1598                 2.0425                 1.9673
 Frc consts  --      1.2783                 1.2221                 1.1911
 IR Inten    --      0.6219                 2.1901                10.2358

                     67                     68                     69
                      A                      A                      A
 Frequencies --   1037.3848              1047.4801              1070.1730
 Red. masses --      2.7123                 2.3663                 2.2769
 Frc consts  --      1.7198                 1.5297                 1.5364
 IR Inten    --     42.2677                 3.7815                 1.9177

                     70                     71                     72
                      A                      A                      A
 Frequencies --   1083.6206              1096.0759              1111.0488
 Red. masses --      1.8213                 1.7794                 1.5652
 Frc consts  --      1.2600                 1.2595                 1.1384
 IR Inten    --      4.0490                13.8655                 9.6273

                     73                     74                     75
                      A                      A                      A
 Frequencies --   1132.6376              1138.1747              1162.3686
 Red. masses --      2.1431                 2.3359                 1.6905
 Frc consts  --      1.6199                 1.7829                 1.3457
 IR Inten    --     13.2704                 6.0653                56.2529

                     76                     77                     78
                      A                      A                      A
 Frequencies --   1170.7332              1176.2280              1197.7980
 Red. masses --      1.5683                 1.0894                 1.5003
 Frc consts  --      1.2665                 0.8880                 1.2682
 IR Inten    --      3.4721                 1.2092                54.8821

                     79                     80                     81
                      A                      A                      A
 Frequencies --   1204.9886              1224.6403              1242.1422
 Red. masses --      1.2735                 2.5743                 2.2993
 Frc consts  --      1.0894                 2.2747                 2.0902
 IR Inten    --     24.1535               139.4056                79.3427

                     82                     83                     84
                      A                      A                      A
 Frequencies --   1258.6845              1285.2759              1316.2746
 Red. masses --      1.9571                 1.1119                 1.5792
 Frc consts  --      1.8268                 1.0822                 1.6121
 IR Inten    --     33.5097                 1.0929               178.2781

                     85                     86                     87
                      A                      A                      A
 Frequencies --   1325.9124              1327.8948              1334.4852
 Red. masses --      1.4959                 1.4861                 1.6765
 Frc consts  --      1.5495                 1.5439                 1.7591
 IR Inten    --     48.8453                47.5533                20.9089

                     88                     89                     90
                      A                      A                      A
 Frequencies --   1361.2287              1365.0403              1372.9927
 Red. masses --      3.4730                 1.4661                 1.3186
 Frc consts  --      3.7915                 1.6095                 1.4645
 IR Inten    --      4.0102                17.2870                28.6356

                     91                     92                     93
                      A                      A                      A
 Frequencies --   1383.6574              1392.7854              1406.5602
 Red. masses --      1.4253                 1.2748                 1.5630
 Frc consts  --      1.6078                 1.4570                 1.8219
 IR Inten    --     33.9468                34.9320                24.4415

                     94                     95                     96
                      A                      A                      A
 Frequencies --   1415.5726              1432.1365              1452.6006
 Red. masses --      1.4192                 2.7516                 1.0801
 Frc consts  --      1.6755                 3.3251                 1.3428
 IR Inten    --     32.0474               426.7699                16.7955

                     97                     98                     99
                      A                      A                      A
 Frequencies --   1462.3240              1473.2276              1476.1282
 Red. masses --      1.0752                 1.0414                 1.7496
 Frc consts  --      1.3546                 1.3318                 2.2462
 IR Inten    --      1.9566                 6.9275                69.8464

                    100                    101                    102
                      A                      A                      A
 Frequencies --   1477.0696              1479.9405              1488.4307
 Red. masses --      1.0685                 1.3270                 1.0556
 Frc consts  --      1.3736                 1.7124                 1.3778
 IR Inten    --     14.4653                88.8128                 3.3125

                    103                    104                    105
                      A                      A                      A
 Frequencies --   1495.0122              1498.5771              1506.7509
 Red. masses --      1.1147                 1.1829                 1.0840
 Frc consts  --      1.4679                 1.5652                 1.4499
 IR Inten    --     15.3249                23.2088                 7.2055

                    106                    107                    108
                      A                      A                      A
 Frequencies --   1516.4489              1618.8659              1639.3796
 Red. masses --      1.9531                 5.5596                 5.6445
 Frc consts  --      2.6462                 8.5845                 8.9379
 IR Inten    --      5.2033                 4.8749                27.6888

                    109                    110                    111
                      A                      A                      A
 Frequencies --   1659.5873              1765.9800              3017.2264
 Red. masses --      5.4569                11.5859                 1.0429
 Frc consts  --      8.8552                21.2887                 5.5939
 IR Inten    --    148.1207               229.5749                 2.2835

                    112                    113                    114
                      A                      A                      A
 Frequencies --   3024.4252              3041.3222              3041.8038
 Red. masses --      1.0429                 1.0661                 1.0362
 Frc consts  --      5.6204                 5.8099                 5.6488
 IR Inten    --      7.0367                26.2335                16.9194

                    115                    116                    117
                      A                      A                      A
 Frequencies --   3060.1314              3069.2793              3075.3649
 Red. masses --      1.0596                 1.0623                 1.0855
 Frc consts  --      5.8460                 5.8963                 6.0488
 IR Inten    --     15.3330                24.3261                 1.8724

                    118                    119                    120
                      A                      A                      A
 Frequencies --   3076.0840              3088.3829              3099.1645
 Red. masses --      1.0963                 1.0901                 1.0984
 Frc consts  --      6.1120                 6.1260                 6.2159
 IR Inten    --      5.2324                 4.5919                 3.2956

                    121                    122                    123
                      A                      A                      A
 Frequencies --   3109.3509              3117.7506              3119.9916
 Red. masses --      1.1054                 1.1023                 1.1013
 Frc consts  --      6.2964                 6.3127                 6.3162
 IR Inten    --      9.5748                16.1102                15.7175

                    124                    125                    126
                      A                      A                      A
 Frequencies --   3139.5044              3140.0103              3160.0821
 Red. masses --      1.1011                 1.1044                 1.0983
 Frc consts  --      6.3942                 6.4157                 6.4618
 IR Inten    --      9.2574                13.6777                 8.2347

                    127                    128                    129
                      A                      A                      A
 Frequencies --   3167.8432              3173.5902              3186.1416
 Red. masses --      1.0876                 1.0859                 1.0910
 Frc consts  --      6.4306                 6.4441                 6.5256
 IR Inten    --     12.4672                 0.4129                 7.0253

                    130                    131                    132
                      A                      A                      A
 Frequencies --   3195.9998              3223.8252              3230.5565
 Red. masses --      1.0968                 1.0926                 1.0918
 Frc consts  --      6.6007                 6.6905                 6.7134
 IR Inten    --     13.4035                 2.0338                 1.2212

 - Thermochemistry -
 -------------------
 Temperature   298.150 Kelvin.  Pressure   1.00000 Atm.
 Atom     1 has atomic number  6 and mass  12.00000

 Molecular mass:   434.99839 amu.
 Principal axes and moments of inertia in atomic units:
                           1         2         3
     Eigenvalues --  9227.57674********************
           X            0.99943  -0.03002   0.01535
           Y            0.02966   0.99930   0.02275
           Z           -0.01602  -0.02228   0.99962
 This molecule is an asymmetric top.
 Rotational symmetry number  1.
 Warning -- assumption of classical behavior for rotation
           may cause significant error
 Rotational temperatures (Kelvin)      0.00939     0.00782     0.00661
 Rotational constants (GHZ):           0.19558     0.16293     0.13770
    1 imaginary frequencies ignored.
 Zero-point vibrational energy     943145.5 (Joules/Mol)
                                  225.41719 (Kcal/Mol)
 Warning -- explicit consideration of  42 degrees of freedom as
           vibrations may cause significant error
 Vibrational temperatures:     22.34    38.03    43.29    63.60    74.82
          (Kelvin)             87.57    96.74   115.83   125.41   137.26
                              144.76   149.91   155.98   169.39   183.79
                              198.59   212.17   220.41   229.21   245.16
                              285.96   298.28   329.15   345.38   373.37
                              422.06   452.08   460.87   497.91   511.27
                              538.17   561.15   570.29   576.88   592.18
                              618.19   654.16   693.82   727.87   754.17
                              782.58   858.38   899.32   924.11   999.52
                             1008.81  1084.84  1102.99  1150.17  1161.38
                             1180.94  1213.35  1242.24  1253.74  1299.79
                             1332.25  1354.35  1378.54  1392.12  1418.72
                             1421.63  1432.42  1442.01  1449.88  1458.55
                             1492.57  1507.09  1539.74  1559.09  1577.01
                             1598.55  1629.61  1637.58  1672.39  1684.42
                             1692.33  1723.36  1733.71  1761.98  1787.17
                             1810.97  1849.23  1893.83  1907.69  1910.54
                             1920.03  1958.50  1963.99  1975.43  1990.77
                             2003.91  2023.73  2036.69  2060.53  2089.97
                             2103.96  2119.65  2123.82  2125.17  2129.30
                             2141.52  2150.99  2156.12  2167.88  2181.83
                             2329.19  2358.70  2387.78  2540.85  4341.12
                             4351.47  4375.78  4376.48  4402.85  4416.01
                             4424.76  4425.80  4443.49  4459.01  4473.66
                             4485.75  4488.97  4517.05  4517.77  4546.65
                             4557.82  4566.09  4584.15  4598.33  4638.37
                             4648.05

 Zero-point correction=                           0.359225 (Hartree/Particle)
 Thermal correction to Energy=                    0.386818
 Thermal correction to Enthalpy=                  0.387763
 Thermal correction to Gibbs Free Energy=         0.296438
 Sum of electronic and zero-point Energies=          -3531.069798
 Sum of electronic and thermal Energies=             -3531.042205
 Sum of electronic and thermal Enthalpies=           -3531.041260
 Sum of electronic and thermal Free Energies=        -3531.132585

                     E (Thermal)             CV                S
                      KCal/Mol        Cal/Mol-Kelvin    Cal/Mol-Kelvin
 Total                  242.732             97.749            192.208
 Electronic               0.000              0.000              3.561
 Translational            0.889              2.981             44.100
 Rotational               0.889              2.981             35.548
 Vibrational            240.955             91.788            109.000
 Vibration     1          0.593              1.986              7.137
 Vibration     2          0.593              1.985              6.081
 Vibration     3          0.594              1.984              5.824
 Vibration     4          0.595              1.980              5.061
 Vibration     5          0.596              1.977              4.740
 Vibration     6          0.597              1.973              4.429
 Vibration     7          0.598              1.970              4.233
 Vibration     8          0.600              1.962              3.879
 Vibration     9          0.601              1.958              3.723
 Vibration    10          0.603              1.952              3.546
 Vibration    11          0.604              1.949              3.442
 Vibration    12          0.605              1.946              3.374
 Vibration    13          0.606              1.942              3.297
 Vibration    14          0.608              1.935              3.137
 Vibration    15          0.611              1.925              2.980
 Vibration    16          0.614              1.915              2.831
 Vibration    17          0.617              1.905              2.705
 Vibration    18          0.619              1.899              2.632
 Vibration    19          0.621              1.892              2.558
 Vibration    20          0.625              1.879              2.431
 Vibration    21          0.637              1.842              2.145
 Vibration    22          0.641              1.829              2.067
 Vibration    23          0.651              1.797              1.889
 Vibration    24          0.657              1.779              1.803
 Vibration    25          0.668              1.747              1.665
 Vibration    26          0.688              1.686              1.455
 Vibration    27          0.702              1.647              1.340
 Vibration    28          0.706              1.635              1.308
 Vibration    29          0.724              1.583              1.184
 Vibration    30          0.731              1.564              1.142
 Vibration    31          0.745              1.525              1.063
 Vibration    32          0.758              1.492              1.000
 Vibration    33          0.763              1.478              0.976
 Vibration    34          0.767              1.468              0.959
 Vibration    35          0.776              1.445              0.921
 Vibration    36          0.791              1.406              0.860
 Vibration    37          0.813              1.351              0.782
 Vibration    38          0.838              1.289              0.704
 Vibration    39          0.861              1.237              0.644
 Vibration    40          0.879              1.196              0.600
 Vibration    41          0.899              1.153              0.557
 Vibration    42          0.954              1.039              0.456

                           ! Non-Optimized Parameters !
 Normal termination of Gaussian 16 at Sun Jun 20 13:07:53 2021.

 ----------------------------------------------------------------------
 #p ub3lyp jul-cc-pvdz pop=cm5 scrf=(pcm,solvent=dichloroethane) guess=
 read geom=allcheck
 ----------------------------------------------------------------------

 Structure from the checkpoint file:  "checkpoint.chk"
 -----
 title
 -----
 Charge =  0 Multiplicity = 6

 SCF Done:  E(UB3LYP) =  -3531.44847494     A.U. after   18 cycles
 Normal termination of Gaussian 16 at Sun Jun 20 13:31:23 2021.
 Gaussian 16:  ES64L-G16RevA.03 25-Dec-2016

 ----------------------------------------------------------------------
 #p ub3lyp jul-cc-pvdz pop=cm5 scrf=(pcm,solvent=water) guess=read geom
 =allcheck
 ----------------------------------------------------------------------

 Structure from the checkpoint file:  "checkpoint.chk"
 -----
 title
 -----
 Charge =  0 Multiplicity = 6

                         Standard orientation:
 ---------------------------------------------------------------------
 Center     Atomic      Atomic             Coordinates (Angstroms)
 Number     Number       Type             X           Y           Z
 ---------------------------------------------------------------------
      1          6           0        3.234184   -0.112716    0.423680
      2          6           0        1.884371   -0.403667    0.704333
      3          6           0        1.500920   -0.608925    2.043665
      4          6           0        2.442452   -0.539434    3.070869
      5          6           0        3.781173   -0.263803    2.778665
      6          6           0        4.171867   -0.045037    1.451908
      7          6           0        0.824631   -0.445185   -0.353504
      8          6           0        0.935696    0.441057   -1.630438
      9          6           0        1.802663   -0.147828   -2.747534
     10          6           0        1.449078   -1.633876   -2.855218
     11          6           0        1.498745   -2.217808   -1.468575
     12          6           0        0.537824   -2.973215   -0.860415
     13          6           0       -0.832075   -3.191496   -1.412501
     14          8           0       -0.361262   -0.710440    0.051444
     15         26           0       -2.163319   -0.052694    0.388302
     16         17           0       -2.949316    0.707377   -1.534622
     17          6           0        0.804089   -3.626634    0.458219
     18         17           0       -2.003728    1.459350    1.987753
     19         17           0       -3.276784   -1.822399    1.120781
     20          1           0        0.454352   -0.791264    2.276277
     21          1           0        2.125045   -0.690653    4.103168
     22          1           0        4.517677   -0.207590    3.581788
     23          1           0        5.211393    0.187121    1.217858
     24          1           0        3.560119    0.078820   -0.595002
     25          1           0       -0.101669    0.513617   -1.981761
     26          6           0        1.378311    1.866006   -1.265078
     27          1           0        1.608796    0.389326   -3.685540
     28          1           0        2.867511   -0.009872   -2.525013
     29          1           0        0.457130   -1.754572   -3.307279
     30          1           0        2.165452   -2.155551   -3.507797
     31          1           0        2.493394   -2.246529   -1.022865
     32          1           0        1.843540   -3.516905    0.785799
     33          1           0        0.133768   -3.203456    1.223671
     34          1           0        0.560439   -4.698865    0.398037
     35          1           0       -0.908623   -4.239791   -1.747811
     36          1           0       -1.591118   -3.057937   -0.629516
     37          1           0       -1.079768   -2.546027   -2.259679
     38          8           0        0.376163    2.544224   -0.698630
     39          8           0        2.482037    2.317103   -1.489848
     40          6           0        0.650798    3.925678   -0.313174
     41          6           0       -0.671621    4.586986    0.013350
     42          1           0        1.330261    3.899625    0.550064
     43          1           0        1.173193    4.413165   -1.145923
     44          1           0       -0.485307    5.625073    0.325015
     45          1           0       -1.330288    4.600942   -0.865684
     46          1           0       -1.186054    4.060080    0.826586
 ---------------------------------------------------------------------

 SCF Done:  E(UB3LYP) =  -3531.45225984     A.U. after   16 cycles

 The electronic state is 6-A.
 Alpha  occ. eigenvalues -- -256.21010-101.52428-101.52343-101.52332 -30.20411
 Alpha  occ. eigenvalues --  -26.05791 -26.05616 -26.05517 -19.20750 -19.17976
 Alpha  occ. eigenvalues --  -19.15710 -10.33592 -10.32988 -10.24971 -10.24308
 Alpha  occ. eigenvalues --  -10.22828 -10.22270 -10.21261 -10.21185 -10.21123
 Alpha  occ. eigenvalues --  -10.20780 -10.20700 -10.20688 -10.20257 -10.19986
 Alpha  occ. eigenvalues --  -10.19546 -10.19304 -10.18542  -9.44148  -9.44073
 Alpha  occ. eigenvalues --   -9.44059  -7.20014  -7.19942  -7.19929  -7.19699
 Alpha  occ. eigenvalues --   -7.19690  -7.19622  -7.19612  -7.19603  -7.19598
 Alpha  occ. eigenvalues --   -3.68082  -2.45711  -2.45370  -2.45182  -1.12628
 Alpha  occ. eigenvalues --   -1.08199  -1.04112  -0.88101  -0.86122  -0.83208
 Alpha  occ. eigenvalues --   -0.80416  -0.79680  -0.79620  -0.78786  -0.78412
 Alpha  occ. eigenvalues --   -0.76705  -0.75047  -0.71366  -0.70424  -0.66829
 Alpha  occ. eigenvalues --   -0.64623  -0.62518  -0.61722  -0.59697  -0.57564
 Alpha  occ. eigenvalues --   -0.55928  -0.54216  -0.53228  -0.51679  -0.50439
 Alpha  occ. eigenvalues --   -0.49800  -0.49169  -0.48892  -0.48382  -0.48176
 Alpha  occ. eigenvalues --   -0.47940  -0.47600  -0.47147  -0.46849  -0.45901
 Alpha  occ. eigenvalues --   -0.45467  -0.44906  -0.43794  -0.43205  -0.42770
 Alpha  occ. eigenvalues --   -0.42339  -0.40948  -0.40561  -0.40095  -0.39971
 Alpha  occ. eigenvalues --   -0.38942  -0.38621  -0.37962  -0.37659  -0.37638
 Alpha  occ. eigenvalues --   -0.37399  -0.36966  -0.36291  -0.36022  -0.35550
 Alpha  occ. eigenvalues --   -0.34754  -0.34324  -0.34023  -0.32287  -0.32124
 Alpha  occ. eigenvalues --   -0.31237  -0.31208  -0.30860  -0.30615  -0.30122
 Alpha  occ. eigenvalues --   -0.29800  -0.29396  -0.28377  -0.27421  -0.25830
 Alpha virt. eigenvalues --   -0.10891  -0.03240  -0.02714  -0.01662  -0.01192
 Alpha virt. eigenvalues --   -0.00170   0.00000   0.00051   0.01427   0.01537
 Alpha virt. eigenvalues --    0.01732   0.01979   0.02541   0.02955   0.03294

  Beta  occ. eigenvalues -- -256.20825-101.52243-101.52156-101.52151 -30.11457
  Beta  occ. eigenvalues --  -25.98218 -25.98188 -25.98129 -19.20750 -19.17513
  Beta  occ. eigenvalues --  -19.15708 -10.33593 -10.32979 -10.24971 -10.24274
  Beta  occ. eigenvalues --  -10.22815 -10.22249 -10.21262 -10.21187 -10.21125
  Beta  occ. eigenvalues --  -10.20777 -10.20699 -10.20655 -10.20255 -10.19987
  Beta  occ. eigenvalues --  -10.19547 -10.19306 -10.18541  -9.43968  -9.43889
  Beta  occ. eigenvalues --   -9.43881  -7.19712  -7.19636  -7.19624  -7.19451
  Beta  occ. eigenvalues --   -7.19442  -7.19371  -7.19364  -7.19357  -7.19356
  Beta  occ. eigenvalues --   -3.47205  -2.23471  -2.23422  -2.23366  -1.12625
  Beta  occ. eigenvalues --   -1.07304  -1.04110  -0.88056  -0.86049  -0.83151
  Beta  occ. eigenvalues --   -0.79229  -0.78787  -0.78419  -0.78363  -0.78283
  Beta  occ. eigenvalues --   -0.76700  -0.75017  -0.71347  -0.70324  -0.66682
  Beta  occ. eigenvalues --   -0.64554  -0.62487  -0.61646  -0.59269  -0.57312
  Beta  occ. eigenvalues --   -0.55444  -0.54148  -0.52443  -0.51609  -0.50240
  Beta  occ. eigenvalues --   -0.49483  -0.48890  -0.47915  -0.47626  -0.46995
  Beta  occ. eigenvalues --   -0.45815  -0.44990  -0.43801  -0.43209  -0.42781
  Beta  occ. eigenvalues --   -0.42302  -0.40968  -0.40535  -0.40086  -0.39988
  Beta  occ. eigenvalues --   -0.38927  -0.38510  -0.38185  -0.37917  -0.37608
  Beta  occ. eigenvalues --   -0.37354  -0.36994  -0.36339  -0.36118  -0.36032
  Beta  occ. eigenvalues --   -0.35917  -0.35543  -0.34382  -0.33400  -0.33196
  Beta  occ. eigenvalues --   -0.32650  -0.32475  -0.32093  -0.31359  -0.30353
  Beta  occ. eigenvalues --   -0.29684  -0.29381  -0.28484  -0.27422  -0.25715
  Beta virt. eigenvalues --   -0.14996  -0.14512  -0.13627  -0.13347  -0.13083
  Beta virt. eigenvalues --   -0.10097  -0.03215  -0.02666  -0.01586  -0.01120
  Beta virt. eigenvalues --   -0.00129   0.00030   0.00083   0.01461   0.01580

 Mulliken charges and spin densities:
               1          2
     1  C    0.174886  -0.000918
     2  C    2.926020   0.006391
     3  C   -0.537968  -0.008369
     4  C    0.036077   0.003934
     5  C    0.276705  -0.000838
     6  C   -0.065792   0.002621
     7  C   -2.429007  -0.005963
     8  C    0.450089   0.008025
     9  C    0.544685   0.002292
    10  C    0.694034  -0.000968
    11  C    0.393376   0.015491
    12  C   -0.155574   0.022110
    13  C    0.167211  -0.000846
    14  O   -0.300626   0.135680
    15  Fe   0.647330   4.067586
    16  Cl  -0.508882   0.243773
    17  C    0.302633  -0.000591
    18  Cl  -0.469908   0.253817
    19  Cl  -0.488790   0.248216
    20  H   -0.245344   0.000600
    21  H   -0.158711   0.000006
    22  H   -0.153285   0.000021
    23  H   -0.155242   0.000154
    24  H   -0.235501  -0.000111
    25  H   -0.185791  -0.000082
    26  C    0.759055  -0.000415
    27  H   -0.144353   0.000286
    28  H   -0.012320  -0.000036
    29  H   -0.089203   0.000054
    30  H   -0.115978   0.001012
    31  H   -0.257801  -0.000896
    32  H   -0.002880   0.000012
    33  H    0.084525   0.000856
    34  H   -0.015532   0.001136
    35  H    0.005593   0.001286
    36  H    0.073315   0.002102
    37  H    0.030598  -0.000058
    38  O   -0.666863   0.002373
    39  O   -0.614185   0.000898
    40  C    0.426283   0.000813
    41  C    0.038706  -0.001272
    42  H   -0.034927   0.000047
    43  H   -0.035608   0.000020
    44  H   -0.006364   0.000036
    45  H    0.025948   0.000067
    46  H    0.029364  -0.000353
 Sum of Mulliken charges =  -0.00000   5.00000

 Dipole moment (field-independent basis, Debye):
    X=             10.5049    Y=             -4.4529    Z=             -2.4116  Tot=             11.6618
 Quadrupole moment (field-independent basis, Debye-Ang):
   XX=           -194.5085   YY=           -159.3703   ZZ=           -169.6314
   XY=             -8.6915   XZ=             10.2990   YZ=              6.4803

 Normal termination of Gaussian 16 at Sun Jun 20 13:51:54 2021.
