 Gaussian 16, Revision A.03,

 -----------------------------------------------------------
 #p opt=modredundant freq=noraman ub3lyp jul-cc-pvdz pop=cm5
 -----------------------------------------------------------

 -----
 title
 -----
 Symbolic Z-matrix:
 Charge =  0 Multiplicity = 6

 SCF Done:  E(UB3LYP) =  -3531.41863587     A.U. after   25 cycles
 SCF Done:  E(UB3LYP) =  -3531.41905581     A.U. after   23 cycles
 SCF Done:  E(UB3LYP) =  -3531.41843690     A.U. after   17 cycles
 SCF Done:  E(UB3LYP) =  -3531.41927916     A.U. after   15 cycles
 SCF Done:  E(UB3LYP) =  -3531.41931102     A.U. after   14 cycles
 SCF Done:  E(UB3LYP) =  -3531.41930962     A.U. after   13 cycles
 SCF Done:  E(UB3LYP) =  -3531.41931970     A.U. after   14 cycles
 SCF Done:  E(UB3LYP) =  -3531.41932609     A.U. after   14 cycles
 SCF Done:  E(UB3LYP) =  -3531.41933027     A.U. after   12 cycles
 SCF Done:  E(UB3LYP) =  -3531.41933263     A.U. after   12 cycles
 SCF Done:  E(UB3LYP) =  -3531.41933812     A.U. after   12 cycles
 SCF Done:  E(UB3LYP) =  -3531.41934097     A.U. after   14 cycles
 SCF Done:  E(UB3LYP) =  -3531.41934238     A.U. after   14 cycles
 SCF Done:  E(UB3LYP) =  -3531.41934278     A.U. after   11 cycles
 SCF Done:  E(UB3LYP) =  -3531.41934288     A.U. after   10 cycles
 SCF Done:  E(UB3LYP) =  -3531.41934288     A.U. after    9 cycles
 SCF Done:  E(UB3LYP) =  -3531.41934289     A.U. after    9 cycles
 Optimization completed.
    -- Stationary point found.
 Normal termination of Gaussian 16 at Sun Jun 20 03:15:45 2021.

 ----------------------------------------------------------------------
 #P Geom=AllCheck Guess=TCheck SCRF=Check GenChk UB3LYP/Jul-CC-pVDZ Fre
 q
 ----------------------------------------------------------------------

 Structure from the checkpoint file:  "checkpoint.chk"
 -----
 title
 -----
 Charge =  0 Multiplicity = 6

 SCF Done:  E(UB3LYP) =  -3531.41934289     A.U. after    2 cycles

  Exact polarizability: 322.169  -3.830 296.287 -12.856  -3.447 295.122
 Approx polarizability: 465.657  -5.212 468.211  -2.088 -15.043 491.918

 ******    1 imaginary frequencies (negative Signs) ******

                      1                      2                      3
                      A                      A                      A
 Frequencies --    -48.6624                11.7375                25.1096
 Red. masses --      3.8891                14.7288                 3.8490
 Frc consts  --      0.0054                 0.0012                 0.0014
 IR Inten    --     92.7849                 0.0335                 1.1333

                      4                      5                      6
                      A                      A                      A
 Frequencies --     31.6552                38.3188                53.9955
 Red. masses --      5.0020                 7.1784                 3.6719
 Frc consts  --      0.0030                 0.0062                 0.0063
 IR Inten    --      2.1309                 1.9295                12.5065

                      7                      8                      9
                      A                      A                      A
 Frequencies --     57.1903                65.9460                73.3375
 Red. masses --      5.2592                 2.6316                 3.1537
 Frc consts  --      0.0101                 0.0067                 0.0100
 IR Inten    --      1.2384                 3.0984                 8.3416

                     10                     11                     12
                      A                      A                      A
 Frequencies --     86.6398                87.8817                89.4339
 Red. masses --      3.2194                 4.4427                 3.6981
 Frc consts  --      0.0142                 0.0202                 0.0174
 IR Inten    --      4.2373                 1.0633                 1.8667

                     13                     14                     15
                      A                      A                      A
 Frequencies --    103.3217               107.6688               116.8376
 Red. masses --      4.1701                 3.8697                10.6746
 Frc consts  --      0.0262                 0.0264                 0.0859
 IR Inten    --     14.1566                16.3173                 8.3806

                     16                     17                     18
                      A                      A                      A
 Frequencies --    120.3757               124.0094               140.8422
 Red. masses --      6.1318                 4.7872                 2.9262
 Frc consts  --      0.0523                 0.0434                 0.0342
 IR Inten    --      2.3886                 6.5749                75.3841

                     19                     20                     21
                      A                      A                      A
 Frequencies --    152.2389               157.1165               171.7761
 Red. masses --      3.4782                 2.8758                 3.0062
 Frc consts  --      0.0475                 0.0418                 0.0523
 IR Inten    --      4.6376                16.4610                27.6071

                     22                     23                     24
                      A                      A                      A
 Frequencies --    193.4333               200.8683               238.0196
 Red. masses --      1.4505                 3.2168                 2.8587
 Frc consts  --      0.0320                 0.0765                 0.0954
 IR Inten    --      5.5366                 4.3673                 1.3534

                     25                     26                     27
                      A                      A                      A
 Frequencies --    249.6688               263.8819               281.2286
 Red. masses --      2.4603                 2.2666                 3.1622
 Frc consts  --      0.0904                 0.0930                 0.1474
 IR Inten    --      7.5759                 7.4445                11.3173

                     28                     29                     30
                      A                      A                      A
 Frequencies --    296.9652               314.6714               340.8180
 Red. masses --      6.4397                 4.7216                23.3110
 Frc consts  --      0.3346                 0.2755                 1.5953
 IR Inten    --      3.5262                11.6708                54.6443

                     31                     32                     33
                      A                      A                      A
 Frequencies --    345.5963               353.6867               384.8919
 Red. masses --      4.1905                 7.0464                39.8653
 Frc consts  --      0.2949                 0.5193                 3.4795
 IR Inten    --      9.2648                 3.1222                84.5261

                     34                     35                     36
                      A                      A                      A
 Frequencies --    392.2659               405.3710               407.9073
 Red. masses --     34.9968                 3.8071                 3.4236
 Frc consts  --      3.1728                 0.3686                 0.3356
 IR Inten    --     84.3206                 8.7967                11.0418

                     37                     38                     39
                      A                      A                      A
 Frequencies --    418.5455               457.5501               504.6537
 Red. masses --      3.0164                 4.2886                 2.5287
 Frc consts  --      0.3113                 0.5290                 0.3794
 IR Inten    --      0.7575                51.1287                 1.9890

                     40                     41                     42
                      A                      A                      A
 Frequencies --    510.9592               549.1111               584.8713
 Red. masses --      2.4557                 3.7133                 6.1502
 Frc consts  --      0.3777                 0.6597                 1.2395
 IR Inten    --      6.7940                44.3993                43.4054

                     43                     44                     45
                      A                      A                      A
 Frequencies --    627.9779               634.5308               687.1113
 Red. masses --      6.3714                 3.6612                 5.5864
 Frc consts  --      1.4804                 0.8685                 1.5539
 IR Inten    --      0.9045                55.0446                12.2833

                     46                     47                     48
                      A                      A                      A
 Frequencies --    710.5974               722.9276               758.1333
 Red. masses --      2.0198                 2.1041                 2.5404
 Frc consts  --      0.6009                 0.6479                 0.8603
 IR Inten    --     29.9904                32.8099                13.5105

                     49                     50                     51
                      A                      A                      A
 Frequencies --    789.7277               806.7657               826.7659
 Red. masses --      2.9485                 1.2169                 3.7446
 Frc consts  --      1.0834                 0.4667                 1.5081
 IR Inten    --     17.8159                 6.3074                83.7367

                     52                     53                     54
                      A                      A                      A
 Frequencies --    837.0778               849.2114               853.6324
 Red. masses --      1.9078                 2.1800                 1.7689
 Frc consts  --      0.7876                 0.9263                 0.7594
 IR Inten    --     25.0066                 6.9181                 4.1046

                     55                     56                     57
                      A                      A                      A
 Frequencies --    862.0476               882.8213               907.1536
 Red. masses --      1.2544                 2.6412                 3.0522
 Frc consts  --      0.5492                 1.2128                 1.4799
 IR Inten    --      1.1784                12.3425                 2.8816

                     58                     59                     60
                      A                      A                      A
 Frequencies --    940.4187               966.5909               971.2763
 Red. masses --      1.6633                 2.1210                 3.0708
 Frc consts  --      0.8667                 1.1675                 1.7068
 IR Inten    --     10.3647                 2.5001                 3.7530

                     61                     62                     63
                      A                      A                      A
 Frequencies --    991.9071               995.8106               999.3136
 Red. masses --      2.8879                 1.4229                 1.4552
 Frc consts  --      1.6741                 0.8313                 0.8562
 IR Inten    --     28.0558                 7.2226                23.5347

                     64                     65                     66
                      A                      A                      A
 Frequencies --   1004.7932              1010.1677              1036.7728
 Red. masses --      4.1195                 1.3954                 2.8466
 Frc consts  --      2.4505                 0.8389                 1.8028
 IR Inten    --      1.4130                 1.6057                28.0840

                     67                     68                     69
                      A                      A                      A
 Frequencies --   1042.9800              1054.6150              1063.1362
 Red. masses --      1.8038                 2.1845                 2.1920
 Frc consts  --      1.1561                 1.4315                 1.4597
 IR Inten    --     47.0925                 7.3004                28.7040

                     70                     71                     72
                      A                      A                      A
 Frequencies --   1076.2213              1098.7712              1108.1189
 Red. masses --      2.0723                 2.5695                 1.6043
 Frc consts  --      1.4142                 1.8277                 1.1607
 IR Inten    --     10.5627                 7.1736                 8.4204

                     73                     74                     75
                      A                      A                      A
 Frequencies --   1122.8140              1132.2551              1167.7964
 Red. masses --      1.5633                 2.1850                 1.5541
 Frc consts  --      1.1612                 1.6504                 1.2487
 IR Inten    --    123.7554                 7.1224                 6.6697

                     76                     77                     78
                      A                      A                      A
 Frequencies --   1174.5307              1182.9091              1200.0365
 Red. masses --      1.0850                 1.9233                 1.6330
 Frc consts  --      0.8819                 1.5857                 1.3856
 IR Inten    --      0.6374                66.4064                78.1085

                     79                     80                     81
                      A                      A                      A
 Frequencies --   1206.0513              1210.1083              1231.1981
 Red. masses --      1.2478                 2.4556                 1.4123
 Frc consts  --      1.0694                 2.1186                 1.2613
 IR Inten    --     20.9340               377.1002                10.7931

                     82                     83                     84
                      A                      A                      A
 Frequencies --   1256.4849              1263.0722              1282.3507
 Red. masses --      1.3419                 1.5370                 1.1150
 Frc consts  --      1.2482                 1.4447                 1.0803
 IR Inten    --     67.3064                52.3158                11.6520

                     85                     86                     87
                      A                      A                      A
 Frequencies --   1290.5895              1322.5498              1329.3254
 Red. masses --      3.3129                 1.3429                 1.5977
 Frc consts  --      3.2512                 1.3840                 1.6635
 IR Inten    --    312.0147                 4.3560                 3.1250

                     88                     89                     90
                      A                      A                      A
 Frequencies --   1332.3219              1337.1603              1358.0141
 Red. masses --      1.5979                 1.2675                 2.4970
 Frc consts  --      1.6711                 1.3353                 2.7132
 IR Inten    --     34.6207                 6.2890                 3.3510

                     91                     92                     93
                      A                      A                      A
 Frequencies --   1360.9946              1362.6710              1389.7281
 Red. masses --      1.3717                 1.2421                 1.5495
 Frc consts  --      1.4970                 1.3589                 1.7632
 IR Inten    --     52.9580                58.4523                 9.5768

                     94                     95                     96
                      A                      A                      A
 Frequencies --   1393.8263              1417.9004              1429.0771
 Red. masses --      1.5933                 1.5470                 1.0970
 Frc consts  --      1.8237                 1.8324                 1.3200
 IR Inten    --    128.6242                15.7493                 5.4530

                     97                     98                     99
                      A                      A                      A
 Frequencies --   1443.1734              1464.4553              1468.9697
 Red. masses --      1.1094                 1.3806                 1.8205
 Frc consts  --      1.3614                 1.7444                 2.3145
 IR Inten    --     36.5787                 9.2781                32.4223

                    100                    101                    102
                      A                      A                      A
 Frequencies --   1474.7817              1479.5410              1485.3894
 Red. masses --      1.0399                 1.0784                 1.0531
 Frc consts  --      1.3327                 1.3909                 1.3690
 IR Inten    --      5.4472                 5.1447                 0.8762

                    103                    104                    105
                      A                      A                      A
 Frequencies --   1491.0675              1502.0276              1504.5853
 Red. masses --      1.1996                 1.1034                 1.0849
 Frc consts  --      1.5714                 1.4666                 1.4470
 IR Inten    --      4.6026                11.6822                 5.5030

                    106                    107                    108
                      A                      A                      A
 Frequencies --   1517.6169              1524.8939              1621.3590
 Red. masses --      2.1476                 2.6398                 5.6545
 Frc consts  --      2.9142                 3.6166                 8.7580
 IR Inten    --      5.8376                62.0345                 0.2734

                    109                    110                    111
                      A                      A                      A
 Frequencies --   1641.0749              1746.1078              2949.5715
 Red. masses --      5.6634                10.7513                 1.0573
 Frc consts  --      8.9864                19.3132                 5.4194
 IR Inten    --      0.8699               151.0151                37.6097

                    112                    113                    114
                      A                      A                      A
 Frequencies --   3003.5402              3040.8761              3057.6394
 Red. masses --      1.0470                 1.0351                 1.0583
 Frc consts  --      5.5647                 5.6396                 5.8292
 IR Inten    --      1.9015                15.3179                13.9250

                    115                    116                    117
                      A                      A                      A
 Frequencies --   3062.0950              3066.5632              3073.5828
 Red. masses --      1.0659                 1.0891                 1.0734
 Frc consts  --      5.8884                 6.0342                 5.9743
 IR Inten    --     19.5843                 0.9085                 0.6496

                    118                    119                    120
                      A                      A                      A
 Frequencies --   3085.2953              3101.1448              3101.8853
 Red. masses --      1.0615                 1.0860                 1.1072
 Frc consts  --      5.9533                 6.1533                 6.2767
 IR Inten    --     16.6774                 8.6738                 3.8058

                    121                    122                    123
                      A                      A                      A
 Frequencies --   3117.9712              3118.5921              3127.8419
 Red. masses --      1.1012                 1.0922                 1.0982
 Frc consts  --      6.3078                 6.2582                 6.3305
 IR Inten    --     19.9276                 3.6499                 3.1043

                    124                    125                    126
                      A                      A                      A
 Frequencies --   3129.7897              3140.2030              3147.4045
 Red. masses --      1.1054                 1.1020                 1.1029
 Frc consts  --      6.3797                 6.4024                 6.4370
 IR Inten    --     28.1143                 5.0129                12.2940

                    127                    128                    129
                      A                      A                      A
 Frequencies --   3164.2597              3167.7983              3179.2650
 Red. masses --      1.0992                 1.0857                 1.0904
 Frc consts  --      6.4844                 6.4191                 6.4935
 IR Inten    --      8.1162                 0.7564                10.4904

                    130                    131                    132
                      A                      A                      A
 Frequencies --   3192.2336              3207.4324              3213.5973
 Red. masses --      1.0961                 1.0926                 1.0934
 Frc consts  --      6.5811                 6.6229                 6.6528
 IR Inten    --     12.8564                 1.9447                 9.8994

 - Thermochemistry -
 -------------------
 Temperature   298.150 Kelvin.  Pressure   1.00000 Atm.
 Atom     1 has atomic number  6 and mass  12.00000

 Molecular mass:   434.99839 amu.
 Principal axes and moments of inertia in atomic units:
                           1         2         3
     Eigenvalues --  8394.63149********************
           X            0.99907   0.03546  -0.02472
           Y           -0.03634   0.99868  -0.03622
           Z            0.02340   0.03708   0.99904
 This molecule is an asymmetric top.
 Rotational symmetry number  1.
 Warning -- assumption of classical behavior for rotation
           may cause significant error
 Rotational temperatures (Kelvin)      0.01032     0.00635     0.00594
 Rotational constants (GHZ):           0.21499     0.13234     0.12371
    1 imaginary frequencies ignored.
 Zero-point vibrational energy     940235.9 (Joules/Mol)
                                  224.72177 (Kcal/Mol)
 Warning -- explicit consideration of  41 degrees of freedom as
           vibrations may cause significant error
 Vibrational temperatures:     16.89    36.13    45.54    55.13    77.69
          (Kelvin)             82.28    94.88   105.52   124.66   126.44
                              128.68   148.66   154.91   168.10   173.19
                              178.42   202.64   219.04   226.06   247.15
                              278.31   289.00   342.46   359.22   379.67
                              404.63   427.27   452.74   490.36   497.24
                              508.88   553.77   564.38   583.24   586.89
                              602.19   658.31   726.08   735.16   790.05
                              841.50   903.52   912.95   988.60  1022.39
                             1040.13  1090.78  1136.24  1160.76  1189.53
                             1204.37  1221.83  1228.19  1240.29  1270.18
                             1305.19  1353.05  1390.71  1397.45  1427.13
                             1432.75  1437.79  1445.67  1453.41  1491.68
                             1500.62  1517.36  1529.62  1548.44  1580.89
                             1594.34  1615.48  1629.06  1680.20  1689.89
                             1701.94  1726.58  1735.24  1741.08  1771.42
                             1807.80  1817.28  1845.02  1856.87  1902.85
                             1912.60  1916.91  1923.88  1953.88  1958.17
                             1960.58  1999.51  2005.41  2040.04  2056.12
                             2076.40  2107.02  2113.52  2121.88  2128.73
                             2137.14  2145.31  2161.08  2164.76  2183.51
                             2193.98  2332.77  2361.14  2512.26  4243.78
                             4321.42  4375.14  4399.26  4405.67  4412.10
                             4422.20  4439.05  4461.86  4462.92  4486.07
                             4486.96  4500.27  4503.07  4518.05  4528.41
                             4552.66  4557.76  4574.25  4592.91  4614.78
                             4623.65

 Zero-point correction=                           0.358117 (Hartree/Particle)
 Thermal correction to Energy=                    0.385810
 Thermal correction to Enthalpy=                  0.386754
 Thermal correction to Gibbs Free Energy=         0.294398
 Sum of electronic and zero-point Energies=          -3531.061226
 Sum of electronic and thermal Energies=             -3531.033533
 Sum of electronic and thermal Enthalpies=           -3531.032589
 Sum of electronic and thermal Free Energies=        -3531.124945

                     E (Thermal)             CV                S
                      KCal/Mol        Cal/Mol-Kelvin    Cal/Mol-Kelvin
 Total                  242.099             97.583            194.379
 Electronic               0.000              0.000              3.561
 Translational            0.889              2.981             44.100
 Rotational               0.889              2.981             35.767
 Vibrational            240.322             91.621            110.952
 Vibration     1          0.593              1.987              7.693
 Vibration     2          0.593              1.985              6.183
 Vibration     3          0.594              1.983              5.723
 Vibration     4          0.594              1.982              5.344
 Vibration     5          0.596              1.976              4.665
 Vibration     6          0.596              1.975              4.552
 Vibration     7          0.597              1.971              4.271
 Vibration     8          0.599              1.967              4.062
 Vibration     9          0.601              1.959              3.735
 Vibration    10          0.601              1.958              3.707
 Vibration    11          0.602              1.957              3.672
 Vibration    12          0.605              1.947              3.391
 Vibration    13          0.606              1.943              3.311
 Vibration    14          0.608              1.935              3.152
 Vibration    15          0.609              1.932              3.094
 Vibration    16          0.610              1.929              3.037
 Vibration    17          0.615              1.912              2.792
 Vibration    18          0.619              1.900              2.644
 Vibration    19          0.621              1.895              2.584
 Vibration    20          0.626              1.877              2.416
 Vibration    21          0.635              1.849              2.195
 Vibration    22          0.638              1.839              2.125
 Vibration    23          0.656              1.782              1.818
 Vibration    24          0.662              1.763              1.733
 Vibration    25          0.670              1.739              1.636
 Vibration    26          0.681              1.708              1.526
 Vibration    27          0.691              1.679              1.434
 Vibration    28          0.702              1.646              1.338
 Vibration    29          0.720              1.594              1.208
 Vibration    30          0.724              1.584              1.186
 Vibration    31          0.730              1.568              1.150
 Vibration    32          0.754              1.502              1.020
 Vibration    33          0.760              1.487              0.992
 Vibration    34          0.770              1.459              0.943
 Vibration    35          0.772              1.453              0.934
 Vibration    36          0.781              1.430              0.897
 Vibration    37          0.816              1.344              0.773
 Vibration    38          0.860              1.240              0.647
 Vibration    39          0.866              1.226              0.631
 Vibration    40          0.904              1.142              0.546
 Vibration    41          0.942              1.064              0.476

                           ! Non-Optimized Parameters !
 Normal termination of Gaussian 16 at Sun Jun 20 06:20:59 2021.

 ----------------------------------------------------------------------
 #p ub3lyp jul-cc-pvdz pop=cm5 scrf=(pcm,solvent=dichloroethane) guess=
 read geom=allcheck
 ----------------------------------------------------------------------

 Structure from the checkpoint file:  "checkpoint.chk"
 -----
 title
 -----
 Charge =  0 Multiplicity = 6

 SCF Done:  E(UB3LYP) =  -3531.44298840     A.U. after   18 cycles
 Normal termination of Gaussian 16 at Sun Jun 20 06:40:58 2021.
 Gaussian 16:  ES64L-G16RevA.03 25-Dec-2016

 ----------------------------------------------------------------------
 #p ub3lyp jul-cc-pvdz pop=cm5 scrf=(pcm,solvent=water) guess=read geom
 =allcheck
 ----------------------------------------------------------------------

 Structure from the checkpoint file:  "checkpoint.chk"
 -----
 title
 -----
 Charge =  0 Multiplicity = 6

                         Standard orientation:
 ---------------------------------------------------------------------
 Center     Atomic      Atomic             Coordinates (Angstroms)
 Number     Number       Type             X           Y           Z
 ---------------------------------------------------------------------
      1          6           0       -2.606844    1.379160    0.455966
      2          6           0       -1.268192    1.028931    0.711055
      3          6           0       -0.750396    1.257379    1.997038
      4          6           0       -1.551627    1.808032    3.002021
      5          6           0       -2.881670    2.144839    2.740865
      6          6           0       -3.404720    1.928852    1.461616
      7          6           0       -0.355974    0.388515   -0.331725
      8          6           0       -0.801937   -0.989478   -0.963258
      9          6           0       -0.040183   -1.120951   -2.302228
     10          6           0        0.382356    0.302690   -2.740947
     11          6           0       -0.420298    1.288641   -1.889172
     12          6           0        0.030503    2.610791   -1.654072
     13          6           0        1.473803    2.897775   -1.536742
     14          8           0        0.906548    0.317237    0.069920
     15         26           0        2.482515   -0.672989    0.502577
     16         17           0        3.891457   -0.301845   -1.181433
     17          6           0       -0.922196    3.702058   -1.331695
     18         17           0        1.937878   -2.811051    0.691356
     19         17           0        3.194154    0.207805    2.405534
     20          1           0        0.282769    0.992853    2.213983
     21          1           0       -1.128571    1.967296    3.994880
     22          1           0       -3.507249    2.572491    3.525887
     23          1           0       -4.440815    2.191547    1.241982
     24          1           0       -3.044101    1.226626   -0.528657
     25          1           0       -0.472927   -1.734577   -0.230254
     26          6           0       -2.299116   -1.159910   -1.156696
     27          1           0        0.838375   -1.762182   -2.172996
     28          1           0       -0.681696   -1.590061   -3.056069
     29          1           0        1.458235    0.437413   -2.593346
     30          1           0        0.161820    0.484413   -3.801652
     31          1           0       -1.490030    1.239515   -2.113436
     32          1           0       -1.967294    3.436715   -1.511647
     33          1           0       -0.797482    3.974405   -0.267573
     34          1           0       -0.657121    4.604514   -1.904796
     35          1           0        1.686171    3.938526   -1.269957
     36          1           0        1.868081    2.212705   -0.756556
     37          1           0        2.027255    2.621693   -2.445451
     38          8           0       -2.828036   -1.951803   -0.212825
     39          8           0       -2.945317   -0.667023   -2.065262
     40          6           0       -4.256720   -2.210277   -0.299989
     41          6           0       -4.617225   -3.161604    0.822613
     42          1           0       -4.784384   -1.250145   -0.218112
     43          1           0       -4.469875   -2.631114   -1.291727
     44          1           0       -5.694679   -3.377438    0.785305
     45          1           0       -4.069937   -4.109168    0.726136
     46          1           0       -4.384184   -2.721692    1.801756
 ---------------------------------------------------------------------

 SCF Done:  E(UB3LYP) =  -3531.44726530     A.U. after   15 cycles

 The electronic state is 6-A.
 Alpha  occ. eigenvalues -- -256.20426-101.52278-101.52005-101.51979 -30.19852
 Alpha  occ. eigenvalues --  -26.05178 -26.05046 -26.05016 -19.20748 -19.16731
 Alpha  occ. eigenvalues --  -19.15519 -10.33202 -10.31239 -10.29065 -10.24975
 Alpha  occ. eigenvalues --  -10.22665 -10.22230 -10.21568 -10.21418 -10.21047
 Alpha  occ. eigenvalues --  -10.20465 -10.20333 -10.20284 -10.20224 -10.20193
 Alpha  occ. eigenvalues --  -10.20133 -10.19862 -10.18788  -9.44004  -9.43738
 Alpha  occ. eigenvalues --   -9.43701  -7.19866  -7.19605  -7.19571  -7.19556
 Alpha  occ. eigenvalues --   -7.19545  -7.19291  -7.19266  -7.19249  -7.19234
 Alpha  occ. eigenvalues --   -3.67546  -2.45091  -2.44819  -2.44759  -1.12477
 Alpha  occ. eigenvalues --   -1.05617  -1.03823  -0.88190  -0.86967  -0.83659
 Alpha  occ. eigenvalues --   -0.80139  -0.79433  -0.79256  -0.78903  -0.77791
 Alpha  occ. eigenvalues --   -0.75992  -0.75093  -0.73437  -0.71409  -0.66661
 Alpha  occ. eigenvalues --   -0.64175  -0.62150  -0.61181  -0.59653  -0.57507
 Alpha  occ. eigenvalues --   -0.56141  -0.54463  -0.53021  -0.51834  -0.50777
 Alpha  occ. eigenvalues --   -0.50260  -0.49284  -0.49118  -0.47847  -0.47804
 Alpha  occ. eigenvalues --   -0.47583  -0.47188  -0.46971  -0.46385  -0.45766
 Alpha  occ. eigenvalues --   -0.45047  -0.44742  -0.44166  -0.43677  -0.42952
 Alpha  occ. eigenvalues --   -0.42122  -0.41793  -0.40883  -0.40368  -0.40038
 Alpha  occ. eigenvalues --   -0.39491  -0.39202  -0.37664  -0.37385  -0.36971
 Alpha  occ. eigenvalues --   -0.36853  -0.36692  -0.36348  -0.35862  -0.35405
 Alpha  occ. eigenvalues --   -0.34824  -0.34315  -0.33894  -0.32070  -0.31926
 Alpha  occ. eigenvalues --   -0.31003  -0.30926  -0.30761  -0.30251  -0.29940
 Alpha  occ. eigenvalues --   -0.29757  -0.28990  -0.28807  -0.26849  -0.26314
 Alpha virt. eigenvalues --   -0.12508  -0.03894  -0.02782  -0.01653  -0.01519
 Alpha virt. eigenvalues --   -0.00354  -0.00051   0.00161   0.01378   0.01486
 Alpha virt. eigenvalues --    0.01681   0.01927   0.02669   0.03261   0.03791

  Beta  occ. eigenvalues -- -256.20241-101.52098-101.51833-101.51806 -30.10896
  Beta  occ. eigenvalues --  -25.97636 -25.97615 -25.97593 -19.20747 -19.16118
  Beta  occ. eigenvalues --  -19.15518 -10.33201 -10.31230 -10.29037 -10.24975
  Beta  occ. eigenvalues --  -10.22645 -10.22214 -10.21546 -10.21419 -10.21049
  Beta  occ. eigenvalues --  -10.20464 -10.20333 -10.20283 -10.20224 -10.20192
  Beta  occ. eigenvalues --  -10.20134 -10.19862 -10.18788  -9.43827  -9.43570
  Beta  occ. eigenvalues --   -9.43531  -7.19569  -7.19315  -7.19313  -7.19304
  Beta  occ. eigenvalues --   -7.19275  -7.19053  -7.19050  -7.19015  -7.19013
  Beta  occ. eigenvalues --   -3.46670  -2.22956  -2.22895  -2.22819  -1.12473
  Beta  occ. eigenvalues --   -1.04445  -1.03809  -0.88064  -0.86945  -0.83583
  Beta  occ. eigenvalues --   -0.79001  -0.78906  -0.78211  -0.78053  -0.77690
  Beta  occ. eigenvalues --   -0.75984  -0.75067  -0.73428  -0.71332  -0.66484
  Beta  occ. eigenvalues --   -0.64057  -0.62106  -0.61147  -0.59355  -0.57078
  Beta  occ. eigenvalues --   -0.56009  -0.54299  -0.52333  -0.51494  -0.50475
  Beta  occ. eigenvalues --   -0.50038  -0.49014  -0.48658  -0.46870  -0.46370
  Beta  occ. eigenvalues --   -0.45500  -0.45135  -0.44212  -0.43752  -0.42969
  Beta  occ. eigenvalues --   -0.42162  -0.41762  -0.40844  -0.40368  -0.40038
  Beta  occ. eigenvalues --   -0.39415  -0.39163  -0.37923  -0.37571  -0.36955
  Beta  occ. eigenvalues --   -0.36851  -0.36588  -0.36344  -0.35897  -0.35807
  Beta  occ. eigenvalues --   -0.35666  -0.35555  -0.34537  -0.33123  -0.33079
  Beta  occ. eigenvalues --   -0.32350  -0.32253  -0.32085  -0.31718  -0.29979
  Beta  occ. eigenvalues --   -0.29610  -0.29032  -0.28792  -0.26857  -0.26287
  Beta virt. eigenvalues --   -0.14383  -0.14057  -0.13268  -0.12916  -0.12370
  Beta virt. eigenvalues --   -0.11296  -0.03842  -0.02765  -0.01615  -0.01412
  Beta virt. eigenvalues --   -0.00312  -0.00026   0.00189   0.01408   0.01495

 Mulliken charges and spin densities:
               1          2
     1  C   -0.043884  -0.000443
     2  C    2.492673   0.015851
     3  C   -0.726145  -0.007840
     4  C    0.051675   0.003335
     5  C    0.278969  -0.001925
     6  C   -0.065321   0.002265
     7  C   -1.738058  -0.005385
     8  C    1.149022  -0.000966
     9  C    0.518392   0.000599
    10  C    0.481345   0.001619
    11  C    0.465011   0.006842
    12  C   -0.559619   0.020042
    13  C    0.208019  -0.001577
    14  O   -0.580140   0.194552
    15  Fe   0.739507   4.054195
    16  Cl  -0.502493   0.233429
    17  C    0.413269  -0.001045
    18  Cl  -0.492814   0.238269
    19  Cl  -0.495545   0.236244
    20  H   -0.249513   0.002566
    21  H   -0.162826  -0.000016
    22  H   -0.159898   0.000021
    23  H   -0.164954   0.000172
    24  H   -0.193639  -0.000008
    25  H   -0.212189  -0.001021
    26  C    0.535215   0.005310
    27  H   -0.074910   0.000046
    28  H   -0.118754   0.000179
    29  H   -0.042551  -0.000333
    30  H   -0.121239  -0.000082
    31  H   -0.189612  -0.000204
    32  H    0.016919   0.000034
    33  H    0.107760   0.001892
    34  H    0.017183   0.000761
    35  H   -0.023768   0.000097
    36  H    0.170898   0.001026
    37  H    0.076985   0.000815
    38  O   -0.682202   0.000073
    39  O   -0.600045   0.000535
    40  C    0.429475   0.000001
    41  C    0.086416   0.000023
    42  H   -0.038436   0.000025
    43  H   -0.040506   0.000008
    44  H   -0.003516   0.000011
    45  H    0.022512   0.000009
    46  H    0.021332   0.000000
 Sum of Mulliken charges =  -0.00000   5.00000

 Dipole moment (field-independent basis, Debye):
    X=            -11.6957    Y=              9.2790    Z=             -5.1214  Tot=             15.7834
 Quadrupole moment (field-independent basis, Debye-Ang):
   XX=           -193.8187   YY=           -155.3196   ZZ=           -175.8177
   XY=             10.3628   XZ=            -15.0053   YZ=             -6.3196

 Normal termination of Gaussian 16 at Sun Jun 20 06:57:33 2021.
