 Gaussian 16, Revision A.03,

 -----------------------------------------------------------
 #p opt=modredundant freq=noraman ub3lyp jul-cc-pvdz pop=cm5
 -----------------------------------------------------------

 -----
 title
 -----
 Symbolic Z-matrix:
 Charge =  0 Multiplicity = 6

 SCF Done:  E(UB3LYP) =  -3531.43182046     A.U. after   22 cycles
 SCF Done:  E(UB3LYP) =  -3531.43216802     A.U. after   14 cycles
 SCF Done:  E(UB3LYP) =  -3531.43159838     A.U. after   15 cycles
 SCF Done:  E(UB3LYP) =  -3531.43234770     A.U. after   14 cycles
 SCF Done:  E(UB3LYP) =  -3531.43236453     A.U. after   13 cycles
 SCF Done:  E(UB3LYP) =  -3531.43237475     A.U. after   13 cycles
 SCF Done:  E(UB3LYP) =  -3531.43237679     A.U. after   12 cycles
 SCF Done:  E(UB3LYP) =  -3531.43237741     A.U. after   12 cycles
 SCF Done:  E(UB3LYP) =  -3531.43237773     A.U. after   12 cycles
 SCF Done:  E(UB3LYP) =  -3531.43237772     A.U. after   12 cycles
 SCF Done:  E(UB3LYP) =  -3531.43237804     A.U. after   10 cycles
 SCF Done:  E(UB3LYP) =  -3531.43237809     A.U. after    9 cycles
 Optimization completed.
    -- Stationary point found.
 Normal termination of Gaussian 16 at Sun Jun 20 01:23:17 2021.

 ----------------------------------------------------------------------
 #P Geom=AllCheck Guess=TCheck SCRF=Check GenChk UB3LYP/Jul-CC-pVDZ Fre
 q
 ----------------------------------------------------------------------

 Structure from the checkpoint file:  "checkpoint.chk"
 -----
 title
 -----
 Charge =  0 Multiplicity = 6

 SCF Done:  E(UB3LYP) =  -3531.43237809     A.U. after    1 cycles

  Exact polarizability: 282.029   7.536 290.562  22.913   0.103 285.620
 Approx polarizability: 411.513   9.226 459.419  41.883  -5.929 452.302

                      1                      2                      3
                      A                      A                      A
 Frequencies --     18.4764                26.6138                31.5223
 Red. masses --      5.3395                 6.3312                 4.5164
 Frc consts  --      0.0011                 0.0026                 0.0026
 IR Inten    --      0.5411                 0.2247                 0.3118

                      4                      5                      6
                      A                      A                      A
 Frequencies --     39.1537                46.0825                65.1116
 Red. masses --      5.4178                 4.8636                 2.7062
 Frc consts  --      0.0049                 0.0061                 0.0068
 IR Inten    --      0.2295                 1.4749                 0.5880

                      7                      8                      9
                      A                      A                      A
 Frequencies --     69.0788                76.9352                80.0726
 Red. masses --      5.0735                11.6042                 7.3870
 Frc consts  --      0.0143                 0.0405                 0.0279
 IR Inten    --      0.1966                 0.5319                 0.5804

                     10                     11                     12
                      A                      A                      A
 Frequencies --     86.8764               101.6441               115.2638
 Red. masses --      9.8731                 5.8781                18.9170
 Frc consts  --      0.0439                 0.0358                 0.1481
 IR Inten    --      1.5402                 0.7824                 1.1789

                     13                     14                     15
                      A                      A                      A
 Frequencies --    115.8965               121.5933               129.5076
 Red. masses --     10.0993                 5.8852                 3.6513
 Frc consts  --      0.0799                 0.0513                 0.0361
 IR Inten    --      4.0786                 0.3707                 2.8557

                     16                     17                     18
                      A                      A                      A
 Frequencies --    146.7696               169.7596               185.9788
 Red. masses --      3.8066                 2.4456                 5.9479
 Frc consts  --      0.0483                 0.0415                 0.1212
 IR Inten    --      3.5142                 0.7781                10.5856

                     19                     20                     21
                      A                      A                      A
 Frequencies --    192.5947               223.5453               225.6489
 Red. masses --      3.2208                 3.3962                 1.2921
 Frc consts  --      0.0704                 0.1000                 0.0388
 IR Inten    --      2.1446                 4.3182                 1.9080

                     22                     23                     24
                      A                      A                      A
 Frequencies --    240.2360               254.9759               258.3986
 Red. masses --      3.2124                 2.5063                 1.6415
 Frc consts  --      0.1092                 0.0960                 0.0646
 IR Inten    --      0.2166                 1.0179                 0.6170

                     25                     26                     27
                      A                      A                      A
 Frequencies --    267.4206               299.1672               313.1840
 Red. masses --      1.1797                 3.4173                 2.9085
 Frc consts  --      0.0497                 0.1802                 0.1681
 IR Inten    --      1.3284                 3.2960                 0.5704

                     28                     29                     30
                      A                      A                      A
 Frequencies --    339.1484               348.5781               367.6891
 Red. masses --      4.4389                24.3122                 2.9606
 Frc consts  --      0.3008                 1.7405                 0.2358
 IR Inten    --      8.0873                33.7178                 9.5458

                     31                     32                     33
                      A                      A                      A
 Frequencies --    372.6736               398.4802               400.2161
 Red. masses --      3.2956                21.2628                 3.7734
 Frc consts  --      0.2697                 1.9892                 0.3561
 IR Inten    --      3.5260                75.1125                 4.7812

                     34                     35                     36
                      A                      A                      A
 Frequencies --    407.3983               410.3790               439.0152
 Red. masses --     36.2819                 2.9562                 4.3228
 Frc consts  --      3.5480                 0.2933                 0.4909
 IR Inten    --     81.5046                 0.3775                12.0271

                     37                     38                     39
                      A                      A                      A
 Frequencies --    464.9009               513.2201               529.7601
 Red. masses --      3.8328                 3.4292                 2.6662
 Frc consts  --      0.4881                 0.5322                 0.4409
 IR Inten    --     10.3480                13.8599                 1.4648

                     40                     41                     42
                      A                      A                      A
 Frequencies --    547.7032               576.6073               626.9498
 Red. masses --      3.0062                 6.9767                 6.0071
 Frc consts  --      0.5313                 1.3667                 1.3912
 IR Inten    --     14.3660               123.7907                 0.4743

                     43                     44                     45
                      A                      A                      A
 Frequencies --    635.0101               662.9019               697.7915
 Red. masses --      4.5494                 5.6146                 3.3422
 Frc consts  --      1.0809                 1.4537                 0.9588
 IR Inten    --     12.9751                19.6112                 5.3951

                     46                     47                     48
                      A                      A                      A
 Frequencies --    706.4311               747.3890               759.1955
 Red. masses --      1.6503                 5.0243                 2.7485
 Frc consts  --      0.4852                 1.6536                 0.9334
 IR Inten    --     42.7277                19.6041                13.2876

                     49                     50                     51
                      A                      A                      A
 Frequencies --    783.3359               799.2220               807.0447
 Red. masses --      3.0126                 2.7190                 1.2550
 Frc consts  --      1.0892                 1.0233                 0.4816
 IR Inten    --     19.8775                15.7768                 2.2013

                     52                     53                     54
                      A                      A                      A
 Frequencies --    835.1605               845.9271               870.3800
 Red. masses --      3.1546                 1.2754                 2.6831
 Frc consts  --      1.2964                 0.5377                 1.1976
 IR Inten    --     67.7528                 2.3540                 8.0970

                     55                     56                     57
                      A                      A                      A
 Frequencies --    879.8612               907.3528               928.5523
 Red. masses --      3.1151                 2.4289                 1.6682
 Frc consts  --      1.4209                 1.1782                 0.8474
 IR Inten    --      4.8781                88.1398                 2.9097

                     58                     59                     60
                      A                      A                      A
 Frequencies --    941.0497               941.8521               957.6639
 Red. masses --      1.5201                 2.4206                 2.5265
 Frc consts  --      0.7931                 1.2651                 1.3652
 IR Inten    --      1.6413                14.4381                 5.9349

                     61                     62                     63
                      A                      A                      A
 Frequencies --    979.3915               982.3438              1002.1685
 Red. masses --      2.1071                 1.3606                 1.3241
 Frc consts  --      1.1908                 0.7736                 0.7835
 IR Inten    --      7.9210                 1.1136                 1.3317

                     64                     65                     66
                      A                      A                      A
 Frequencies --   1006.4783              1010.4760              1017.3423
 Red. masses --      5.2417                 1.6017                 2.1005
 Frc consts  --      3.1285                 0.9636                 1.2809
 IR Inten    --      1.7129                 4.2687                19.0683

                     67                     68                     69
                      A                      A                      A
 Frequencies --   1037.4408              1048.3170              1054.4711
 Red. masses --      2.6178                 2.7716                 1.9802
 Frc consts  --      1.6600                 1.7946                 1.2972
 IR Inten    --     26.5738                12.4590                 7.9337

                     70                     71                     72
                      A                      A                      A
 Frequencies --   1063.4429              1099.7042              1106.5095
 Red. masses --      2.0901                 1.7822                 2.1575
 Frc consts  --      1.3926                 1.2699                 1.5564
 IR Inten    --      5.5054                 1.5742                19.4318

                     73                     74                     75
                      A                      A                      A
 Frequencies --   1123.3676              1132.5949              1146.2075
 Red. masses --      1.5455                 2.1838                 1.8040
 Frc consts  --      1.1491                 1.6505                 1.3964
 IR Inten    --      5.1250                 9.0492                15.5538

                     76                     77                     78
                      A                      A                      A
 Frequencies --   1160.1338              1169.1080              1175.6278
 Red. masses --      1.6027                 1.5559                 1.0872
 Frc consts  --      1.2709                 1.2530                 0.8853
 IR Inten    --     27.8655                 1.8701                 0.0731

                     79                     80                     81
                      A                      A                      A
 Frequencies --   1198.6691              1208.4769              1219.6543
 Red. masses --      1.9724                 1.1616                 1.9199
 Frc consts  --      1.6698                 0.9995                 1.6827
 IR Inten    --    172.2971                 6.9046                61.9064

                     82                     83                     84
                      A                      A                      A
 Frequencies --   1247.7043              1270.1939              1283.0259
 Red. masses --      1.7267                 2.5059                 1.1172
 Frc consts  --      1.5837                 2.3820                 1.0835
 IR Inten    --     37.1983                43.6437                 1.7321

                     85                     86                     87
                      A                      A                      A
 Frequencies --   1290.3912              1301.6403              1316.1113
 Red. masses --      2.4876                 1.6258                 1.3784
 Frc consts  --      2.4404                 1.6229                 1.4067
 IR Inten    --     32.5091                26.6903                 3.6517

                     88                     89                     90
                      A                      A                      A
 Frequencies --   1326.9430              1334.7753              1359.8435
 Red. masses --      1.6751                 1.8608                 2.1639
 Frc consts  --      1.7377                 1.9533                 2.3575
 IR Inten    --     26.8714                18.6565                 0.5987

                     91                     92                     93
                      A                      A                      A
 Frequencies --   1363.2251              1370.4087              1389.5960
 Red. masses --      1.4291                 1.5956                 1.5396
 Frc consts  --      1.5648                 1.7655                 1.7516
 IR Inten    --     32.0980                 3.5722                60.6013

                     94                     95                     96
                      A                      A                      A
 Frequencies --   1406.0955              1416.4252              1417.0387
 Red. masses --      1.3858                 1.4169                 1.2970
 Frc consts  --      1.6143                 1.6748                 1.5345
 IR Inten    --     23.0845                14.6773                 9.0655

                     97                     98                     99
                      A                      A                      A
 Frequencies --   1467.4645              1468.5853              1473.8347
 Red. masses --      1.0703                 2.2424                 1.0395
 Frc consts  --      1.3580                 2.8494                 1.3304
 IR Inten    --      2.2685                 7.2026                 4.0925

                    100                    101                    102
                      A                      A                      A
 Frequencies --   1479.9554              1487.1059              1487.2768
 Red. masses --      1.0578                 1.0534                 1.0715
 Frc consts  --      1.3651                 1.3726                 1.3964
 IR Inten    --      0.8908                 2.1627                 0.2766

                    103                    104                    105
                      A                      A                      A
 Frequencies --   1490.1578              1499.5358              1507.1742
 Red. masses --      1.0726                 1.0871                 1.0847
 Frc consts  --      1.4033                 1.4402                 1.4517
 IR Inten    --      6.4599                10.3982                 5.9842

                    106                    107                    108
                      A                      A                      A
 Frequencies --   1511.9878              1524.5550              1624.9624
 Red. masses --      1.0675                 2.2609                 5.6439
 Frc consts  --      1.4378                 3.0961                 8.7804
 IR Inten    --      3.8595                 2.9220                 0.4041

                    109                    110                    111
                      A                      A                      A
 Frequencies --   1648.1195              1772.4812              3033.9637
 Red. masses --      5.7499                11.5388                 1.0397
 Frc consts  --      9.2022                21.3587                 5.6385
 IR Inten    --      0.0607               200.2034                 4.2022

                    112                    113                    114
                      A                      A                      A
 Frequencies --   3040.2679              3042.6288              3057.4306
 Red. masses --      1.0354                 1.0414                 1.0602
 Frc consts  --      5.6389                 5.6802                 5.8391
 IR Inten    --     18.2336                11.0232                 7.6342

                    115                    116                    117
                      A                      A                      A
 Frequencies --   3058.2946              3066.0761              3085.7627
 Red. masses --      1.0584                 1.0615                 1.0875
 Frc consts  --      5.8323                 5.8796                 6.1013
 IR Inten    --     18.1307                41.2494                 7.2183

                    118                    119                    120
                      A                      A                      A
 Frequencies --   3098.5969              3101.7868              3113.4196
 Red. masses --      1.1024                 1.1071                 1.0962
 Frc consts  --      6.2365                 6.2759                 6.2607
 IR Inten    --      5.7159                 5.8746                 6.0036

                    121                    122                    123
                      A                      A                      A
 Frequencies --   3115.1772              3116.0979              3123.4413
 Red. masses --      1.1033                 1.1018                 1.0946
 Frc consts  --      6.3082                 6.3035                 6.2919
 IR Inten    --     14.2852                23.0813                 8.4635

                    124                    125                    126
                      A                      A                      A
 Frequencies --   3132.1932              3138.7749              3144.5771
 Red. masses --      1.1047                 1.0908                 1.1024
 Frc consts  --      6.3853                 6.3319                 6.4229
 IR Inten    --     26.1898                 7.5184                10.2451

                    127                    128                    129
                      A                      A                      A
 Frequencies --   3154.4262              3170.4450              3180.2377
 Red. masses --      1.1030                 1.0849                 1.0885
 Frc consts  --      6.4662                 6.4253                 6.4864
 IR Inten    --      6.0220                 0.0089                 6.9684

                    130                    131                    132
                      A                      A                      A
 Frequencies --   3188.9623              3196.3610              3201.1534
 Red. masses --      1.0922                 1.0947                 1.0973
 Frc consts  --      6.5441                 6.5897                 6.6248
 IR Inten    --      8.0693                11.2439                 9.8047

 - Thermochemistry -
 -------------------
 Temperature   298.150 Kelvin.  Pressure   1.00000 Atm.
 Atom     1 has atomic number  6 and mass  12.00000

 Molecular mass:   434.99839 amu.
 Principal axes and moments of inertia in atomic units:
                           1         2         3
     Eigenvalues --  8946.87016********************
           X            0.99539   0.09457   0.01621
           Y           -0.09499   0.99510   0.02731
           Z           -0.01354  -0.02872   0.99950
 This molecule is an asymmetric top.
 Rotational symmetry number  1.
 Warning -- assumption of classical behavior for rotation
           may cause significant error
 Rotational temperatures (Kelvin)      0.00968     0.00742     0.00687
 Rotational constants (GHZ):           0.20172     0.15461     0.14307
 Zero-point vibrational energy     947376.4 (Joules/Mol)
                                  226.42839 (Kcal/Mol)
 Warning -- explicit consideration of  41 degrees of freedom as
           vibrations may cause significant error
 Vibrational temperatures:     26.58    38.29    45.35    56.33    66.30
          (Kelvin)             93.68    99.39   110.69   115.21   125.00
                              146.24   165.84   166.75   174.95   186.33
                              211.17   244.25   267.58   277.10   321.63
                              324.66   345.65   366.85   371.78   384.76
                              430.43   450.60   487.96   501.53   529.02
                              536.19   573.32   575.82   586.16   590.44
                              631.64   668.89   738.41   762.21   788.02
                              829.61   902.04   913.64   953.77  1003.97
                             1016.40  1075.33  1092.31  1127.05  1149.90
                             1161.16  1201.61  1217.10  1252.28  1265.92
                             1305.48  1335.98  1353.96  1355.12  1377.86
                             1409.13  1413.37  1441.90  1448.10  1453.85
                             1463.73  1492.65  1508.29  1517.15  1530.06
                             1582.23  1592.02  1616.28  1629.55  1649.14
                             1669.17  1682.09  1691.47  1724.62  1738.73
                             1754.81  1795.17  1827.53  1845.99  1856.59
                             1872.77  1893.59  1909.17  1920.44  1956.51
                             1961.38  1971.71  1999.32  2023.06  2037.92
                             2038.80  2111.35  2112.97  2120.52  2129.33
                             2139.61  2139.86  2144.00  2157.50  2168.49
                             2175.41  2193.49  2337.96  2371.28  2550.21
                             4365.20  4374.27  4377.66  4398.96  4400.20
                             4411.40  4439.72  4458.19  4462.78  4479.52
                             4482.05  4483.37  4493.94  4506.53  4516.00
                             4524.35  4538.52  4561.56  4575.65  4588.21
                             4598.85  4605.75

 Zero-point correction=                           0.360837 (Hartree/Particle)
 Thermal correction to Energy=                    0.387933
 Thermal correction to Enthalpy=                  0.388877
 Thermal correction to Gibbs Free Energy=         0.298987
 Sum of electronic and zero-point Energies=          -3531.071541
 Sum of electronic and thermal Energies=             -3531.044445
 Sum of electronic and thermal Enthalpies=           -3531.043501
 Sum of electronic and thermal Free Energies=        -3531.133391

                     E (Thermal)             CV                S
                      KCal/Mol        Cal/Mol-Kelvin    Cal/Mol-Kelvin
 Total                  243.432             97.784            189.189
 Electronic               0.000              0.000              3.561
 Translational            0.889              2.981             44.100
 Rotational               0.889              2.981             35.531
 Vibrational            241.654             91.822            105.997
 Vibration     1          0.593              1.986              6.792
 Vibration     2          0.593              1.984              6.067
 Vibration     3          0.594              1.983              5.731
 Vibration     4          0.594              1.981              5.301
 Vibration     5          0.595              1.979              4.979
 Vibration     6          0.597              1.971              4.296
 Vibration     7          0.598              1.969              4.179
 Vibration     8          0.599              1.965              3.968
 Vibration     9          0.600              1.963              3.889
 Vibration    10          0.601              1.958              3.729
 Vibration    11          0.604              1.948              3.423
 Vibration    12          0.608              1.937              3.178
 Vibration    13          0.608              1.936              3.168
 Vibration    14          0.609              1.931              3.075
 Vibration    15          0.612              1.924              2.953
 Vibration    16          0.617              1.906              2.714
 Vibration    17          0.625              1.880              2.438
 Vibration    18          0.632              1.859              2.268
 Vibration    19          0.635              1.850              2.203
 Vibration    20          0.649              1.805              1.930
 Vibration    21          0.650              1.802              1.913
 Vibration    22          0.657              1.779              1.801
 Vibration    23          0.665              1.754              1.696
 Vibration    24          0.667              1.749              1.673
 Vibration    25          0.673              1.733              1.613
 Vibration    26          0.692              1.675              1.422
 Vibration    27          0.701              1.649              1.345
 Vibration    28          0.719              1.597              1.216
 Vibration    29          0.726              1.578              1.173
 Vibration    30          0.740              1.539              1.089
 Vibration    31          0.744              1.528              1.069
 Vibration    32          0.765              1.473              0.968
 Vibration    33          0.766              1.470              0.962
 Vibration    34          0.772              1.454              0.936
 Vibration    35          0.775              1.448              0.925
 Vibration    36          0.799              1.385              0.830
 Vibration    37          0.822              1.328              0.752
 Vibration    38          0.868              1.221              0.626
 Vibration    39          0.885              1.184              0.588
 Vibration    40          0.903              1.145              0.549
 Vibration    41          0.933              1.082              0.492

                           ! Non-Optimized Parameters !
 Normal termination of Gaussian 16 at Sun Jun 20 04:48:25 2021.

 ----------------------------------------------------------------------
 #p ub3lyp jul-cc-pvdz pop=cm5 scrf=(pcm,solvent=dichloroethane) guess=
 read geom=allcheck
 ----------------------------------------------------------------------

 Structure from the checkpoint file:  "checkpoint.chk"
 -----
 title
 -----
 Charge =  0 Multiplicity = 6

 SCF Done:  E(UB3LYP) =  -3531.45003510     A.U. after   17 cycles
 Normal termination of Gaussian 16 at Sun Jun 20 05:09:07 2021.
 Gaussian 16:  ES64L-G16RevA.03 25-Dec-2016

 ----------------------------------------------------------------------
 #p ub3lyp jul-cc-pvdz pop=cm5 scrf=(pcm,solvent=water) guess=read geom
 =allcheck
 ----------------------------------------------------------------------

 Structure from the checkpoint file:  "checkpoint.chk"
 -----
 title
 -----
 Charge =  0 Multiplicity = 6

                         Standard orientation:
 ---------------------------------------------------------------------
 Center     Atomic      Atomic             Coordinates (Angstroms)
 Number     Number       Type             X           Y           Z
 ---------------------------------------------------------------------
      1          6           0        1.515027   -2.289679    1.663304
      2          6           0        1.083216   -1.116942    1.028672
      3          6           0        1.217445    0.104330    1.709308
      4          6           0        1.743395    0.144915    3.000610
      5          6           0        2.166379   -1.031057    3.627239
      6          6           0        2.057339   -2.247710    2.951260
      7          6           0        0.542754   -1.144955   -0.376152
      8          6           0        1.477897   -0.641465   -1.518163
      9          6           0        1.970900   -1.932916   -2.205809
     10          6           0        0.749801   -2.869607   -2.284585
     11          6           0       -0.052416   -2.607649   -1.005666
     12          6           0       -1.449991   -1.946301   -1.048423
     13          6           0       -2.086505   -1.704514   -2.397848
     14          8           0       -0.843103   -0.571923   -0.498166
     15         26           0       -1.914303    0.990064    0.272025
     16         17           0       -3.777012    1.060385   -0.905202
     17          6           0       -2.413269   -2.492169   -0.016027
     18         17           0       -0.735576    2.822368   -0.013395
     19         17           0       -2.350189    0.534118    2.374974
     20          1           0        0.909977    1.035662    1.234909
     21          1           0        1.821829    1.101688    3.518182
     22          1           0        2.580806   -0.997902    4.635826
     23          1           0        2.392002   -3.171548    3.425019
     24          1           0        1.447843   -3.249694    1.153653
     25          1           0        0.856568   -0.051865   -2.203307
     26          6           0        2.656918    0.222261   -1.084233
     27          1           0        2.412467   -1.721628   -3.188934
     28          1           0        2.761496   -2.373890   -1.583587
     29          1           0        0.160083   -2.653118   -3.183923
     30          1           0        1.057219   -3.921156   -2.355332
     31          1           0       -0.020528   -3.432963   -0.290986
     32          1           0       -2.722906   -3.498387   -0.338010
     33          1           0       -1.941986   -2.573047    0.970265
     34          1           0       -3.311811   -1.868906    0.066476
     35          1           0       -2.336362   -2.678986   -2.844122
     36          1           0       -3.010280   -1.126225   -2.293133
     37          1           0       -1.418808   -1.172548   -3.084221
     38          8           0        2.405278    1.528353   -1.275700
     39          8           0        3.701851   -0.214477   -0.650170
     40          6           0        3.463177    2.451936   -0.893194
     41          6           0        3.015244    3.847994   -1.274917
     42          1           0        3.630941    2.347988    0.187509
     43          1           0        4.385187    2.150834   -1.408342
     44          1           0        3.793073    4.569723   -0.986380
     45          1           0        2.854799    3.927425   -2.359087
     46          1           0        2.081384    4.115622   -0.763492
 ---------------------------------------------------------------------

 SCF Done:  E(UB3LYP) =  -3531.45335539     A.U. after   13 cycles

 The electronic state is 6-A.
 Alpha  occ. eigenvalues -- -256.21890-101.53261-101.53215-101.53053 -30.21230
 Alpha  occ. eigenvalues --  -26.06658 -26.06419 -26.06335 -19.21436 -19.20329
 Alpha  occ. eigenvalues --  -19.15186 -10.32844 -10.29214 -10.28624 -10.24759
 Alpha  occ. eigenvalues --  -10.22078 -10.22057 -10.21671 -10.20588 -10.20408
 Alpha  occ. eigenvalues --  -10.20360 -10.20312 -10.20282 -10.19862 -10.19645
 Alpha  occ. eigenvalues --  -10.19537 -10.19344 -10.18623  -9.44973  -9.44945
 Alpha  occ. eigenvalues --   -9.44781  -7.20839  -7.20814  -7.20652  -7.20541
 Alpha  occ. eigenvalues --   -7.20517  -7.20508  -7.20470  -7.20338  -7.20321
 Alpha  occ. eigenvalues --   -3.68849  -2.46511  -2.46133  -2.45934  -1.12065
 Alpha  occ. eigenvalues --   -1.06801  -1.03591  -0.87802  -0.85278  -0.82666
 Alpha  occ. eigenvalues --   -0.81297  -0.80528  -0.80411  -0.78578  -0.77842
 Alpha  occ. eigenvalues --   -0.76204  -0.74410  -0.71767  -0.71019  -0.66433
 Alpha  occ. eigenvalues --   -0.64121  -0.62242  -0.60984  -0.59493  -0.56988
 Alpha  occ. eigenvalues --   -0.56037  -0.54256  -0.52816  -0.51420  -0.50651
 Alpha  occ. eigenvalues --   -0.50059  -0.49331  -0.49097  -0.48964  -0.48857
 Alpha  occ. eigenvalues --   -0.48337  -0.47894  -0.47038  -0.46378  -0.46122
 Alpha  occ. eigenvalues --   -0.45121  -0.44696  -0.43927  -0.43289  -0.42870
 Alpha  occ. eigenvalues --   -0.41855  -0.40837  -0.40324  -0.40034  -0.39874
 Alpha  occ. eigenvalues --   -0.39345  -0.38303  -0.37966  -0.37226  -0.37145
 Alpha  occ. eigenvalues --   -0.36763  -0.36694  -0.36147  -0.35658  -0.35245
 Alpha  occ. eigenvalues --   -0.35132  -0.34642  -0.34016  -0.32670  -0.32140
 Alpha  occ. eigenvalues --   -0.31747  -0.31721  -0.31577  -0.31512  -0.30992
 Alpha  occ. eigenvalues --   -0.30480  -0.30426  -0.29215  -0.26920  -0.26673
 Alpha virt. eigenvalues --   -0.03926  -0.03100  -0.01557  -0.01383  -0.00683
 Alpha virt. eigenvalues --   -0.00105  -0.00039   0.00139   0.01533   0.01671
 Alpha virt. eigenvalues --    0.01754   0.01889   0.02321   0.03205   0.03723

  Beta  occ. eigenvalues -- -256.21705-101.53058-101.53011-101.52850 -30.12335
  Beta  occ. eigenvalues --  -25.99125 -25.99054 -25.98990 -19.21100 -19.20328
  Beta  occ. eigenvalues --  -19.15185 -10.32844 -10.29192 -10.28612 -10.24759
  Beta  occ. eigenvalues --  -10.22066 -10.22053 -10.21669 -10.20586 -10.20408
  Beta  occ. eigenvalues --  -10.20360 -10.20312 -10.20281 -10.19861 -10.19643
  Beta  occ. eigenvalues --  -10.19536 -10.19341 -10.18622  -9.44774  -9.44745
  Beta  occ. eigenvalues --   -9.44582  -7.20520  -7.20488  -7.20329  -7.20248
  Beta  occ. eigenvalues --   -7.20238  -7.20223  -7.20205  -7.20054  -7.20045
  Beta  occ. eigenvalues --   -3.48090  -2.24368  -2.24337  -2.24232  -1.12063
  Beta  occ. eigenvalues --   -1.06205  -1.03588  -0.87772  -0.85195  -0.82593
  Beta  occ. eigenvalues --   -0.79991  -0.79133  -0.79004  -0.78563  -0.77805
  Beta  occ. eigenvalues --   -0.76197  -0.74393  -0.71715  -0.70903  -0.66408
  Beta  occ. eigenvalues --   -0.64065  -0.62228  -0.60915  -0.59387  -0.56939
  Beta  occ. eigenvalues --   -0.55403  -0.54184  -0.52336  -0.51265  -0.50154
  Beta  occ. eigenvalues --   -0.49615  -0.49026  -0.47438  -0.46723  -0.46435
  Beta  occ. eigenvalues --   -0.45213  -0.44702  -0.43944  -0.43330  -0.42868
  Beta  occ. eigenvalues --   -0.41848  -0.40837  -0.40267  -0.39999  -0.39819
  Beta  occ. eigenvalues --   -0.39054  -0.38328  -0.37981  -0.37307  -0.37135
  Beta  occ. eigenvalues --   -0.36948  -0.36831  -0.36763  -0.36656  -0.36036
  Beta  occ. eigenvalues --   -0.35586  -0.35031  -0.34090  -0.34005  -0.33857
  Beta  occ. eigenvalues --   -0.33202  -0.32980  -0.32048  -0.31752  -0.31416
  Beta  occ. eigenvalues --   -0.30764  -0.30322  -0.29184  -0.26905  -0.26648
  Beta virt. eigenvalues --   -0.15939  -0.15487  -0.14415  -0.14260  -0.14075
  Beta virt. eigenvalues --   -0.03835  -0.03062  -0.01394  -0.01325  -0.00403
  Beta virt. eigenvalues --   -0.00053  -0.00010   0.00183   0.01549   0.01696

 Mulliken charges and spin densities:
               1          2
     1  C   -0.202436   0.005512
     2  C    3.035542  -0.004151
     3  C   -0.406228  -0.020119
     4  C    0.033456   0.002433
     5  C    0.264198   0.001062
     6  C   -0.172249   0.001486
     7  C   -1.979480   0.027181
     8  C    0.167326  -0.000314
     9  C    0.474739   0.001253
    10  C    0.566456   0.001088
    11  C    0.703545   0.001567
    12  C   -0.744217   0.009633
    13  C    0.406599  -0.001624
    14  O   -0.259020   0.083979
    15  Fe   0.546692   4.055653
    16  Cl  -0.454768   0.280563
    17  C    0.487950   0.002319
    18  Cl  -0.433416   0.278989
    19  Cl  -0.429745   0.272270
    20  H   -0.309115   0.000435
    21  H   -0.163406   0.000024
    22  H   -0.162629   0.000016
    23  H   -0.159792   0.000014
    24  H   -0.192042  -0.000019
    25  H   -0.217978  -0.000203
    26  C    1.047398  -0.000252
    27  H   -0.139562   0.000270
    28  H   -0.053808  -0.000019
    29  H   -0.096448  -0.000005
    30  H   -0.126408   0.000369
    31  H   -0.236452   0.001248
    32  H    0.006900  -0.000067
    33  H    0.041497  -0.000793
    34  H    0.028833   0.000350
    35  H    0.026030   0.001367
    36  H    0.012184  -0.000324
    37  H    0.036063  -0.000397
    38  O   -0.696884  -0.001292
    39  O   -0.668390   0.000524
    40  C    0.405115  -0.000402
    41  C    0.062050   0.000891
    42  H   -0.041104   0.000025
    43  H   -0.049310   0.000005
    44  H   -0.003405   0.000062
    45  H    0.020889   0.000015
    46  H    0.024825  -0.000624
 Sum of Mulliken charges =  -0.00000   5.00000

 Dipole moment (field-independent basis, Debye):
    X=              3.7362    Y=             -7.5130    Z=             -4.0449  Tot=              9.3148
 Quadrupole moment (field-independent basis, Debye-Ang):
   XX=           -196.8618   YY=           -158.4923   ZZ=           -167.0247
   XY=             19.9958   XZ=              7.1461   YZ=              4.9043

 Normal termination of Gaussian 16 at Sun Jun 20 05:25:03 2021.
