 Gaussian 16, Revision A.03,

 -----------------------------------------------------------
 #p opt=modredundant freq=noraman ub3lyp jul-cc-pvdz pop=cm5
 -----------------------------------------------------------

 -----
 title
 -----
 Symbolic Z-matrix:
 Charge =  0 Multiplicity = 6

 SCF Done:  E(UB3LYP) =  -3531.40432244     A.U. after   24 cycles
 SCF Done:  E(UB3LYP) =  -3531.40435161     A.U. after   15 cycles
 SCF Done:  E(UB3LYP) =  -3531.40423645     A.U. after   16 cycles
 SCF Done:  E(UB3LYP) =  -3531.40481441     A.U. after   15 cycles
 SCF Done:  E(UB3LYP) =  -3531.40492987     A.U. after   16 cycles
 SCF Done:  E(UB3LYP) =  -3531.40490496     A.U. after   14 cycles
 SCF Done:  E(UB3LYP) =  -3531.40493439     A.U. after   14 cycles
 SCF Done:  E(UB3LYP) =  -3531.40495506     A.U. after   13 cycles
 SCF Done:  E(UB3LYP) =  -3531.40495561     A.U. after   12 cycles
 SCF Done:  E(UB3LYP) =  -3531.40495695     A.U. after   11 cycles
 SCF Done:  E(UB3LYP) =  -3531.40495741     A.U. after   11 cycles
 SCF Done:  E(UB3LYP) =  -3531.40495726     A.U. after   11 cycles
 SCF Done:  E(UB3LYP) =  -3531.40495764     A.U. after   11 cycles
 SCF Done:  E(UB3LYP) =  -3531.40495701     A.U. after   12 cycles
 SCF Done:  E(UB3LYP) =  -3531.40495698     A.U. after   10 cycles
 SCF Done:  E(UB3LYP) =  -3531.40495764     A.U. after   12 cycles
 SCF Done:  E(UB3LYP) =  -3531.40495690     A.U. after   12 cycles
 Optimization completed.
    -- Stationary point found.
 Normal termination of Gaussian 16 at Sun Jun 20 03:43:05 2021.

 ----------------------------------------------------------------------
 #P Geom=AllCheck Guess=TCheck SCRF=Check GenChk UB3LYP/Jul-CC-pVDZ Fre
 q
 ----------------------------------------------------------------------

 Structure from the checkpoint file:  "checkpoint.chk"
 -----
 title
 -----
 Charge =  0 Multiplicity = 6

 SCF Done:  E(UB3LYP) =  -3531.40495690     A.U. after    1 cycles

  Exact polarizability: 297.318  -3.342 308.102  23.935  12.195 284.703
 Approx polarizability: 438.299  -7.913 485.313  44.098  20.274 450.576

 ******    1 imaginary frequencies (negative Signs) ******

                      1                      2                      3
                      A                      A                      A
 Frequencies --   -393.6649                22.3181                29.4283
 Red. masses --      9.5121                 7.6544                 4.9345
 Frc consts  --      0.8685                 0.0022                 0.0025
 IR Inten    --    128.0683                 0.1006                 1.8559

                      4                      5                      6
                      A                      A                      A
 Frequencies --     32.1526                50.2046                54.4328
 Red. masses --      6.2590                 5.9987                 4.1688
 Frc consts  --      0.0038                 0.0089                 0.0073
 IR Inten    --      0.2674                 2.1819                 1.0243

                      7                      8                      9
                      A                      A                      A
 Frequencies --     63.6813                69.4754                77.4447
 Red. masses --      3.1630                 3.6522                 7.0367
 Frc consts  --      0.0076                 0.0104                 0.0249
 IR Inten    --      0.2302                 0.8056                 0.7450

                     10                     11                     12
                      A                      A                      A
 Frequencies --     83.2230                94.8718               103.4245
 Red. masses --     10.2343                11.1489                 7.6772
 Frc consts  --      0.0418                 0.0591                 0.0484
 IR Inten    --      0.3995                 0.4392                 1.0329

                     13                     14                     15
                      A                      A                      A
 Frequencies --    113.5553               118.0783               125.5074
 Red. masses --     11.9516                 4.7854                 4.9408
 Frc consts  --      0.0908                 0.0393                 0.0459
 IR Inten    --      1.2890                 4.4110                 8.1051

                     16                     17                     18
                      A                      A                      A
 Frequencies --    130.0455               147.7321               160.3784
 Red. masses --      6.7279                 3.4234                 2.0966
 Frc consts  --      0.0670                 0.0440                 0.0318
 IR Inten    --      1.4485                 1.0616                 4.4435

                     19                     20                     21
                      A                      A                      A
 Frequencies --    169.6344               176.7897               198.8054
 Red. masses --      2.2617                 1.4834                 2.4891
 Frc consts  --      0.0383                 0.0273                 0.0580
 IR Inten    --      1.0387                 1.8717                 1.8982

                     22                     23                     24
                      A                      A                      A
 Frequencies --    203.8447               219.7515               226.6863
 Red. masses --      1.4030                 4.6931                 3.6672
 Frc consts  --      0.0343                 0.1335                 0.1110
 IR Inten    --      4.6961                13.8708                 7.0996

                     25                     26                     27
                      A                      A                      A
 Frequencies --    247.7951               259.2438               283.6818
 Red. masses --      2.7421                 1.8686                 3.6296
 Frc consts  --      0.0992                 0.0740                 0.1721
 IR Inten    --      1.1274                 1.5248                 8.7252

                     28                     29                     30
                      A                      A                      A
 Frequencies --    309.9222               334.8220               340.9820
 Red. masses --      3.0851                14.6076                 3.7747
 Frc consts  --      0.1746                 0.9648                 0.2586
 IR Inten    --      1.0437                34.7351                 1.0397

                     31                     32                     33
                      A                      A                      A
 Frequencies --    345.5218               371.1926               379.5149
 Red. masses --      4.7679                20.9218                 5.1128
 Frc consts  --      0.3354                 1.6984                 0.4339
 IR Inten    --     17.0150                58.1279                37.2036

                     34                     35                     36
                      A                      A                      A
 Frequencies --    388.3750               393.1320               404.6343
 Red. masses --     20.9525                 3.5558                 3.6951
 Frc consts  --      1.8620                 0.3238                 0.3565
 IR Inten    --     90.6955                 5.1028                 3.6126

                     37                     38                     39
                      A                      A                      A
 Frequencies --    411.4969               463.5914               508.4066
 Red. masses --      2.9717                 3.4506                 3.0674
 Frc consts  --      0.2965                 0.4369                 0.4671
 IR Inten    --      1.4000                 3.6680                 4.4018

                     40                     41                     42
                      A                      A                      A
 Frequencies --    529.2076               546.1847               623.1781
 Red. masses --      2.6817                 3.1427                 4.8093
 Frc consts  --      0.4425                 0.5524                 1.1004
 IR Inten    --      8.8453                25.3747                10.4710

                     43                     44                     45
                      A                      A                      A
 Frequencies --    631.3297               654.1266               675.3808
 Red. masses --      5.1775                 2.6052                 5.9603
 Frc consts  --      1.2158                 0.6568                 1.6018
 IR Inten    --     15.1018                 1.8472                36.8799

                     46                     47                     48
                      A                      A                      A
 Frequencies --    706.9154               727.2196               756.4198
 Red. masses --      1.6343                 4.1005                 3.1920
 Frc consts  --      0.4812                 1.2777                 1.0761
 IR Inten    --     35.4047                47.3242                 8.4321

                     49                     50                     51
                      A                      A                      A
 Frequencies --    777.4610               792.1872               807.0367
 Red. masses --      3.6551                 3.0540                 1.1364
 Frc consts  --      1.3017                 1.1292                 0.4361
 IR Inten    --     14.4773                 3.8426                 1.6186

                     52                     53                     54
                      A                      A                      A
 Frequencies --    833.6313               844.1095               848.8362
 Red. masses --      1.2982                 1.3052                 2.6763
 Frc consts  --      0.5316                 0.5479                 1.1361
 IR Inten    --      6.4468                 3.2779                18.1727

                     55                     56                     57
                      A                      A                      A
 Frequencies --    862.6920               872.1815               927.5277
 Red. masses --      2.8872                 2.5612                 1.9828
 Frc consts  --      1.2660                 1.1479                 1.0050
 IR Inten    --     24.1744                10.8575                 8.6802

                     58                     59                     60
                      A                      A                      A
 Frequencies --    929.5273               945.6591               977.5452
 Red. masses --      1.7609                 2.0923                 2.1128
 Frc consts  --      0.8964                 1.1024                 1.1895
 IR Inten    --      1.2185                15.6318                56.0413

                     61                     62                     63
                      A                      A                      A
 Frequencies --    981.3716               997.8948              1001.1373
 Red. masses --      1.3623                 1.5296                 3.3529
 Frc consts  --      0.7730                 0.8974                 1.9799
 IR Inten    --      0.7243                 4.4895                 9.8749

                     64                     65                     66
                      A                      A                      A
 Frequencies --   1002.3105              1004.8117              1015.5189
 Red. masses --      1.4962                 3.0067                 2.2527
 Frc consts  --      0.8856                 1.7886                 1.3688
 IR Inten    --      1.9192                 8.8044                55.2209

                     67                     68                     69
                      A                      A                      A
 Frequencies --   1036.1084              1045.0421              1051.4909
 Red. masses --      2.4220                 3.0848                 2.5364
 Frc consts  --      1.5319                 1.9849                 1.6522
 IR Inten    --     54.6333                14.9002                62.9702

                     70                     71                     72
                      A                      A                      A
 Frequencies --   1060.5344              1086.7178              1107.4555
 Red. masses --      2.1326                 2.2290                 2.0575
 Frc consts  --      1.4132                 1.5509                 1.4867
 IR Inten    --     27.5941                72.0447                 6.0251

                     73                     74                     75
                      A                      A                      A
 Frequencies --   1116.5300              1133.3643              1135.1736
 Red. masses --      1.9512                 2.1634                 1.4506
 Frc consts  --      1.4332                 1.6373                 1.1014
 IR Inten    --     15.9764                 5.7727                30.5860

                     76                     77                     78
                      A                      A                      A
 Frequencies --   1162.8670              1170.0573              1175.1113
 Red. masses --      1.7043                 1.5746                 1.0848
 Frc consts  --      1.3579                 1.2701                 0.8826
 IR Inten    --     35.9492                 1.5328                 0.0347

                     79                     80                     81
                      A                      A                      A
 Frequencies --   1196.4297              1208.5218              1227.3079
 Red. masses --      2.0286                 1.1423                 1.9594
 Frc consts  --      1.7109                 0.9830                 1.7389
 IR Inten    --    105.9159                 2.1044               144.9549

                     82                     83                     84
                      A                      A                      A
 Frequencies --   1245.0491              1262.6575              1283.2032
 Red. masses --      1.9405                 1.8447                 1.1058
 Frc consts  --      1.7723                 1.7328                 1.0728
 IR Inten    --     60.8907                42.8469                 1.5809

                     85                     86                     87
                      A                      A                      A
 Frequencies --   1297.7571              1314.0834              1315.1874
 Red. masses --      1.4977                 1.9677                 1.3589
 Frc consts  --      1.4861                 2.0019                 1.3849
 IR Inten    --     56.2621                38.8845                 6.9139

                     88                     89                     90
                      A                      A                      A
 Frequencies --   1322.6296              1336.5401              1358.8034
 Red. masses --      1.6910                 2.1091                 2.2129
 Frc consts  --      1.7429                 2.2198                 2.4073
 IR Inten    --     51.8631                40.5647                 1.1204

                     91                     92                     93
                      A                      A                      A
 Frequencies --   1361.6177              1367.1469              1371.3938
 Red. masses --      1.2291                 1.3577                 1.2040
 Frc consts  --      1.3426                 1.4951                 1.3342
 IR Inten    --     54.1125                21.3034                52.6843

                     94                     95                     96
                      A                      A                      A
 Frequencies --   1391.1694              1412.4525              1416.7308
 Red. masses --      1.5628                 1.2465                 1.4853
 Frc consts  --      1.7821                 1.4652                 1.7564
 IR Inten    --     63.3312                11.3118                 7.0356

                     97                     98                     99
                      A                      A                      A
 Frequencies --   1431.5368              1452.6320              1467.2049
 Red. masses --      1.2492                 1.1884                 2.1969
 Frc consts  --      1.5083                 1.4775                 2.7864
 IR Inten    --      9.5532                 6.1373                10.8615

                    100                    101                    102
                      A                      A                      A
 Frequencies --   1474.1198              1479.6677              1486.7307
 Red. masses --      1.0388                 1.2900                 1.0929
 Frc consts  --      1.3300                 1.6641                 1.4233
 IR Inten    --      3.5992                 7.0951                 5.2729

                    103                    104                    105
                      A                      A                      A
 Frequencies --   1488.8391              1498.8201              1507.2196
 Red. masses --      1.0538                 1.1099                 1.0831
 Frc consts  --      1.3762                 1.4690                 1.4497
 IR Inten    --      0.5563                13.9166                 6.1156

                    106                    107                    108
                      A                      A                      A
 Frequencies --   1509.9850              1521.3021              1623.5315
 Red. masses --      1.1104                 2.1920                 5.5852
 Frc consts  --      1.4917                 2.9890                 8.6738
 IR Inten    --      2.6672                 3.2062                 0.5019

                    109                    110                    111
                      A                      A                      A
 Frequencies --   1644.6144              1771.1085              2979.3404
 Red. masses --      5.7797                11.6303                 1.0536
 Frc consts  --      9.2105                21.4947                 5.5104
 IR Inten    --      0.2431               220.6425                 8.1598

                    112                    113                    114
                      A                      A                      A
 Frequencies --   2997.9037              3038.7099              3058.9200
 Red. masses --      1.0484                 1.0355                 1.0583
 Frc consts  --      5.5517                 5.6337                 5.8344
 IR Inten    --     16.6643                22.3901                14.4653

                    115                    116                    117
                      A                      A                      A
 Frequencies --   3059.3978              3065.6092              3070.3097
 Red. masses --      1.0608                 1.0887                 1.0620
 Frc consts  --      5.8501                 6.0284                 5.8986
 IR Inten    --     21.1599                32.6486                25.2815

                    118                    119                    120
                      A                      A                      A
 Frequencies --   3077.5607              3094.9466              3100.6901
 Red. masses --      1.0846                 1.1036                 1.0741
 Frc consts  --      6.0526                 6.2284                 6.0843
 IR Inten    --      6.7940                 7.0674                 2.6732

                    121                    122                    123
                      A                      A                      A
 Frequencies --   3102.8940              3114.8738              3119.2809
 Red. masses --      1.1063                 1.1027                 1.1019
 Frc consts  --      6.2757                 6.3036                 6.3169
 IR Inten    --      8.8762                19.6086                11.4575

                    124                    125                    126
                      A                      A                      A
 Frequencies --   3125.6617              3133.8796              3166.0711
 Red. masses --      1.0898                 1.1046                 1.1074
 Frc consts  --      6.2730                 6.3917                 6.5402
 IR Inten    --     14.5505                17.2220                 0.6807

                    127                    128                    129
                      A                      A                      A
 Frequencies --   3167.8643              3172.6476              3177.9932
 Red. masses --      1.0846                 1.0988                 1.0880
 Frc consts  --      6.4131                 6.5166                 6.4744
 IR Inten    --      1.3983                 5.3478                 6.0101

                    130                    131                    132
                      A                      A                      A
 Frequencies --   3186.5960              3195.7373              3205.2285
 Red. masses --      1.0927                 1.0968                 1.0946
 Frc consts  --      6.5374                 6.5994                 6.6257
 IR Inten    --     19.7101                 9.3002                 6.5735

 - Thermochemistry -
 -------------------
 Temperature   298.150 Kelvin.  Pressure   1.00000 Atm.
 Atom     1 has atomic number  6 and mass  12.00000

 Molecular mass:   434.99839 amu.
 Principal axes and moments of inertia in atomic units:
                           1         2         3
     Eigenvalues --  9077.98848********************
           X            0.99762   0.06673   0.01722
           Y           -0.06691   0.99771   0.00996
           Z           -0.01651  -0.01109   0.99980
 This molecule is an asymmetric top.
 Rotational symmetry number  1.
 Warning -- assumption of classical behavior for rotation
           may cause significant error
 Rotational temperatures (Kelvin)      0.00954     0.00756     0.00686
 Rotational constants (GHZ):           0.19880     0.15761     0.14293
    1 imaginary frequencies ignored.
 Zero-point vibrational energy     939808.7 (Joules/Mol)
                                  224.61967 (Kcal/Mol)
 Warning -- explicit consideration of  40 degrees of freedom as
           vibrations may cause significant error
 Vibrational temperatures:     32.11    42.34    46.26    72.23    78.32
          (Kelvin)             91.62    99.96   111.43   119.74   136.50
                              148.80   163.38   169.89   180.58   187.11
                              212.55   230.75   244.07   254.36   286.04
                              293.29   316.17   326.15   356.52   372.99
                              408.15   445.91   481.73   490.60   497.13
                              534.06   546.04   558.79   565.63   582.18
                              592.05   667.00   731.48   761.41   785.84
                              896.61   908.34   941.14   971.72  1017.09
                             1046.31  1088.32  1118.59  1139.78  1161.15
                             1199.41  1214.49  1221.29  1241.22  1254.87
                             1334.51  1337.38  1360.59  1406.47  1411.97
                             1435.75  1440.41  1442.10  1445.70  1461.11
                             1490.73  1503.58  1512.86  1525.87  1563.54
                             1593.38  1606.44  1630.66  1633.26  1673.11
                             1683.45  1690.72  1721.40  1738.79  1765.82
                             1791.35  1816.68  1846.24  1867.18  1890.67
                             1892.26  1902.97  1922.98  1955.02  1959.06
                             1967.02  1973.13  2001.58  2032.20  2038.36
                             2059.66  2090.01  2110.98  2120.93  2128.91
                             2139.07  2142.11  2156.47  2168.55  2172.53
                             2188.81  2335.90  2366.23  2548.23  4286.61
                             4313.31  4372.03  4401.10  4401.79  4410.73
                             4417.49  4427.92  4452.94  4461.20  4464.37
                             4481.61  4487.95  4497.13  4508.95  4555.27
                             4557.85  4564.73  4572.42  4584.80  4597.95
                             4611.61

 Zero-point correction=                           0.357954 (Hartree/Particle)
 Thermal correction to Energy=                    0.385216
 Thermal correction to Enthalpy=                  0.386160
 Thermal correction to Gibbs Free Energy=         0.296383
 Sum of electronic and zero-point Energies=          -3531.047003
 Sum of electronic and thermal Energies=             -3531.019741
 Sum of electronic and thermal Enthalpies=           -3531.018797
 Sum of electronic and thermal Free Energies=        -3531.108574

                     E (Thermal)             CV                S
                      KCal/Mol        Cal/Mol-Kelvin    Cal/Mol-Kelvin
 Total                  241.726             97.505            188.952
 Electronic               0.000              0.000              3.561
 Translational            0.889              2.981             44.100
 Rotational               0.889              2.981             35.527
 Vibrational            239.949             91.543            105.763
 Vibration     1          0.593              1.985              6.416
 Vibration     2          0.593              1.984              5.868
 Vibration     3          0.594              1.983              5.692
 Vibration     4          0.595              1.978              4.809
 Vibration     5          0.596              1.976              4.649
 Vibration     6          0.597              1.972              4.340
 Vibration     7          0.598              1.969              4.168
 Vibration     8          0.599              1.964              3.955
 Vibration     9          0.600              1.961              3.813
 Vibration    10          0.603              1.953              3.557
 Vibration    11          0.605              1.946              3.389
 Vibration    12          0.607              1.938              3.207
 Vibration    13          0.608              1.934              3.132
 Vibration    14          0.610              1.928              3.014
 Vibration    15          0.612              1.923              2.945
 Vibration    16          0.617              1.905              2.701
 Vibration    17          0.622              1.891              2.545
 Vibration    18          0.625              1.880              2.440
 Vibration    19          0.628              1.871              2.362
 Vibration    20          0.637              1.842              2.144
 Vibration    21          0.640              1.834              2.098
 Vibration    22          0.647              1.811              1.961
 Vibration    23          0.650              1.800              1.905
 Vibration    24          0.661              1.766              1.746
 Vibration    25          0.668              1.747              1.667
 Vibration    26          0.682              1.704              1.511
 Vibration    27          0.699              1.655              1.363
 Vibration    28          0.716              1.606              1.237
 Vibration    29          0.720              1.594              1.208
 Vibration    30          0.724              1.584              1.187
 Vibration    31          0.743              1.531              1.075
 Vibration    32          0.750              1.514              1.041
 Vibration    33          0.757              1.495              1.006
 Vibration    34          0.760              1.485              0.988
 Vibration    35          0.770              1.460              0.946
 Vibration    36          0.775              1.445              0.921
 Vibration    37          0.821              1.331              0.756
 Vibration    38          0.864              1.231              0.637
 Vibration    39          0.884              1.185              0.589
 Vibration    40          0.901              1.148              0.552

                           ! Non-Optimized Parameters !
 Normal termination of Gaussian 16 at Sun Jun 20 07:00:49 2021.

 ----------------------------------------------------------------------
 #p ub3lyp jul-cc-pvdz pop=cm5 scrf=(pcm,solvent=dichloroethane) guess=
 read geom=allcheck
 ----------------------------------------------------------------------

 Structure from the checkpoint file:  "checkpoint.chk"
 -----
 title
 -----
 Charge =  0 Multiplicity = 6

 SCF Done:  E(UB3LYP) =  -3531.43123431     A.U. after   17 cycles
 Normal termination of Gaussian 16 at Sun Jun 20 07:20:11 2021.
 Gaussian 16:  ES64L-G16RevA.03 25-Dec-2016

 ----------------------------------------------------------------------
 #p ub3lyp jul-cc-pvdz pop=cm5 scrf=(pcm,solvent=water) guess=read geom
 =allcheck
 ----------------------------------------------------------------------

 Structure from the checkpoint file:  "checkpoint.chk"
 -----
 title
 -----
 Charge =  0 Multiplicity = 6

                         Standard orientation:
 ---------------------------------------------------------------------
 Center     Atomic      Atomic             Coordinates (Angstroms)
 Number     Number       Type             X           Y           Z
 ---------------------------------------------------------------------
      1          6           0        2.199869   -1.818617    1.558931
      2          6           0        1.350802   -0.830785    1.035753
      3          6           0        1.195999    0.364007    1.754947
      4          6           0        1.858717    0.556969    2.968764
      5          6           0        2.693120   -0.437205    3.485675
      6          6           0        2.864395   -1.625987    2.772801
      7          6           0        0.669523   -0.989582   -0.313412
      8          6           0        1.572191   -0.575595   -1.532576
      9          6           0        2.363738   -1.829909   -1.914257
     10          6           0        1.356238   -2.996729   -1.816530
     11          6           0        0.357300   -2.612953   -0.709864
     12          6           0       -1.087395   -2.444437   -1.045186
     13          6           0       -1.576310   -2.166258   -2.409192
     14          8           0       -0.619529   -0.395527   -0.394745
     15         26           0       -1.981881    0.717322    0.336350
     16         17           0       -3.674496    0.436925   -1.110613
     17          6           0       -2.080809   -2.851299   -0.031769
     18         17           0       -1.395212    2.845641    0.489031
     19         17           0       -2.557056   -0.117978    2.316415
     20          1           0        0.562839    1.161700    1.371410
     21          1           0        1.712829    1.490795    3.513148
     22          1           0        3.205073   -0.287523    4.437278
     23          1           0        3.515124   -2.410862    3.160922
     24          1           0        2.359980   -2.755759    1.025915
     25          1           0        0.872996   -0.295211   -2.330973
     26          6           0        2.469057    0.627137   -1.270293
     27          1           0        2.806486   -1.741968   -2.914806
     28          1           0        3.193874   -1.961533   -1.209039
     29          1           0        0.850153   -3.147734   -2.779046
     30          1           0        1.853426   -3.945639   -1.576788
     31          1           0        0.449491   -3.223066    0.192556
     32          1           0       -2.153471   -3.952987   -0.136605
     33          1           0       -1.740425   -2.647141    0.989639
     34          1           0       -3.071634   -2.419082   -0.206170
     35          1           0       -1.978266   -3.120058   -2.801045
     36          1           0       -2.421093   -1.463552   -2.361488
     37          1           0       -0.806707   -1.803754   -3.094313
     38          8           0        1.812965    1.775148   -1.503112
     39          8           0        3.626651    0.556503   -0.914738
     40          6           0        2.551081    3.007192   -1.259883
     41          6           0        1.691548    4.159032   -1.738377
     42          1           0        2.763859    3.065535   -0.183703
     43          1           0        3.508965    2.944642   -1.793049
     44          1           0        2.216174    5.106149   -1.545868
     45          1           0        1.499353    4.084112   -2.817932
     46          1           0        0.729771    4.175659   -1.209733
 ---------------------------------------------------------------------

 SCF Done:  E(UB3LYP) =  -3531.43619111     A.U. after   14 cycles

 The electronic state is 6-A.
 Alpha  occ. eigenvalues -- -256.20279-101.52222-101.52023-101.51949 -30.19668
 Alpha  occ. eigenvalues --  -26.04965 -26.04916 -26.04823 -19.20304 -19.16999
 Alpha  occ. eigenvalues --  -19.15193 -10.32884 -10.32837 -10.29832 -10.24735
 Alpha  occ. eigenvalues --  -10.23146 -10.21868 -10.21848 -10.21798 -10.21506
 Alpha  occ. eigenvalues --  -10.20546 -10.20501 -10.20253 -10.20221 -10.20178
 Alpha  occ. eigenvalues --  -10.20140 -10.19881 -10.18518  -9.43946  -9.43736
 Alpha  occ. eigenvalues --   -9.43673  -7.19808  -7.19606  -7.19546  -7.19499
 Alpha  occ. eigenvalues --   -7.19482  -7.19281  -7.19270  -7.19222  -7.19203
 Alpha  occ. eigenvalues --   -3.67363  -2.44869  -2.44712  -2.44556  -1.12037
 Alpha  occ. eigenvalues --   -1.03588  -1.03006  -0.88287  -0.87308  -0.84365
 Alpha  occ. eigenvalues --   -0.80116  -0.79415  -0.79238  -0.78779  -0.77613
 Alpha  occ. eigenvalues --   -0.76085  -0.75292  -0.74374  -0.71656  -0.66498
 Alpha  occ. eigenvalues --   -0.64170  -0.62071  -0.61171  -0.59491  -0.56957
 Alpha  occ. eigenvalues --   -0.56422  -0.54641  -0.52910  -0.51386  -0.50353
 Alpha  occ. eigenvalues --   -0.50150  -0.49670  -0.48933  -0.47827  -0.47774
 Alpha  occ. eigenvalues --   -0.47591  -0.47390  -0.46884  -0.46585  -0.46397
 Alpha  occ. eigenvalues --   -0.45098  -0.44537  -0.44135  -0.43300  -0.42992
 Alpha  occ. eigenvalues --   -0.42636  -0.41811  -0.40965  -0.40665  -0.40396
 Alpha  occ. eigenvalues --   -0.39866  -0.38729  -0.38219  -0.37549  -0.37382
 Alpha  occ. eigenvalues --   -0.36902  -0.36312  -0.36147  -0.35902  -0.35729
 Alpha  occ. eigenvalues --   -0.34631  -0.34262  -0.33785  -0.32159  -0.31649
 Alpha  occ. eigenvalues --   -0.31000  -0.30907  -0.30707  -0.30419  -0.29910
 Alpha  occ. eigenvalues --   -0.29600  -0.29212  -0.28518  -0.26793  -0.26190
 Alpha virt. eigenvalues --   -0.12548  -0.03259  -0.02883  -0.01496  -0.01278
 Alpha virt. eigenvalues --   -0.00197  -0.00068   0.00101   0.01429   0.01638
 Alpha virt. eigenvalues --    0.01740   0.01831   0.02458   0.03266   0.03834

  Beta  occ. eigenvalues -- -256.20094-101.52048-101.51856-101.51772 -30.10745
  Beta  occ. eigenvalues --  -25.97522 -25.97443 -25.97424 -19.20304 -19.16308
  Beta  occ. eigenvalues --  -19.15190 -10.32891 -10.32837 -10.29806 -10.24735
  Beta  occ. eigenvalues --  -10.23117 -10.21867 -10.21828 -10.21794 -10.21494
  Beta  occ. eigenvalues --  -10.20545 -10.20499 -10.20252 -10.20221 -10.20178
  Beta  occ. eigenvalues --  -10.20139 -10.19878 -10.18517  -9.43775  -9.43572
  Beta  occ. eigenvalues --   -9.43499  -7.19523  -7.19314  -7.19261  -7.19250
  Beta  occ. eigenvalues --   -7.19244  -7.19065  -7.19053  -7.18983  -7.18979
  Beta  occ. eigenvalues --   -3.46557  -2.22898  -2.22776  -2.22686  -1.12034
  Beta  occ. eigenvalues --   -1.03583  -1.01670  -0.88091  -0.87292  -0.84305
  Beta  occ. eigenvalues --   -0.79000  -0.78795  -0.78201  -0.78040  -0.77529
  Beta  occ. eigenvalues --   -0.76075  -0.75258  -0.74366  -0.71480  -0.66401
  Beta  occ. eigenvalues --   -0.64125  -0.62042  -0.61136  -0.59252  -0.56900
  Beta  occ. eigenvalues --   -0.55946  -0.54549  -0.51952  -0.51310  -0.50259
  Beta  occ. eigenvalues --   -0.49940  -0.49090  -0.48153  -0.47643  -0.46600
  Beta  occ. eigenvalues --   -0.46420  -0.44713  -0.44161  -0.43366  -0.43035
  Beta  occ. eigenvalues --   -0.42738  -0.41762  -0.40998  -0.40626  -0.40299
  Beta  occ. eigenvalues --   -0.39857  -0.38627  -0.38006  -0.37734  -0.37341
  Beta  occ. eigenvalues --   -0.36850  -0.36718  -0.36132  -0.35884  -0.35799
  Beta  occ. eigenvalues --   -0.35593  -0.35505  -0.34572  -0.33085  -0.33020
  Beta  occ. eigenvalues --   -0.32535  -0.32023  -0.31864  -0.31419  -0.30007
  Beta  occ. eigenvalues --   -0.29602  -0.29582  -0.28438  -0.26787  -0.26137
  Beta virt. eigenvalues --   -0.14379  -0.13911  -0.13273  -0.12799  -0.12063
  Beta virt. eigenvalues --   -0.11843  -0.03192  -0.02855  -0.01402  -0.01235
  Beta virt. eigenvalues --   -0.00140  -0.00042   0.00128   0.01456   0.01660

 Mulliken charges and spin densities:
               1          2
     1  C   -0.320919   0.004521
     2  C    3.339131  -0.004055
     3  C   -0.373151  -0.012206
     4  C    0.036369   0.000594
     5  C    0.205260  -0.000167
     6  C   -0.131256   0.001057
     7  C   -2.737923   0.017838
     8  C    0.427163   0.004846
     9  C    0.514253   0.002318
    10  C    0.556835   0.000083
    11  C    1.068122   0.019277
    12  C   -0.702512  -0.004200
    13  C    0.286434  -0.004317
    14  O   -0.328119   0.223536
    15  Fe   0.635125   4.043055
    16  Cl  -0.541386   0.226949
    17  C    0.398043   0.002182
    18  Cl  -0.482650   0.240801
    19  Cl  -0.500647   0.232932
    20  H   -0.317542   0.001071
    21  H   -0.162908  -0.000010
    22  H   -0.161893   0.000032
    23  H   -0.157224   0.000121
    24  H   -0.215663   0.000018
    25  H   -0.197472   0.000024
    26  C    0.933213   0.004808
    27  H   -0.144859   0.000521
    28  H   -0.050487   0.000025
    29  H   -0.084895   0.000066
    30  H   -0.099430   0.000505
    31  H   -0.206409   0.000491
    32  H    0.061997  -0.000868
    33  H    0.076206  -0.000669
    34  H    0.038706  -0.000502
    35  H    0.084783   0.000947
    36  H    0.092279  -0.000845
    37  H    0.061168  -0.000076
    38  O   -0.690191  -0.000528
    39  O   -0.647023   0.000963
    40  C    0.425663  -0.001316
    41  C    0.056437   0.000658
    42  H   -0.041996  -0.000015
    43  H   -0.047487   0.000001
    44  H   -0.005653   0.000059
    45  H    0.022510  -0.000016
    46  H    0.029999  -0.000511
 Sum of Mulliken charges =  -0.00000   5.00000

 Dipole moment (field-independent basis, Debye):
    X=              5.1041    Y=            -11.9756    Z=             -6.0335  Tot=             14.3481
 Quadrupole moment (field-independent basis, Debye-Ang):
   XX=           -204.9290   YY=           -143.8713   ZZ=           -167.4650
   XY=             17.1861   XZ=             10.4948   YZ=              9.4663

 Normal termination of Gaussian 16 at Sun Jun 20 07:36:07 2021.
