 Gaussian 16, Revision A.03,

 -----------------------------------------------------------
 #p opt=modredundant freq=noraman ub3lyp jul-cc-pvdz pop=cm5
 -----------------------------------------------------------

 -----
 title
 -----
 Symbolic Z-matrix:
 Charge =  0 Multiplicity = 6

 SCF Done:  E(UB3LYP) =  -3531.41176818     A.U. after   26 cycles
 SCF Done:  E(UB3LYP) =  -3531.41237295     A.U. after   17 cycles
 SCF Done:  E(UB3LYP) =  -3531.41222579     A.U. after   15 cycles
 SCF Done:  E(UB3LYP) =  -3531.41244028     A.U. after   13 cycles
 SCF Done:  E(UB3LYP) =  -3531.41245860     A.U. after   14 cycles
 SCF Done:  E(UB3LYP) =  -3531.41248113     A.U. after   12 cycles
 SCF Done:  E(UB3LYP) =  -3531.41249435     A.U. after   13 cycles
 SCF Done:  E(UB3LYP) =  -3531.41250432     A.U. after   13 cycles
 SCF Done:  E(UB3LYP) =  -3531.41251332     A.U. after   13 cycles
 SCF Done:  E(UB3LYP) =  -3531.41252106     A.U. after   13 cycles
 SCF Done:  E(UB3LYP) =  -3531.41253021     A.U. after   12 cycles
 SCF Done:  E(UB3LYP) =  -3531.41253045     A.U. after   10 cycles
 SCF Done:  E(UB3LYP) =  -3531.41253071     A.U. after   10 cycles
 SCF Done:  E(UB3LYP) =  -3531.41253089     A.U. after   11 cycles
 SCF Done:  E(UB3LYP) =  -3531.41253100     A.U. after    9 cycles
 SCF Done:  E(UB3LYP) =  -3531.41253105     A.U. after   10 cycles
 SCF Done:  E(UB3LYP) =  -3531.41253111     A.U. after    9 cycles
 Optimization completed.
    -- Stationary point found.
 Normal termination of Gaussian 16 at Sun Jun 20 03:03:43 2021.

 ----------------------------------------------------------------------
 #P Geom=AllCheck Guess=TCheck SCRF=Check GenChk UB3LYP/Jul-CC-pVDZ Fre
 q
 ----------------------------------------------------------------------

 Structure from the checkpoint file:  "checkpoint.chk"
 -----
 title
 -----
 Charge =  0 Multiplicity = 6

 SCF Done:  E(UB3LYP) =  -3531.41253111     A.U. after    2 cycles

  Exact polarizability: 329.008  -2.599 295.306  14.963  -7.019 288.489
 Approx polarizability: 490.755  -3.776 448.793  11.861 -20.979 480.338

 ******    1 imaginary frequencies (negative Signs) ******

                      1                      2                      3
                      A                      A                      A
 Frequencies --    -29.4956                17.1382                25.8075
 Red. masses --      4.0217                 5.4383                 7.7892
 Frc consts  --      0.0021                 0.0009                 0.0031
 IR Inten    --      7.2987                 2.4553                 0.4485

                      4                      5                      6
                      A                      A                      A
 Frequencies --     32.1134                40.1753                46.4777
 Red. masses --      5.6776                 6.3473                 4.2635
 Frc consts  --      0.0034                 0.0060                 0.0054
 IR Inten    --      2.6116                 0.4706                 0.4328

                      7                      8                      9
                      A                      A                      A
 Frequencies --     61.0797                66.7976                79.5452
 Red. masses --      3.4370                 5.4971                 4.4997
 Frc consts  --      0.0076                 0.0145                 0.0168
 IR Inten    --      0.2176                 0.9051                 2.2639

                     10                     11                     12
                      A                      A                      A
 Frequencies --     87.3111                93.5024                96.8451
 Red. masses --      6.1892                10.1070                11.4921
 Frc consts  --      0.0278                 0.0521                 0.0635
 IR Inten    --      0.4722                 1.4596                 4.4847

                     13                     14                     15
                      A                      A                      A
 Frequencies --    108.9311               112.9780               117.8977
 Red. masses --      4.2730                 6.1147                 7.9178
 Frc consts  --      0.0299                 0.0460                 0.0648
 IR Inten    --      2.6472                 1.4022                 3.1841

                     16                     17                     18
                      A                      A                      A
 Frequencies --    125.9429               143.3473               153.1466
 Red. masses --      6.8145                 6.4426                 1.7462
 Frc consts  --      0.0637                 0.0780                 0.0241
 IR Inten    --      1.0733                 3.1381                 8.7841

                     19                     20                     21
                      A                      A                      A
 Frequencies --    164.0508               183.0982               193.2989
 Red. masses --      1.6991                 1.8112                 1.8500
 Frc consts  --      0.0269                 0.0358                 0.0407
 IR Inten    --      0.1973                 1.5192                12.3582

                     22                     23                     24
                      A                      A                      A
 Frequencies --    210.9169               226.2719               241.7224
 Red. masses --      1.4612                 4.3175                 3.1038
 Frc consts  --      0.0383                 0.1302                 0.1069
 IR Inten    --      1.0772                35.0199                18.6336

                     25                     26                     27
                      A                      A                      A
 Frequencies --    262.0114               278.0225               286.7463
 Red. masses --      2.6390                 4.6132                 3.7592
 Frc consts  --      0.1067                 0.2101                 0.1821
 IR Inten    --      0.7130                 4.9217                15.1744

                     28                     29                     30
                      A                      A                      A
 Frequencies --    321.3021               330.6498               343.5772
 Red. masses --      4.5732                 3.9706                 5.9759
 Frc consts  --      0.2782                 0.2558                 0.4156
 IR Inten    --     34.6222                24.5356                73.7006

                     31                     32                     33
                      A                      A                      A
 Frequencies --    357.0287               373.1551               386.1226
 Red. masses --     28.4140                 7.1975                 2.8941
 Frc consts  --      2.1340                 0.5905                 0.2542
 IR Inten    --     78.6746                 6.4317                16.8283

                     34                     35                     36
                      A                      A                      A
 Frequencies --    397.0092               413.6856               429.2618
 Red. masses --     35.0832                 2.9327                 3.8207
 Frc consts  --      3.2580                 0.2957                 0.4148
 IR Inten    --     98.1509                 0.4256                15.2906

                     37                     38                     39
                      A                      A                      A
 Frequencies --    443.5988               475.5422               507.1320
 Red. masses --      3.6780                 3.2544                 3.0965
 Frc consts  --      0.4264                 0.4336                 0.4692
 IR Inten    --     13.0688                 2.5139                15.6852

                     40                     41                     42
                      A                      A                      A
 Frequencies --    530.5281               546.9286               555.4874
 Red. masses --      2.4950                 2.6763                 3.1145
 Frc consts  --      0.4138                 0.4717                 0.5662
 IR Inten    --     14.7694                21.4908                34.7613

                     43                     44                     45
                      A                      A                      A
 Frequencies --    626.6439               629.9750               670.9675
 Red. masses --      5.7392                 5.1178                 4.2855
 Frc consts  --      1.3278                 1.1967                 1.1367
 IR Inten    --      3.8346                 7.0318               198.2495

                     46                     47                     48
                      A                      A                      A
 Frequencies --    706.0687               709.7091               755.5848
 Red. masses --      1.9716                 2.8895                 2.2430
 Frc consts  --      0.5791                 0.8575                 0.7545
 IR Inten    --     49.9337                26.5549                19.6595

                     49                     50                     51
                      A                      A                      A
 Frequencies --    760.7986               792.7998               799.6287
 Red. masses --      4.1080                 1.7566                 1.3013
 Frc consts  --      1.4010                 0.6505                 0.4902
 IR Inten    --     25.3755                14.5807                 7.7928

                     52                     53                     54
                      A                      A                      A
 Frequencies --    828.4479               835.9109               848.0305
 Red. masses --      2.1749                 2.5378                 1.2758
 Frc consts  --      0.8795                 1.0448                 0.5406
 IR Inten    --     32.0929                15.5041                 3.3202

                     55                     56                     57
                      A                      A                      A
 Frequencies --    863.6418               894.6002               918.1071
 Red. masses --      2.8931                 2.1594                 2.0622
 Frc consts  --      1.2714                 1.0182                 1.0242
 IR Inten    --     20.1862                 2.6953                19.5108

                     58                     59                     60
                      A                      A                      A
 Frequencies --    924.6628               943.7556               980.8392
 Red. masses --      2.1520                 1.9581                 2.0791
 Frc consts  --      1.0841                 1.0275                 1.1785
 IR Inten    --     27.8653                23.5989                42.7054

                     61                     62                     63
                      A                      A                      A
 Frequencies --    985.0481               991.5192              1000.8439
 Red. masses --      1.4381                 2.2952                 1.4698
 Frc consts  --      0.8222                 1.3294                 0.8674
 IR Inten    --     14.2098                 7.9081                 0.7447

                     64                     65                     66
                      A                      A                      A
 Frequencies --   1006.3704              1008.3188              1020.3165
 Red. masses --      3.4531                 1.5366                 1.5412
 Frc consts  --      2.0605                 0.9205                 0.9453
 IR Inten    --      2.0408                 1.9824                23.1708

                     67                     68                     69
                      A                      A                      A
 Frequencies --   1034.6060              1040.0145              1047.6755
 Red. masses --      2.4386                 1.9443                 2.3447
 Frc consts  --      1.5379                 1.2390                 1.5163
 IR Inten    --     27.7069                 6.2551                 7.6106

                     70                     71                     72
                      A                      A                      A
 Frequencies --   1057.1995              1102.3730              1110.4699
 Red. masses --      2.2089                 1.5725                 2.0465
 Frc consts  --      1.4546                 1.1259                 1.4869
 IR Inten    --     14.6296                14.4201                 7.6542

                     73                     74                     75
                      A                      A                      A
 Frequencies --   1119.6111              1128.7585              1155.0270
 Red. masses --      1.9969                 2.7310                 1.8346
 Frc consts  --      1.4748                 2.0501                 1.4420
 IR Inten    --     22.6380                61.3129                19.6294

                     76                     77                     78
                      A                      A                      A
 Frequencies --   1170.6110              1172.6446              1180.8443
 Red. masses --      2.1304                 1.1032                 2.1135
 Frc consts  --      1.7201                 0.8938                 1.7363
 IR Inten    --     98.5265                 6.7210                83.3657

                     79                     80                     81
                      A                      A                      A
 Frequencies --   1191.0165              1199.8362              1232.1101
 Red. masses --      1.7853                 1.1842                 1.9046
 Frc consts  --      1.4921                 1.0044                 1.7035
 IR Inten    --     34.3953                11.3654               163.6894

                     82                     83                     84
                      A                      A                      A
 Frequencies --   1242.6808              1253.7745              1307.5728
 Red. masses --      2.0751                 1.6945                 1.3825
 Frc consts  --      1.8880                 1.5694                 1.3926
 IR Inten    --    199.4311                64.0230                23.3669

                     85                     86                     87
                      A                      A                      A
 Frequencies --   1312.4186              1314.7401              1320.1287
 Red. masses --      1.3158                 1.4074                 1.2578
 Frc consts  --      1.3354                 1.4334                 1.2915
 IR Inten    --     68.9242                96.1960                62.4968

                     88                     89                     90
                      A                      A                      A
 Frequencies --   1326.1487              1332.0766              1348.5561
 Red. masses --      1.3396                 1.5204                 1.2640
 Frc consts  --      1.3880                 1.5896                 1.3543
 IR Inten    --     14.7974                27.5417                15.6240

                     91                     92                     93
                      A                      A                      A
 Frequencies --   1355.2860              1363.1079              1372.0666
 Red. masses --      3.6931                 1.6376                 1.4787
 Frc consts  --      3.9967                 1.7927                 1.6402
 IR Inten    --      2.3016                98.5814                20.2851

                     94                     95                     96
                      A                      A                      A
 Frequencies --   1389.2694              1404.9923              1410.9627
 Red. masses --      1.4403                 1.1615                 1.4239
 Frc consts  --      1.6378                 1.3508                 1.6701
 IR Inten    --     54.5364                20.8288                11.0999

                     97                     98                     99
                      A                      A                      A
 Frequencies --   1426.5384              1452.3318              1469.0774
 Red. masses --      1.0725                 1.6370                 2.2547
 Frc consts  --      1.2859                 2.0343                 2.8671
 IR Inten    --     12.8362                30.9226                20.6036

                    100                    101                    102
                      A                      A                      A
 Frequencies --   1476.6921              1477.9702              1482.1418
 Red. masses --      1.0479                 1.0823                 1.1239
 Frc consts  --      1.3463                 1.3929                 1.4547
 IR Inten    --      8.6055                 4.7041                 6.4219

                    103                    104                    105
                      A                      A                      A
 Frequencies --   1488.8835              1494.1506              1496.5881
 Red. masses --      1.1652                 1.0626                 1.2317
 Frc consts  --      1.5219                 1.3977                 1.6253
 IR Inten    --      4.3779                 7.2999                26.4691

                    106                    107                    108
                      A                      A                      A
 Frequencies --   1505.9976              1515.0172              1622.3287
 Red. masses --      1.4886                 2.0979                 5.8496
 Frc consts  --      1.9892                 2.8370                 9.0709
 IR Inten    --     13.4039                 7.3945                 0.2037

                    109                    110                    111
                      A                      A                      A
 Frequencies --   1640.5541              1762.6135              2908.6988
 Red. masses --      5.7523                11.2578                 1.0606
 Frc consts  --      9.1217                20.6071                 5.2868
 IR Inten    --      0.1771               203.9352                33.1589

                    112                    113                    114
                      A                      A                      A
 Frequencies --   2935.1712              3037.8861              3043.8783
 Red. masses --      1.0609                 1.0354                 1.0745
 Frc consts  --      5.3850                 5.6301                 5.8656
 IR Inten    --    131.7814                18.1838                 2.5271

                    115                    116                    117
                      A                      A                      A
 Frequencies --   3049.1656              3062.1691              3073.8587
 Red. masses --      1.0619                 1.0635                 1.0823
 Frc consts  --      5.8169                 5.8756                 6.0251
 IR Inten    --     24.4550                14.8699                 4.1603

                    118                    119                    120
                      A                      A                      A
 Frequencies --   3078.0414              3079.2143              3087.5353
 Red. masses --      1.0593                 1.0703                 1.0847
 Frc consts  --      5.9131                 5.9789                 6.0924
 IR Inten    --     13.8970                 1.1784                 1.2776

                    121                    122                    123
                      A                      A                      A
 Frequencies --   3104.8646              3112.5839              3118.4276
 Red. masses --      1.1020                 1.0993                 1.1035
 Frc consts  --      6.2590                 6.2750                 6.3225
 IR Inten    --      7.3564                23.7155                14.4559

                    124                    125                    126
                      A                      A                      A
 Frequencies --   3119.5818              3144.0828              3165.1344
 Red. masses --      1.1044                 1.1092                 1.0993
 Frc consts  --      6.3323                 6.4603                 6.4886
 IR Inten    --      3.5304                14.2973                 8.6895

                    127                    128                    129
                      A                      A                      A
 Frequencies --   3167.7833              3175.8410              3176.6739
 Red. masses --      1.0848                 1.0887                 1.1025
 Frc consts  --      6.4139                 6.4698                 6.5551
 IR Inten    --      0.6828                 3.1049                 4.8848

                    130                    131                    132
                      A                      A                      A
 Frequencies --   3185.1113              3195.0688              3220.5094
 Red. masses --      1.0933                 1.0982                 1.0923
 Frc consts  --      6.5347                 6.6054                 6.6746
 IR Inten    --     15.0805                13.7055                 3.0094

 - Thermochemistry -
 -------------------
 Temperature   298.150 Kelvin.  Pressure   1.00000 Atm.
 Atom     1 has atomic number  6 and mass  12.00000

 Molecular mass:   434.99839 amu.
 Principal axes and moments of inertia in atomic units:
                           1         2         3
     Eigenvalues --  8563.15789********************
           X            0.99734  -0.06993   0.02074
           Y            0.06990   0.99755   0.00171
           Z           -0.02081  -0.00026   0.99978
 This molecule is an asymmetric top.
 Rotational symmetry number  1.
 Warning -- assumption of classical behavior for rotation
           may cause significant error
 Rotational temperatures (Kelvin)      0.01011     0.00714     0.00620
 Rotational constants (GHZ):           0.21076     0.14872     0.12917
    1 imaginary frequencies ignored.
 Zero-point vibrational energy     938575.2 (Joules/Mol)
                                  224.32486 (Kcal/Mol)
 Warning -- explicit consideration of  41 degrees of freedom as
           vibrations may cause significant error
 Vibrational temperatures:     24.66    37.13    46.20    57.80    66.87
          (Kelvin)             87.88    96.11   114.45   125.62   134.53
                              139.34   156.73   162.55   169.63   181.20
                              206.24   220.34   236.03   263.44   278.11
                              303.46   325.55   347.78   376.98   400.01
                              412.56   462.28   475.73   494.33   513.68
                              536.89   555.54   571.21   595.20   617.61
                              638.24   684.20   729.65   763.31   786.91
                              799.22   901.60   906.39   965.37  1015.88
                             1021.11  1087.12  1094.62  1140.66  1150.49
                             1191.95  1202.69  1220.13  1242.59  1287.13
                             1320.95  1330.38  1357.85  1411.21  1417.26
                             1426.57  1439.99  1447.94  1450.75  1468.01
                             1488.57  1496.35  1507.37  1521.07  1586.07
                             1597.72  1610.87  1624.03  1661.83  1684.25
                             1687.17  1698.97  1713.61  1726.30  1772.73
                             1787.94  1803.90  1881.31  1888.28  1891.62
                             1899.37  1908.03  1916.56  1940.27  1949.95
                             1961.21  1974.10  1998.85  2021.47  2030.06
                             2052.47  2089.58  2113.67  2124.63  2126.47
                             2132.47  2142.17  2149.75  2153.26  2166.79
                             2179.77  2334.17  2360.39  2536.01  4184.97
                             4223.06  4370.84  4379.46  4387.07  4405.78
                             4422.60  4428.62  4430.30  4442.27  4467.21
                             4478.31  4486.72  4488.38  4523.63  4553.92
                             4557.73  4569.33  4570.53  4582.66  4596.99
                             4633.59

 Zero-point correction=                           0.357484 (Hartree/Particle)
 Thermal correction to Energy=                    0.384736
 Thermal correction to Enthalpy=                  0.385680
 Thermal correction to Gibbs Free Energy=         0.295132
 Sum of electronic and zero-point Energies=          -3531.055047
 Sum of electronic and thermal Energies=             -3531.027795
 Sum of electronic and thermal Enthalpies=           -3531.026851
 Sum of electronic and thermal Free Energies=        -3531.117399

                     E (Thermal)             CV                S
                      KCal/Mol        Cal/Mol-Kelvin    Cal/Mol-Kelvin
 Total                  241.426             97.445            190.576
 Electronic               0.000              0.000              3.561
 Translational            0.889              2.981             44.100
 Rotational               0.889              2.981             35.628
 Vibrational            239.648             91.484            107.287
 Vibration     1          0.593              1.986              6.941
 Vibration     2          0.593              1.985              6.128
 Vibration     3          0.594              1.983              5.694
 Vibration     4          0.594              1.981              5.250
 Vibration     5          0.595              1.979              4.962
 Vibration     6          0.597              1.973              4.422
 Vibration     7          0.598              1.970              4.246
 Vibration     8          0.600              1.963              3.902
 Vibration     9          0.601              1.958              3.719
 Vibration    10          0.603              1.954              3.585
 Vibration    11          0.603              1.951              3.517
 Vibration    12          0.606              1.942              3.288
 Vibration    13          0.607              1.939              3.217
 Vibration    14          0.608              1.934              3.135
 Vibration    15          0.611              1.927              3.007
 Vibration    16          0.616              1.910              2.759
 Vibration    17          0.619              1.899              2.633
 Vibration    18          0.623              1.887              2.503
 Vibration    19          0.631              1.863              2.297
 Vibration    20          0.635              1.849              2.196
 Vibration    21          0.643              1.824              2.036
 Vibration    22          0.650              1.801              1.908
 Vibration    23          0.658              1.776              1.790
 Vibration    24          0.669              1.742              1.648
 Vibration    25          0.679              1.714              1.546
 Vibration    26          0.684              1.698              1.493
 Vibration    27          0.707              1.633              1.303
 Vibration    28          0.713              1.614              1.257
 Vibration    29          0.722              1.588              1.195
 Vibration    30          0.732              1.561              1.135
 Vibration    31          0.745              1.527              1.067
 Vibration    32          0.755              1.500              1.015
 Vibration    33          0.764              1.477              0.974
 Vibration    34          0.777              1.441              0.914
 Vibration    35          0.791              1.407              0.861
 Vibration    36          0.803              1.375              0.815
 Vibration    37          0.832              1.304              0.722
 Vibration    38          0.862              1.234              0.641
 Vibration    39          0.885              1.182              0.586
 Vibration    40          0.902              1.146              0.551
 Vibration    41          0.911              1.128              0.533

                           ! Non-Optimized Parameters !
 Normal termination of Gaussian 16 at Sun Jun 20 06:20:10 2021.

 ----------------------------------------------------------------------
 #p ub3lyp jul-cc-pvdz pop=cm5 scrf=(pcm,solvent=dichloroethane) guess=
 read geom=allcheck
 ----------------------------------------------------------------------

 Structure from the checkpoint file:  "checkpoint.chk"
 -----
 title
 -----
 Charge =  0 Multiplicity = 6

 SCF Done:  E(UB3LYP) =  -3531.43845607     A.U. after   17 cycles
 Normal termination of Gaussian 16 at Sun Jun 20 06:39:15 2021.
 Gaussian 16:  ES64L-G16RevA.03 25-Dec-2016

 ----------------------------------------------------------------------
 #p ub3lyp jul-cc-pvdz pop=cm5 scrf=(pcm,solvent=water) guess=read geom
 =allcheck
 ----------------------------------------------------------------------

 Structure from the checkpoint file:  "checkpoint.chk"
 -----
 title
 -----
 Charge =  0 Multiplicity = 6

                         Standard orientation:
 ---------------------------------------------------------------------
 Center     Atomic      Atomic             Coordinates (Angstroms)
 Number     Number       Type             X           Y           Z
 ---------------------------------------------------------------------
      1          6           0       -2.667372   -1.915227   -0.073654
      2          6           0       -1.528258   -1.247328   -0.555296
      3          6           0       -1.393931   -1.065518   -1.938958
      4          6           0       -2.363525   -1.555166   -2.820485
      5          6           0       -3.486647   -2.226880   -2.332679
      6          6           0       -3.638137   -2.399424   -0.951934
      7          6           0       -0.451709   -0.686351    0.388035
      8          6           0       -1.005112    0.304665    1.513407
      9          6           0       -1.067858   -0.434900    2.849196
     10          6           0        0.153371   -1.355337    2.800443
     11          6           0        0.100527   -1.943792    1.389975
     12          6           0        1.276945   -2.561260    0.825407
     13          6           0        2.599441   -2.378915    1.439971
     14          8           0        0.542321   -0.118579   -0.329422
     15         26           0        2.077817    0.923629   -0.510991
     16         17           0        2.824694    1.311831    1.579281
     17          6           0        1.196599   -3.258674   -0.463502
     18         17           0        1.659982    2.770577   -1.634661
     19         17           0        3.508757   -0.451606   -1.572272
     20          1           0       -0.528557   -0.526821   -2.318478
     21          1           0       -2.237747   -1.404341   -3.893696
     22          1           0       -4.243356   -2.608592   -3.019790
     23          1           0       -4.518692   -2.906746   -0.555359
     24          1           0       -2.824778   -2.045935    0.997470
     25          1           0       -0.232220    1.080892    1.566169
     26          6           0       -2.308024    0.990403    1.130053
     27          1           0       -1.039224    0.261110    3.696668
     28          1           0       -2.002667   -1.005844    2.931869
     29          1           0        1.066466   -0.763862    2.944265
     30          1           0        0.129862   -2.142611    3.567310
     31          1           0       -0.729338   -2.654973    1.293719
     32          1           0        0.182124   -3.509233   -0.782487
     33          1           0        1.632397   -2.524089   -1.180796
     34          1           0        1.867458   -4.128219   -0.499206
     35          1           0        3.404258   -2.875653    0.891463
     36          1           0        2.810949   -1.291152    1.503470
     37          1           0        2.575067   -2.713876    2.490200
     38          8           0       -2.110891    1.859108    0.127392
     39          8           0       -3.376632    0.785888    1.670018
     40          6           0       -3.267227    2.592948   -0.364224
     41          6           0       -3.467759    3.882478    0.413376
     42          1           0       -3.024194    2.789047   -1.415332
     43          1           0       -4.146237    1.940283   -0.304353
     44          1           0       -4.298950    4.449241   -0.032067
     45          1           0       -3.716369    3.675870    1.462698
     46          1           0       -2.564183    4.505839    0.373423
 ---------------------------------------------------------------------

 SCF Done:  E(UB3LYP) =  -3531.44325380     A.U. after   15 cycles

 The electronic state is 6-A.
 Alpha  occ. eigenvalues -- -256.19844-101.51995-101.51929-101.51614 -30.19256
 Alpha  occ. eigenvalues --  -26.04567 -26.04488 -26.04403 -19.20215 -19.15949
 Alpha  occ. eigenvalues --  -19.15213 -10.32912 -10.31582 -10.30415 -10.24710
 Alpha  occ. eigenvalues --  -10.23248 -10.22109 -10.22038 -10.21852 -10.21255
 Alpha  occ. eigenvalues --  -10.20417 -10.20293 -10.20276 -10.20196 -10.20095
 Alpha  occ. eigenvalues --  -10.19962 -10.19825 -10.18603  -9.43688  -9.43677
 Alpha  occ. eigenvalues --   -9.43328  -7.19555  -7.19530  -7.19241  -7.19236
 Alpha  occ. eigenvalues --   -7.19220  -7.19203  -7.19200  -7.18880  -7.18846
 Alpha  occ. eigenvalues --   -3.66985  -2.44503  -2.44322  -2.44189  -1.12017
 Alpha  occ. eigenvalues --   -1.04383  -1.03582  -0.89410  -0.87057  -0.84494
 Alpha  occ. eigenvalues --   -0.79857  -0.79220  -0.78910  -0.78751  -0.77612
 Alpha  occ. eigenvalues --   -0.75884  -0.75381  -0.74667  -0.71622  -0.67043
 Alpha  occ. eigenvalues --   -0.64571  -0.61957  -0.61442  -0.59498  -0.57008
 Alpha  occ. eigenvalues --   -0.56341  -0.54479  -0.53318  -0.51474  -0.50820
 Alpha  occ. eigenvalues --   -0.49767  -0.49160  -0.48849  -0.47759  -0.47346
 Alpha  occ. eigenvalues --   -0.47269  -0.47084  -0.46899  -0.46398  -0.46122
 Alpha  occ. eigenvalues --   -0.45269  -0.44563  -0.44276  -0.43981  -0.43087
 Alpha  occ. eigenvalues --   -0.42848  -0.42116  -0.41421  -0.40914  -0.40783
 Alpha  occ. eigenvalues --   -0.39894  -0.38922  -0.38280  -0.37606  -0.37389
 Alpha  occ. eigenvalues --   -0.36746  -0.36179  -0.36146  -0.35475  -0.34937
 Alpha  occ. eigenvalues --   -0.34674  -0.34165  -0.34078  -0.31782  -0.31401
 Alpha  occ. eigenvalues --   -0.30877  -0.30760  -0.30610  -0.30221  -0.29778
 Alpha  occ. eigenvalues --   -0.29551  -0.28543  -0.28344  -0.26720  -0.26214
 Alpha virt. eigenvalues --   -0.14075  -0.03106  -0.02801  -0.01645  -0.01147
 Alpha virt. eigenvalues --   -0.00155  -0.00061   0.00018   0.01425   0.01558
 Alpha virt. eigenvalues --    0.01833   0.02085   0.02291   0.03098   0.03505

  Beta  occ. eigenvalues -- -256.19659-101.51832-101.51762-101.51457 -30.10323
  Beta  occ. eigenvalues --  -25.97087 -25.97064 -25.96970 -19.20215 -19.15210
  Beta  occ. eigenvalues --  -19.15157 -10.32913 -10.31567 -10.30403 -10.24710
  Beta  occ. eigenvalues --  -10.23222 -10.22109 -10.22039 -10.21831 -10.21226
  Beta  occ. eigenvalues --  -10.20416 -10.20293 -10.20273 -10.20197 -10.20094
  Beta  occ. eigenvalues --  -10.19964 -10.19823 -10.18603  -9.43527  -9.43513
  Beta  occ. eigenvalues --   -9.43173  -7.19265  -7.19261  -7.19032  -7.19013
  Beta  occ. eigenvalues --   -7.18998  -7.18990  -7.18918  -7.18666  -7.18663
  Beta  occ. eigenvalues --   -3.46166  -2.22480  -2.22437  -2.22283  -1.12014
  Beta  occ. eigenvalues --   -1.03579  -1.02832  -0.89269  -0.87012  -0.84419
  Beta  occ. eigenvalues --   -0.78808  -0.78752  -0.78083  -0.77798  -0.77476
  Beta  occ. eigenvalues --   -0.75872  -0.75353  -0.74655  -0.71500  -0.66909
  Beta  occ. eigenvalues --   -0.64408  -0.61889  -0.61390  -0.59266  -0.56628
  Beta  occ. eigenvalues --   -0.56018  -0.54376  -0.52473  -0.51310  -0.50523
  Beta  occ. eigenvalues --   -0.49653  -0.49000  -0.48211  -0.47245  -0.46384
  Beta  occ. eigenvalues --   -0.46231  -0.44883  -0.44644  -0.44080  -0.43161
  Beta  occ. eigenvalues --   -0.42899  -0.42221  -0.41341  -0.40933  -0.40736
  Beta  occ. eigenvalues --   -0.39880  -0.38904  -0.38265  -0.37652  -0.37560
  Beta  occ. eigenvalues --   -0.37207  -0.36170  -0.36123  -0.35525  -0.35494
  Beta  occ. eigenvalues --   -0.35259  -0.34935  -0.34728  -0.32900  -0.32751
  Beta  occ. eigenvalues --   -0.32304  -0.32060  -0.31839  -0.31676  -0.29845
  Beta  occ. eigenvalues --   -0.29542  -0.28776  -0.28097  -0.26724  -0.26168
  Beta virt. eigenvalues --   -0.14423  -0.13592  -0.13438  -0.12631  -0.12028
  Beta virt. eigenvalues --   -0.11360  -0.03070  -0.02770  -0.01542  -0.01099
  Beta virt. eigenvalues --   -0.00111  -0.00027   0.00048   0.01439   0.01586

 Mulliken charges and spin densities:
               1          2
     1  C   -0.138050   0.000374
     2  C    2.908169  -0.003179
     3  C   -0.657643  -0.005083
     4  C   -0.001771   0.002309
     5  C    0.202413  -0.001835
     6  C   -0.084872   0.002544
     7  C   -1.972499   0.013720
     8  C    0.252814   0.015257
     9  C    0.696551   0.001172
    10  C    0.679020   0.000660
    11  C    0.680815   0.014487
    12  C   -0.396199   0.011510
    13  C    0.316204  -0.003328
    14  O   -0.570126   0.259553
    15  Fe   0.663739   4.042159
    16  Cl  -0.552469   0.210499
    17  C    0.282435  -0.002053
    18  Cl  -0.496764   0.232831
    19  Cl  -0.546297   0.209202
    20  H   -0.197834  -0.000119
    21  H   -0.155581   0.000006
    22  H   -0.164084   0.000033
    23  H   -0.158210   0.000231
    24  H   -0.180995  -0.000121
    25  H   -0.228389   0.000451
    26  C    0.945304  -0.003430
    27  H   -0.159506   0.000370
    28  H   -0.061104  -0.000171
    29  H   -0.072728  -0.000399
    30  H   -0.149357   0.000446
    31  H   -0.173646  -0.000707
    32  H    0.045892   0.000074
    33  H    0.170225   0.000544
    34  H    0.005715   0.000134
    35  H   -0.013892  -0.000047
    36  H    0.169141   0.002382
    37  H    0.077179   0.000739
    38  O   -0.761811  -0.002449
    39  O   -0.689757   0.001300
    40  C    0.500701  -0.000084
    41  C    0.045813   0.000002
    42  H   -0.056543   0.000037
    43  H   -0.033396  -0.000022
    44  H   -0.001248  -0.000002
    45  H    0.017868  -0.000002
    46  H    0.014773   0.000004
 Sum of Mulliken charges =  -0.00000   5.00000

 Dipole moment (field-independent basis, Debye):
    X=             -5.5499    Y=            -12.4935    Z=              4.2317  Tot=             14.3107
 Quadrupole moment (field-independent basis, Debye-Ang):
   XX=           -195.2173   YY=           -155.4371   ZZ=           -173.2733
   XY=            -21.1881   XZ=             19.6285   YZ=             -5.8943

 Normal termination of Gaussian 16 at Sun Jun 20 06:55:54 2021.
