 Gaussian 16, Revision A.03,

 -----------------------------------------------------------
 #p opt=modredundant freq=noraman ub3lyp jul-cc-pvdz pop=cm5
 -----------------------------------------------------------

 -----
 title
 -----
 Symbolic Z-matrix:
 Charge =  0 Multiplicity = 6

 SCF Done:  E(UB3LYP) =  -3531.40138288     A.U. after   25 cycles
 SCF Done:  E(UB3LYP) =  -3531.40046537     A.U. after   18 cycles
 SCF Done:  E(UB3LYP) =  -3531.39851029     A.U. after   18 cycles
 SCF Done:  E(UB3LYP) =  -3531.39731311     A.U. after   16 cycles
 SCF Done:  E(UB3LYP) =  -3531.40154881     A.U. after   14 cycles
 SCF Done:  E(UB3LYP) =  -3531.40113975     A.U. after   19 cycles
 SCF Done:  E(UB3LYP) =  -3531.40159041     A.U. after   15 cycles
 SCF Done:  E(UB3LYP) =  -3531.40183058     A.U. after   15 cycles
 SCF Done:  E(UB3LYP) =  -3531.40194308     A.U. after   15 cycles
 SCF Done:  E(UB3LYP) =  -3531.40197844     A.U. after   13 cycles
 SCF Done:  E(UB3LYP) =  -3531.40199114     A.U. after    9 cycles
 SCF Done:  E(UB3LYP) =  -3531.40199084     A.U. after   11 cycles
 SCF Done:  E(UB3LYP) =  -3531.40199037     A.U. after    9 cycles
 SCF Done:  E(UB3LYP) =  -3531.40199030     A.U. after    9 cycles
 SCF Done:  E(UB3LYP) =  -3531.40199034     A.U. after    9 cycles
 SCF Done:  E(UB3LYP) =  -3531.40199040     A.U. after    9 cycles
 SCF Done:  E(UB3LYP) =  -3531.40199037     A.U. after    8 cycles
 Optimization completed.
    -- Stationary point found.
 Normal termination of Gaussian 16 at Sun Jun 20 04:25:56 2021.

 ----------------------------------------------------------------------
 #P Geom=AllCheck Guess=TCheck SCRF=Check GenChk UB3LYP/Jul-CC-pVDZ Fre
 q
 ----------------------------------------------------------------------

 Structure from the checkpoint file:  "checkpoint.chk"
 -----
 title
 -----
 Charge =  0 Multiplicity = 6

 SCF Done:  E(UB3LYP) =  -3531.40199037     A.U. after    1 cycles

  Exact polarizability: 324.522   8.346 286.402  16.267  13.961 294.867
 Approx polarizability: 498.037  19.212 429.171  18.522  31.247 488.913

 ******    1 imaginary frequencies (negative Signs) ******

                      1                      2                      3
                      A                      A                      A
 Frequencies --   -553.8519                17.2149                23.5280
 Red. masses --     10.4573                 4.5838                 7.7941
 Frc consts  --      1.8900                 0.0008                 0.0025
 IR Inten    --    197.8352                 0.7425                 0.6654

                      4                      5                      6
                      A                      A                      A
 Frequencies --     37.0591                47.1161                53.6218
 Red. masses --      4.5010                 7.5444                 3.7388
 Frc consts  --      0.0036                 0.0099                 0.0063
 IR Inten    --      0.6721                 1.3752                 0.1567

                      7                      8                      9
                      A                      A                      A
 Frequencies --     56.3047                65.7663                71.8777
 Red. masses --      3.0452                 6.1735                 6.4320
 Frc consts  --      0.0057                 0.0157                 0.0196
 IR Inten    --      1.1377                 1.0062                 2.3275

                     10                     11                     12
                      A                      A                      A
 Frequencies --     83.9118                92.3353               101.2523
 Red. masses --     12.2185                 6.8043                 8.6259
 Frc consts  --      0.0507                 0.0342                 0.0521
 IR Inten    --      1.0608                 0.9886                 0.6379

                     13                     14                     15
                      A                      A                      A
 Frequencies --    112.2672               116.4563               120.0481
 Red. masses --      9.5704                 3.2706                15.1873
 Frc consts  --      0.0711                 0.0261                 0.1290
 IR Inten    --      5.3711                 0.8930                 1.4677

                     16                     17                     18
                      A                      A                      A
 Frequencies --    131.9142               149.2354               171.1579
 Red. masses --      6.9655                 4.2963                 2.6318
 Frc consts  --      0.0714                 0.0564                 0.0454
 IR Inten    --      3.9777                 2.5437                 2.0973

                     19                     20                     21
                      A                      A                      A
 Frequencies --    187.0921               188.3551               206.8397
 Red. masses --      2.0607                 1.8246                 1.7155
 Frc consts  --      0.0425                 0.0381                 0.0432
 IR Inten    --      8.9459                 1.2428                 1.3111

                     22                     23                     24
                      A                      A                      A
 Frequencies --    212.3785               226.9237               239.5784
 Red. masses --      4.2728                 2.8949                 2.4508
 Frc consts  --      0.1135                 0.0878                 0.0829
 IR Inten    --      1.0544                 1.7449                37.0466

                     25                     26                     27
                      A                      A                      A
 Frequencies --    242.1013               258.4093               291.2923
 Red. masses --      1.5674                 1.8027                 4.0155
 Frc consts  --      0.0541                 0.0709                 0.2007
 IR Inten    --      9.0520                 5.8169                 5.3510

                     28                     29                     30
                      A                      A                      A
 Frequencies --    304.2870               317.1507               336.9191
 Red. masses --      4.5657                 2.5334                26.5396
 Frc consts  --      0.2491                 0.1501                 1.7750
 IR Inten    --     42.0246                12.7879                32.4583

                     31                     32                     33
                      A                      A                      A
 Frequencies --    360.0237               380.0941               381.7668
 Red. masses --      5.2521                 4.5868                16.3645
 Frc consts  --      0.4011                 0.3904                 1.4052
 IR Inten    --      1.7395                15.1070                73.4564

                     34                     35                     36
                      A                      A                      A
 Frequencies --    396.4502               403.5798               410.5472
 Red. masses --     15.7649                 3.5403                 3.0423
 Frc consts  --      1.4599                 0.3397                 0.3021
 IR Inten    --     73.3752                17.0691                10.3763

                     37                     38                     39
                      A                      A                      A
 Frequencies --    418.0662               444.2295               462.0475
 Red. masses --      3.2614                 4.4069                 3.7152
 Frc consts  --      0.3359                 0.5124                 0.4673
 IR Inten    --     19.4159                17.9641                 0.8289

                     40                     41                     42
                      A                      A                      A
 Frequencies --    500.2903               522.0844               578.2583
 Red. masses --      2.6404                 3.0912                 3.2103
 Frc consts  --      0.3894                 0.4964                 0.6325
 IR Inten    --      2.1972                 5.0714                33.9856

                     43                     44                     45
                      A                      A                      A
 Frequencies --    603.5812               627.7201               652.6048
 Red. masses --      3.5207                 6.2030                 4.9316
 Frc consts  --      0.7557                 1.4401                 1.2375
 IR Inten    --     31.8433                 2.5016                32.4440

                     46                     47                     48
                      A                      A                      A
 Frequencies --    698.0805               705.4683               763.7147
 Red. masses --      2.3167                 2.4928                 2.8794
 Frc consts  --      0.6652                 0.7310                 0.9895
 IR Inten    --     13.0151                63.2234                13.9750

                     49                     50                     51
                      A                      A                      A
 Frequencies --    768.3527               791.8862               804.9095
 Red. masses --      3.5890                 2.7067                 1.1763
 Frc consts  --      1.2484                 1.0001                 0.4490
 IR Inten    --      0.9962                 0.3910                 1.8770

                     52                     53                     54
                      A                      A                      A
 Frequencies --    832.0014               842.7950               860.1864
 Red. masses --      4.2870                 1.2725                 2.1285
 Frc consts  --      1.7484                 0.5325                 0.9279
 IR Inten    --     10.6514                 0.6127                12.8039

                     55                     56                     57
                      A                      A                      A
 Frequencies --    872.4637               877.3494               915.7836
 Red. masses --      1.8721                 1.4848                 2.2263
 Frc consts  --      0.8396                 0.6734                 1.1001
 IR Inten    --     12.3890                 3.9809                 8.7158

                     58                     59                     60
                      A                      A                      A
 Frequencies --    931.4403               939.0303               973.7087
 Red. masses --      1.4766                 1.6176                 1.9882
 Frc consts  --      0.7548                 0.8404                 1.1106
 IR Inten    --      2.2431                 2.8102                65.6906

                     61                     62                     63
                      A                      A                      A
 Frequencies --    979.7823               982.8139               996.9855
 Red. masses --      2.2683                 1.4501                 2.4230
 Frc consts  --      1.2830                 0.8253                 1.4190
 IR Inten    --     20.7430                 0.6662                30.8708

                     64                     65                     66
                      A                      A                      A
 Frequencies --    999.5775              1006.0705              1012.0184
 Red. masses --      1.4982                 3.3592                 1.5492
 Frc consts  --      0.8820                 2.0033                 0.9348
 IR Inten    --      4.8347                 0.5690                18.1234

                     67                     68                     69
                      A                      A                      A
 Frequencies --   1018.5481              1043.5765              1044.7052
 Red. masses --      2.1078                 2.7592                 2.6050
 Frc consts  --      1.2884                 1.7704                 1.6751
 IR Inten    --     80.8043                14.1531                18.3017

                     70                     71                     72
                      A                      A                      A
 Frequencies --   1061.8800              1073.3789              1091.2983
 Red. masses --      2.0449                 2.4043                 1.9572
 Frc consts  --      1.3586                 1.6321                 1.3733
 IR Inten    --     23.0764                18.5985                48.3995

                     73                     74                     75
                      A                      A                      A
 Frequencies --   1114.9725              1128.1083              1133.5851
 Red. masses --      1.9560                 2.3210                 2.1774
 Frc consts  --      1.4327                 1.7403                 1.6486
 IR Inten    --      9.2582                 8.3156                11.5480

                     76                     77                     78
                      A                      A                      A
 Frequencies --   1160.1465              1170.3087              1174.5178
 Red. masses --      1.6224                 1.5651                 1.0866
 Frc consts  --      1.2865                 1.2630                 0.8831
 IR Inten    --     31.0161                 2.6473                 0.3406

                     79                     80                     81
                      A                      A                      A
 Frequencies --   1202.6527              1209.3213              1230.3282
 Red. masses --      1.1615                 1.5243                 2.3301
 Frc consts  --      0.9898                 1.3134                 2.0781
 IR Inten    --      8.4313                53.0833               198.6958

                     82                     83                     84
                      A                      A                      A
 Frequencies --   1246.0210              1261.0126              1285.6066
 Red. masses --      1.9704                 2.4629                 1.1166
 Frc consts  --      1.8024                 2.3075                 1.0873
 IR Inten    --     37.2585                83.8946                 1.6164

                     85                     86                     87
                      A                      A                      A
 Frequencies --   1316.1228              1316.6466              1319.8061
 Red. masses --      1.4123                 1.7003                 1.5907
 Frc consts  --      1.4414                 1.7366                 1.6325
 IR Inten    --     25.8023                31.4686                22.6584

                     88                     89                     90
                      A                      A                      A
 Frequencies --   1330.6126              1340.9687              1358.3805
 Red. masses --      1.7404                 1.6669                 2.8883
 Frc consts  --      1.8155                 1.7660                 3.1400
 IR Inten    --     45.4097                77.0238                 2.7173

                     91                     92                     93
                      A                      A                      A
 Frequencies --   1363.4749              1385.7107              1387.7062
 Red. masses --      1.4476                 1.3604                 1.4769
 Frc consts  --      1.5857                 1.5391                 1.6757
 IR Inten    --     21.4501                41.4411                47.7174

                     94                     95                     96
                      A                      A                      A
 Frequencies --   1394.5426              1411.0404              1416.9488
 Red. masses --      1.2573                 1.4949                 1.4492
 Frc consts  --      1.4406                 1.7536                 1.7143
 IR Inten    --     45.4153                28.4644                 3.0097

                     97                     98                     99
                      A                      A                      A
 Frequencies --   1442.1949              1465.6216              1470.1521
 Red. masses --      1.1184                 1.3507                 1.7935
 Frc consts  --      1.3706                 1.7094                 2.2839
 IR Inten    --      1.1906                 6.4350                18.3738

                    100                    101                    102
                      A                      A                      A
 Frequencies --   1473.1410              1478.6800              1487.2826
 Red. masses --      1.0386                 1.1792                 1.0955
 Frc consts  --      1.3279                 1.5191                 1.4277
 IR Inten    --      5.9384                 5.9826                 4.3808

                    103                    104                    105
                      A                      A                      A
 Frequencies --   1487.9303              1498.6665              1507.5698
 Red. masses --      1.0532                 1.1161                 1.0851
 Frc consts  --      1.3739                 1.4769                 1.4531
 IR Inten    --      5.0926                 8.4397                 6.7424

                    106                    107                    108
                      A                      A                      A
 Frequencies --   1511.0128              1518.1183              1618.2095
 Red. masses --      1.0976                 2.1182                 5.5972
 Frc consts  --      1.4765                 2.8762                 8.6355
 IR Inten    --      4.8779                 2.1513                 0.1783

                    109                    110                    111
                      A                      A                      A
 Frequencies --   1641.4317              1762.9183              3001.9943
 Red. masses --      5.6682                11.7367                 1.0510
 Frc consts  --      8.9979                21.4913                 5.5804
 IR Inten    --      4.7414               237.0517                 1.6253

                    112                    113                    114
                      A                      A                      A
 Frequencies --   3010.5540              3041.3041              3054.9764
 Red. masses --      1.0514                 1.0361                 1.0618
 Frc consts  --      5.6146                 5.6465                 5.8384
 IR Inten    --      7.3638                18.9127                24.4469

                    115                    116                    117
                      A                      A                      A
 Frequencies --   3058.7832              3064.6824              3069.0597
 Red. masses --      1.0595                 1.0768                 1.0687
 Frc consts  --      5.8404                 5.9587                 5.9307
 IR Inten    --     16.9029                12.9011                14.0533

                    118                    119                    120
                      A                      A                      A
 Frequencies --   3095.6783              3103.2293              3106.9690
 Red. masses --      1.1028                 1.0807                 1.1057
 Frc consts  --      6.2265                 6.1317                 6.2887
 IR Inten    --      9.4817                 1.5407                 9.0132

                    121                    122                    123
                      A                      A                      A
 Frequencies --   3115.4957              3116.7240              3118.8686
 Red. masses --      1.0996                 1.1019                 1.0830
 Frc consts  --      6.2886                 6.3062                 6.2070
 IR Inten    --     11.6458                19.9973                 5.2060

                    124                    125                    126
                      A                      A                      A
 Frequencies --   3138.9154              3141.1733              3159.9035
 Red. masses --      1.1041                 1.0888                 1.1067
 Frc consts  --      6.4096                 6.3296                 6.5108
 IR Inten    --     15.2130                 8.4090                 0.4122

                    127                    128                    129
                      A                      A                      A
 Frequencies --   3170.9042              3172.3268              3182.3792
 Red. masses --      1.0855                 1.1051                 1.0907
 Frc consts  --      6.4306                 6.5526                 6.5082
 IR Inten    --      0.1071                 2.0968                 8.2299

                    130                    131                    132
                      A                      A                      A
 Frequencies --   3193.8159              3214.2786              3231.8264
 Red. masses --      1.0966                 1.0927                 1.0917
 Frc consts  --      6.5905                 6.6516                 6.7181
 IR Inten    --     17.2358                 2.8406                 1.4492

 - Thermochemistry -
 -------------------
 Temperature   298.150 Kelvin.  Pressure   1.00000 Atm.
 Atom     1 has atomic number  6 and mass  12.00000

 Molecular mass:   434.99839 amu.
 Principal axes and moments of inertia in atomic units:
                           1         2         3
     Eigenvalues --  8889.61616********************
           X            0.99702   0.07420   0.02098
           Y           -0.07458   0.99705   0.01819
           Z           -0.01956  -0.01970   0.99961
 This molecule is an asymmetric top.
 Rotational symmetry number  1.
 Warning -- assumption of classical behavior for rotation
           may cause significant error
 Rotational temperatures (Kelvin)      0.00974     0.00780     0.00688
 Rotational constants (GHZ):           0.20302     0.16243     0.14342
    1 imaginary frequencies ignored.
 Zero-point vibrational energy     939528.3 (Joules/Mol)
                                  224.55264 (Kcal/Mol)
 Warning -- explicit consideration of  42 degrees of freedom as
           vibrations may cause significant error
 Vibrational temperatures:     24.77    33.85    53.32    67.79    77.15
          (Kelvin)             81.01    94.62   103.42   120.73   132.85
                              145.68   161.53   167.55   172.72   189.80
                              214.72   246.26   269.18   271.00   297.60
                              305.57   326.49   344.70   348.33   371.79
                              419.10   437.80   456.31   484.75   517.99
                              546.87   549.28   570.40   580.66   590.69
                              601.50   639.15   664.78   719.81   751.16
                              831.98   868.42   903.15   938.95  1004.38
                             1015.01  1098.82  1105.49  1139.35  1158.09
                             1197.06  1212.59  1237.62  1255.28  1262.31
                             1317.61  1340.13  1351.06  1400.95  1409.69
                             1414.05  1434.44  1438.17  1447.51  1456.07
                             1465.46  1501.47  1503.10  1527.81  1544.35
                             1570.13  1604.20  1623.10  1630.98  1669.19
                             1683.81  1689.87  1730.35  1739.94  1770.17
                             1792.75  1814.32  1849.70  1893.61  1894.36
                             1898.91  1914.45  1929.35  1954.41  1961.74
                             1993.73  1996.60  2006.44  2030.17  2038.67
                             2075.00  2108.70  2115.22  2119.52  2127.49
                             2139.87  2140.80  2156.25  2169.06  2174.01
                             2184.23  2328.24  2361.65  2536.45  4319.20
                             4331.52  4375.76  4395.43  4400.91  4409.39
                             4415.69  4453.99  4464.85  4470.24  4482.50
                             4484.27  4487.36  4516.20  4519.45  4546.40
                             4562.22  4564.27  4578.73  4595.19  4624.63
                             4649.88

 Zero-point correction=                           0.357847 (Hartree/Particle)
 Thermal correction to Energy=                    0.385204
 Thermal correction to Enthalpy=                  0.386148
 Thermal correction to Gibbs Free Energy=         0.295812
 Sum of electronic and zero-point Energies=          -3531.044143
 Sum of electronic and thermal Energies=             -3531.016786
 Sum of electronic and thermal Enthalpies=           -3531.015842
 Sum of electronic and thermal Free Energies=        -3531.106178

                     E (Thermal)             CV                S
                      KCal/Mol        Cal/Mol-Kelvin    Cal/Mol-Kelvin
 Total                  241.719             97.963            190.128
 Electronic               0.000              0.000              3.561
 Translational            0.889              2.981             44.100
 Rotational               0.889              2.981             35.473
 Vibrational            239.942             92.001            106.994
 Vibration     1          0.593              1.986              6.932
 Vibration     2          0.593              1.985              6.312
 Vibration     3          0.594              1.982              5.410
 Vibration     4          0.595              1.979              4.935
 Vibration     5          0.596              1.976              4.679
 Vibration     6          0.596              1.975              4.583
 Vibration     7          0.597              1.971              4.276
 Vibration     8          0.598              1.967              4.101
 Vibration     9          0.601              1.960              3.797
 Vibration    10          0.602              1.955              3.610
 Vibration    11          0.604              1.948              3.430
 Vibration    12          0.607              1.939              3.229
 Vibration    13          0.608              1.936              3.158
 Vibration    14          0.609              1.933              3.100
 Vibration    15          0.612              1.921              2.918
 Vibration    16          0.618              1.904              2.682
 Vibration    17          0.626              1.878              2.423
 Vibration    18          0.632              1.858              2.256
 Vibration    19          0.633              1.856              2.244
 Vibration    20          0.641              1.830              2.071
 Vibration    21          0.643              1.822              2.023
 Vibration    22          0.651              1.800              1.903
 Vibration    23          0.657              1.780              1.806
 Vibration    24          0.658              1.776              1.787
 Vibration    25          0.667              1.749              1.672
 Vibration    26          0.687              1.690              1.466
 Vibration    27          0.695              1.666              1.393
 Vibration    28          0.704              1.641              1.325
 Vibration    29          0.718              1.602              1.227
 Vibration    30          0.735              1.555              1.122
 Vibration    31          0.750              1.513              1.039
 Vibration    32          0.751              1.509              1.032
 Vibration    33          0.763              1.478              0.976
 Vibration    34          0.769              1.462              0.950
 Vibration    35          0.775              1.447              0.925
 Vibration    36          0.781              1.431              0.899
 Vibration    37          0.804              1.374              0.813
 Vibration    38          0.820              1.334              0.760
 Vibration    39          0.856              1.249              0.657
 Vibration    40          0.877              1.201              0.605
 Vibration    41          0.935              1.078              0.489
 Vibration    42          0.962              1.024              0.444

                           ! Non-Optimized Parameters !
 Normal termination of Gaussian 16 at Sun Jun 20 07:35:30 2021.

 ----------------------------------------------------------------------
 #p ub3lyp jul-cc-pvdz pop=cm5 scrf=(pcm,solvent=dichloroethane) guess=
 read geom=allcheck
 ----------------------------------------------------------------------

 Structure from the checkpoint file:  "checkpoint.chk"
 -----
 title
 -----
 Charge =  0 Multiplicity = 6

 SCF Done:  E(UB3LYP) =  -3531.42378516     A.U. after   18 cycles
 Normal termination of Gaussian 16 at Sun Jun 20 07:56:18 2021.
 Gaussian 16:  ES64L-G16RevA.03 25-Dec-2016

 ----------------------------------------------------------------------
 #p ub3lyp jul-cc-pvdz pop=cm5 scrf=(pcm,solvent=water) guess=read geom
 =allcheck
 ----------------------------------------------------------------------

 Structure from the checkpoint file:  "checkpoint.chk"
 -----
 title
 -----
 Charge =  0 Multiplicity = 6

                         Standard orientation:
 ---------------------------------------------------------------------
 Center     Atomic      Atomic             Coordinates (Angstroms)
 Number     Number       Type             X           Y           Z
 ---------------------------------------------------------------------
      1          6           0        2.998014   -1.217024    0.541702
      2          6           0        1.629524   -0.967550    0.772399
      3          6           0        1.193766   -0.789466    2.097070
      4          6           0        2.100450   -0.849198    3.159241
      5          6           0        3.452594   -1.101369    2.919454
      6          6           0        3.897150   -1.285121    1.604048
      7          6           0        0.655823   -0.923378   -0.362381
      8          6           0        1.041373   -0.185317   -1.676266
      9          6           0        1.538455   -1.220038   -2.701376
     10          6           0        0.611877   -2.445098   -2.577958
     11          6           0        0.342244   -2.647482   -1.096638
     12          6           0       -1.025997   -2.608662   -0.526015
     13          6           0       -2.232908   -2.446347   -1.381413
     14          8           0       -0.692245   -0.725290    0.058382
     15         26           0       -1.943462    0.727307    0.372794
     16         17           0       -2.414345    1.570841   -1.626774
     17          6           0       -1.225383   -3.245783    0.804543
     18         17           0       -1.151943    2.184559    1.822975
     19         17           0       -3.687192   -0.356720    1.242953
     20          1           0        0.147008   -0.576037    2.295643
     21          1           0        1.742850   -0.691862    4.177658
     22          1           0        4.159246   -1.150675    3.749317
     23          1           0        4.952163   -1.476812    1.403750
     24          1           0        3.370945   -1.350879   -0.471525
     25          1           0        0.105370    0.265211   -2.033233
     26          6           0        2.034444    0.960007   -1.491990
     27          1           0        1.536734   -0.799400   -3.715620
     28          1           0        2.578120   -1.491988   -2.478680
     29          1           0       -0.316491   -2.261462   -3.133327
     30          1           0        1.075940   -3.336184   -3.022827
     31          1           0        0.996730   -3.359528   -0.587989
     32          1           0       -1.416071   -4.316632    0.605433
     33          1           0       -0.330886   -3.178023    1.432972
     34          1           0       -2.098375   -2.833501    1.322074
     35          1           0       -2.405862   -3.429377   -1.857338
     36          1           0       -3.114681   -2.189760   -0.785578
     37          1           0       -2.099251   -1.709866   -2.178514
     38          8           0        1.447224    2.012908   -0.908795
     39          8           0        3.195231    0.929203   -1.847582
     40          6           0        2.284031    3.184109   -0.676773
     41          6           0        1.377495    4.331905   -0.283641
     42          1           0        3.003030    2.929573    0.114379
     43          1           0        2.847311    3.388362   -1.596238
     44          1           0        1.991393    5.223002   -0.087008
     45          1           0        0.671250    4.567633   -1.091401
     46          1           0        0.803317    4.090980    0.619695
 ---------------------------------------------------------------------

 SCF Done:  E(UB3LYP) =  -3531.42811619     A.U. after   15 cycles

 The electronic state is 6-A.
 Alpha  occ. eigenvalues -- -256.20363-101.52175-101.52097-101.52093 -30.19746
 Alpha  occ. eigenvalues --  -26.05035 -26.05008 -26.04896 -19.20287 -19.17758
 Alpha  occ. eigenvalues --  -19.15225 -10.32949 -10.31367 -10.30266 -10.24745
 Alpha  occ. eigenvalues --  -10.22703 -10.22012 -10.21610 -10.20823 -10.20814
 Alpha  occ. eigenvalues --  -10.20445 -10.20367 -10.20287 -10.20270 -10.20169
 Alpha  occ. eigenvalues --  -10.20091 -10.19952 -10.18454  -9.43910  -9.43814
 Alpha  occ. eigenvalues --   -9.43811  -7.19771  -7.19678  -7.19677  -7.19459
 Alpha  occ. eigenvalues --   -7.19453  -7.19363  -7.19358  -7.19354  -7.19349
 Alpha  occ. eigenvalues --   -3.67429  -2.44918  -2.44781  -2.44627  -1.12122
 Alpha  occ. eigenvalues --   -1.03652  -1.03603  -0.87412  -0.86489  -0.83888
 Alpha  occ. eigenvalues --   -0.80165  -0.79454  -0.79348  -0.78656  -0.77804
 Alpha  occ. eigenvalues --   -0.76040  -0.74880  -0.73225  -0.70844  -0.66394
 Alpha  occ. eigenvalues --   -0.64204  -0.61887  -0.61229  -0.59169  -0.56872
 Alpha  occ. eigenvalues --   -0.55766  -0.54249  -0.52469  -0.51151  -0.50646
 Alpha  occ. eigenvalues --   -0.49938  -0.49326  -0.48578  -0.47893  -0.47735
 Alpha  occ. eigenvalues --   -0.47697  -0.47342  -0.46689  -0.46560  -0.45873
 Alpha  occ. eigenvalues --   -0.44712  -0.44305  -0.43827  -0.43112  -0.42801
 Alpha  occ. eigenvalues --   -0.42401  -0.41532  -0.40696  -0.39997  -0.39812
 Alpha  occ. eigenvalues --   -0.39643  -0.38725  -0.38252  -0.37567  -0.37056
 Alpha  occ. eigenvalues --   -0.36746  -0.36398  -0.36013  -0.35765  -0.35523
 Alpha  occ. eigenvalues --   -0.34426  -0.34249  -0.33801  -0.32306  -0.31854
 Alpha  occ. eigenvalues --   -0.31031  -0.30989  -0.30663  -0.30602  -0.29821
 Alpha  occ. eigenvalues --   -0.29601  -0.29343  -0.28606  -0.26849  -0.24888
 Alpha virt. eigenvalues --   -0.10662  -0.03007  -0.02807  -0.01494  -0.01237
 Alpha virt. eigenvalues --   -0.00139  -0.00024   0.00044   0.01491   0.01654
 Alpha virt. eigenvalues --    0.01822   0.01964   0.02492   0.03403   0.03651

  Beta  occ. eigenvalues -- -256.20177-101.51992-101.51922-101.51918 -30.10826
  Beta  occ. eigenvalues --  -25.97586 -25.97535 -25.97512 -19.20286 -19.17191
  Beta  occ. eigenvalues --  -19.15223 -10.32949 -10.31375 -10.30247 -10.24745
  Beta  occ. eigenvalues --  -10.22651 -10.22002 -10.21601 -10.20821 -10.20811
  Beta  occ. eigenvalues --  -10.20442 -10.20365 -10.20287 -10.20270 -10.20169
  Beta  occ. eigenvalues --  -10.20092 -10.19949 -10.18453  -9.43731  -9.43641
  Beta  occ. eigenvalues --   -9.43640  -7.19478  -7.19385  -7.19382  -7.19211
  Beta  occ. eigenvalues --   -7.19202  -7.19127  -7.19127  -7.19122  -7.19120
  Beta  occ. eigenvalues --   -3.46622  -2.22931  -2.22838  -2.22766  -1.12119
  Beta  occ. eigenvalues --   -1.03599  -1.02558  -0.87346  -0.86373  -0.83852
  Beta  occ. eigenvalues --   -0.79014  -0.78671  -0.78192  -0.78129  -0.77720
  Beta  occ. eigenvalues --   -0.76033  -0.74842  -0.73211  -0.70690  -0.66304
  Beta  occ. eigenvalues --   -0.64166  -0.61851  -0.61195  -0.58964  -0.56710
  Beta  occ. eigenvalues --   -0.55405  -0.54163  -0.51671  -0.51062  -0.50144
  Beta  occ. eigenvalues --   -0.49916  -0.48717  -0.47843  -0.47541  -0.46613
  Beta  occ. eigenvalues --   -0.45500  -0.44471  -0.43793  -0.43130  -0.42818
  Beta  occ. eigenvalues --   -0.42336  -0.41519  -0.40636  -0.40002  -0.39799
  Beta  occ. eigenvalues --   -0.39613  -0.38726  -0.38041  -0.37731  -0.37351
  Beta  occ. eigenvalues --   -0.36786  -0.36365  -0.35960  -0.35910  -0.35685
  Beta  occ. eigenvalues --   -0.35606  -0.35569  -0.34328  -0.33197  -0.32946
  Beta  occ. eigenvalues --   -0.32444  -0.32311  -0.31750  -0.31180  -0.30387
  Beta  occ. eigenvalues --   -0.29556  -0.29379  -0.28817  -0.26837  -0.25084
  Beta virt. eigenvalues --   -0.14459  -0.13929  -0.13125  -0.12935  -0.12296
  Beta virt. eigenvalues --   -0.10167  -0.02916  -0.02789  -0.01405  -0.01194
  Beta virt. eigenvalues --   -0.00094   0.00011   0.00070   0.01512   0.01671

 Mulliken charges and spin densities:
               1          2
     1  C    0.083568   0.003781
     2  C    2.662623  -0.006647
     3  C   -0.334099  -0.008611
     4  C    0.035249   0.003144
     5  C    0.253923   0.002863
     6  C   -0.097407  -0.000951
     7  C   -1.990927   0.004951
     8  C    0.367376   0.009332
     9  C    0.500189   0.002802
    10  C    0.585468  -0.000897
    11  C    0.770133   0.035171
    12  C   -0.688084  -0.006197
    13  C    0.367863   0.000448
    14  O   -0.487869   0.176286
    15  Fe   0.655609   4.059901
    16  Cl  -0.530656   0.232113
    17  C    0.362404  -0.001699
    18  Cl  -0.481781   0.250208
    19  Cl  -0.523787   0.237009
    20  H   -0.251947   0.002373
    21  H   -0.162351   0.000008
    22  H   -0.164197  -0.000043
    23  H   -0.159250   0.000146
    24  H   -0.239079  -0.000074
    25  H   -0.200868  -0.000087
    26  C    0.849493   0.000079
    27  H   -0.132823   0.000204
    28  H   -0.025477   0.000016
    29  H   -0.083884   0.000011
    30  H   -0.114734   0.001059
    31  H   -0.246981   0.000604
    32  H    0.054205   0.001559
    33  H    0.057764  -0.000092
    34  H    0.033425  -0.000627
    35  H    0.045551  -0.000096
    36  H    0.028277  -0.000367
    37  H    0.078739  -0.000606
    38  O   -0.686024   0.001965
    39  O   -0.634095   0.001058
    40  C    0.432758   0.001106
    41  C    0.041155  -0.001071
    42  H   -0.034557   0.000057
    43  H   -0.036990   0.000042
    44  H   -0.007493   0.000036
    45  H    0.022974   0.000040
    46  H    0.026612  -0.000307
 Sum of Mulliken charges =  -0.00000   5.00000

 Dipole moment (field-independent basis, Debye):
    X=              5.3344    Y=            -10.7376    Z=             -2.5835  Tot=             12.2649
 Quadrupole moment (field-independent basis, Debye-Ang):
   XX=           -196.9547   YY=           -151.6022   ZZ=           -173.7335
   XY=             13.8341   XZ=             13.3786   YZ=              5.2301

 Normal termination of Gaussian 16 at Sun Jun 20 08:13:08 2021.
