 Gaussian 16, Revision A.03,

 -----------------------------------------------------------
 #p opt=modredundant freq=noraman ub3lyp jul-cc-pvdz pop=cm5
 -----------------------------------------------------------

 -----
 title
 -----
 Symbolic Z-matrix:
 Charge =  0 Multiplicity = 6

 SCF Done:  E(UB3LYP) =  -3531.40239693     A.U. after   26 cycles
 SCF Done:  E(UB3LYP) =  -3531.40260588     A.U. after   17 cycles
 SCF Done:  E(UB3LYP) =  -3531.40213903     A.U. after   23 cycles
 SCF Done:  E(UB3LYP) =  -3531.40290451     A.U. after   15 cycles
 SCF Done:  E(UB3LYP) =  -3531.40314587     A.U. after   14 cycles
 SCF Done:  E(UB3LYP) =  -3531.40319620     A.U. after   14 cycles
 SCF Done:  E(UB3LYP) =  -3531.40320711     A.U. after   15 cycles
 SCF Done:  E(UB3LYP) =  -3531.40324131     A.U. after   14 cycles
 SCF Done:  E(UB3LYP) =  -3531.40325016     A.U. after   14 cycles
 SCF Done:  E(UB3LYP) =  -3531.40325810     A.U. after   13 cycles
 SCF Done:  E(UB3LYP) =  -3531.40326172     A.U. after   13 cycles
 SCF Done:  E(UB3LYP) =  -3531.40326382     A.U. after   11 cycles
 SCF Done:  E(UB3LYP) =  -3531.40326489     A.U. after   11 cycles
 SCF Done:  E(UB3LYP) =  -3531.40326516     A.U. after   10 cycles
 SCF Done:  E(UB3LYP) =  -3531.40326527     A.U. after    9 cycles
 Optimization completed.
    -- Stationary point found.
 Normal termination of Gaussian 16 at Sun Jun 20 02:26:05 2021.

 ----------------------------------------------------------------------
 #P Geom=AllCheck Guess=TCheck SCRF=Check GenChk UB3LYP/Jul-CC-pVDZ Fre
 q
 ----------------------------------------------------------------------

 Structure from the checkpoint file:  "checkpoint.chk"
 -----
 title
 -----
 Charge =  0 Multiplicity = 6

 SCF Done:  E(UB3LYP) =  -3531.40326527     A.U. after    2 cycles

  Exact polarizability: 312.873   1.572 319.730  34.319  13.657 285.768
 Approx polarizability: 469.149   1.858 510.699  60.392  24.591 459.425

 ******    1 imaginary frequencies (negative Signs) ******

                      1                      2                      3
                      A                      A                      A
 Frequencies --    -34.4216                23.0666                25.3817
 Red. masses --      5.0905                 4.3231                10.1097
 Frc consts  --      0.0036                 0.0014                 0.0038
 IR Inten    --      5.3011                 1.7090                 0.9048

                      4                      5                      6
                      A                      A                      A
 Frequencies --     39.3050                44.1398                60.0705
 Red. masses --      3.6616                 6.0093                 4.4486
 Frc consts  --      0.0033                 0.0069                 0.0095
 IR Inten    --      0.7442                 0.7836                 0.7589

                      7                      8                      9
                      A                      A                      A
 Frequencies --     63.2307                72.5405                75.1026
 Red. masses --      5.1150                 4.8019                 3.5178
 Frc consts  --      0.0120                 0.0149                 0.0117
 IR Inten    --      5.4913                 0.8922                 0.1985

                     10                     11                     12
                      A                      A                      A
 Frequencies --     78.1294                98.6006               106.9017
 Red. masses --      8.3877                 6.4283                 6.5562
 Frc consts  --      0.0302                 0.0368                 0.0441
 IR Inten    --      1.3597                 2.4807                 1.0089

                     13                     14                     15
                      A                      A                      A
 Frequencies --    108.8140               117.7592               120.0991
 Red. masses --     10.0735                 4.6138                 5.0957
 Frc consts  --      0.0703                 0.0377                 0.0433
 IR Inten    --      0.7062                 6.0313                 8.9008

                     16                     17                     18
                      A                      A                      A
 Frequencies --    130.4541               151.7165               168.4696
 Red. masses --      6.8126                 4.3744                 2.6309
 Frc consts  --      0.0683                 0.0593                 0.0440
 IR Inten    --      4.7437                 1.9621                 3.6398

                     19                     20                     21
                      A                      A                      A
 Frequencies --    172.1568               191.7948               195.3846
 Red. masses --      3.6598                 5.1631                 1.0728
 Frc consts  --      0.0639                 0.1119                 0.0241
 IR Inten    --      1.4281                 9.0256                 0.8391

                     22                     23                     24
                      A                      A                      A
 Frequencies --    228.9929               244.0247               249.6024
 Red. masses --      2.8983                 1.4252                 2.6266
 Frc consts  --      0.0895                 0.0500                 0.0964
 IR Inten    --      3.0883                15.0025                 5.2245

                     25                     26                     27
                      A                      A                      A
 Frequencies --    257.4373               264.7398               300.5285
 Red. masses --      2.0159                 2.4682                 6.0963
 Frc consts  --      0.0787                 0.1019                 0.3244
 IR Inten    --      9.5858                 9.5663                 4.4525

                     28                     29                     30
                      A                      A                      A
 Frequencies --    306.9186               324.4908               328.9992
 Red. masses --      6.0428                 2.7372                12.8121
 Frc consts  --      0.3354                 0.1698                 0.8171
 IR Inten    --      0.9216                16.8472                36.0306

                     31                     32                     33
                      A                      A                      A
 Frequencies --    353.2925               357.7097               382.1817
 Red. masses --     23.1982                 4.5230                 6.3952
 Frc consts  --      1.7060                 0.3410                 0.5504
 IR Inten    --     64.2637                16.0104                17.7154

                     34                     35                     36
                      A                      A                      A
 Frequencies --    392.0410               415.5656               422.6077
 Red. masses --     24.9144                 2.9875                 3.9050
 Frc consts  --      2.2561                 0.3040                 0.4109
 IR Inten    --     81.6304                 0.5654                 1.2153

                     37                     38                     39
                      A                      A                      A
 Frequencies --    428.6585               477.0152               517.1020
 Red. masses --      3.4927                 3.0983                 2.5204
 Frc consts  --      0.3781                 0.4154                 0.3971
 IR Inten    --      8.1958                 5.1374                 4.0653

                     40                     41                     42
                      A                      A                      A
 Frequencies --    550.1164               563.3331               616.1026
 Red. masses --      3.6388                 2.4773                 4.9392
 Frc consts  --      0.6488                 0.4632                 1.1046
 IR Inten    --     17.3939                25.9346                93.2996

                     43                     44                     45
                      A                      A                      A
 Frequencies --    626.9038               652.5494               697.9369
 Red. masses --      6.2720                 3.0896                 4.6337
 Frc consts  --      1.4523                 0.7751                 1.3299
 IR Inten    --      0.5659                 0.6814               155.4723

                     46                     47                     48
                      A                      A                      A
 Frequencies --    705.5103               711.7480               749.7336
 Red. masses --      2.4243                 2.5445                 2.4211
 Frc consts  --      0.7110                 0.7595                 0.8018
 IR Inten    --     22.6301                40.7720                27.3323

                     49                     50                     51
                      A                      A                      A
 Frequencies --    760.9568               771.9774               806.5876
 Red. masses --      1.5635                 3.1104                 1.1733
 Frc consts  --      0.5334                 1.0922                 0.4497
 IR Inten    --     20.4187                 4.6003                 7.0422

                     52                     53                     54
                      A                      A                      A
 Frequencies --    810.5752               837.7200               843.9299
 Red. masses --      3.1682                 3.4833                 1.4014
 Frc consts  --      1.2264                 1.4403                 0.5881
 IR Inten    --     42.7528                15.6847                11.3678

                     55                     56                     57
                      A                      A                      A
 Frequencies --    851.1407               873.6075               903.8066
 Red. masses --      1.7514                 2.6219                 2.8986
 Frc consts  --      0.7476                 1.1790                 1.3951
 IR Inten    --     10.0789                 9.4747                10.7658

                     58                     59                     60
                      A                      A                      A
 Frequencies --    923.0643               938.4810               971.7244
 Red. masses --      1.9454                 1.7487                 2.6486
 Frc consts  --      0.9766                 0.9074                 1.4735
 IR Inten    --     17.1078                10.5272                81.3445

                     61                     62                     63
                      A                      A                      A
 Frequencies --    983.4316               999.7696              1001.9222
 Red. masses --      1.3579                 3.9859                 2.3238
 Frc consts  --      0.7738                 2.3473                 1.3744
 IR Inten    --      0.8695                 0.6723                 7.0294

                     64                     65                     66
                      A                      A                      A
 Frequencies --   1003.8369              1009.6600              1019.6173
 Red. masses --      1.6948                 1.3655                 2.9142
 Frc consts  --      1.0062                 0.8201                 1.7850
 IR Inten    --      2.9082                 3.4628                 1.4699

                     67                     68                     69
                      A                      A                      A
 Frequencies --   1032.0276              1043.3593              1053.9973
 Red. masses --      2.0662                 2.8989                 2.2852
 Frc consts  --      1.2966                 1.8593                 1.4957
 IR Inten    --      1.2607                38.0900                 4.1414

                     70                     71                     72
                      A                      A                      A
 Frequencies --   1074.7218              1104.6168              1111.4077
 Red. masses --      1.9503                 1.9548                 1.7793
 Frc consts  --      1.3272                 1.4053                 1.2949
 IR Inten    --      4.4242                20.5627                20.5682

                     73                     74                     75
                      A                      A                      A
 Frequencies --   1132.6218              1141.7916              1158.4531
 Red. masses --      2.1841                 3.5989                 2.4992
 Frc consts  --      1.6508                 2.7644                 1.9761
 IR Inten    --     16.4013               172.9253                24.6904

                     76                     77                     78
                      A                      A                      A
 Frequencies --   1168.9592              1175.0666              1182.7840
 Red. masses --      1.5491                 1.0853                 1.7890
 Frc consts  --      1.2472                 0.8829                 1.4746
 IR Inten    --      2.1222                 0.1204                74.1963

                     79                     80                     81
                      A                      A                      A
 Frequencies --   1198.8953              1209.7940              1225.9136
 Red. masses --      1.3054                 1.1423                 2.4990
 Frc consts  --      1.1055                 0.9850                 2.2128
 IR Inten    --      7.5895                 5.5897               243.4659

                     82                     83                     84
                      A                      A                      A
 Frequencies --   1249.9238              1260.5298              1281.4192
 Red. masses --      1.5121                 1.6889                 1.1057
 Frc consts  --      1.3919                 1.5811                 1.0697
 IR Inten    --     43.0781                49.1215                 2.2121

                     85                     86                     87
                      A                      A                      A
 Frequencies --   1291.7592              1308.7736              1318.6150
 Red. masses --      1.4884                 1.5341                 1.5143
 Frc consts  --      1.4633                 1.5483                 1.5513
 IR Inten    --     84.8660                87.5113                34.3343

                     88                     89                     90
                      A                      A                      A
 Frequencies --   1323.2373              1331.3164              1337.9747
 Red. masses --      1.3274                 1.3733                 1.2913
 Frc consts  --      1.3694                 1.4341                 1.3620
 IR Inten    --     34.0040                36.9957                 1.8433

                     91                     92                     93
                      A                      A                      A
 Frequencies --   1350.2541              1357.2349              1369.4559
 Red. masses --      1.5034                 2.3917                 1.3524
 Frc consts  --      1.6149                 2.5957                 1.4943
 IR Inten    --    131.3333                 0.2461                10.1166

                     94                     95                     96
                      A                      A                      A
 Frequencies --   1390.2375              1393.2636              1416.7379
 Red. masses --      1.2766                 1.3768                 1.4419
 Frc consts  --      1.4537                 1.5747                 1.7051
 IR Inten    --     10.3663                59.5939                14.5839

                     97                     98                     99
                      A                      A                      A
 Frequencies --   1422.1225              1436.9667              1466.6443
 Red. masses --      1.1828                 1.5083                 2.2731
 Frc consts  --      1.4094                 1.8349                 2.8808
 IR Inten    --      2.3634                73.4464                16.2289

                    100                    101                    102
                      A                      A                      A
 Frequencies --   1474.7477              1487.0728              1487.8440
 Red. masses --      1.0392                 1.1064                 1.0524
 Frc consts  --      1.3317                 1.4415                 1.3727
 IR Inten    --      4.4793                 2.1247                 1.5368

                    103                    104                    105
                      A                      A                      A
 Frequencies --   1493.7378              1503.3188              1505.5392
 Red. masses --      1.2617                 1.2634                 1.1486
 Frc consts  --      1.6586                 1.6823                 1.5340
 IR Inten    --     15.9225                19.6060                10.5461

                    106                    107                    108
                      A                      A                      A
 Frequencies --   1507.8936              1516.9198              1620.8884
 Red. masses --      1.0877                 2.0659                 5.5641
 Frc consts  --      1.4572                 2.8008                 8.6130
 IR Inten    --      6.0439                 5.8223                 0.5537

                    109                    110                    111
                      A                      A                      A
 Frequencies --   1640.2853              1766.9722              2732.1904
 Red. masses --      5.7998                11.7362                 1.0677
 Frc consts  --      9.1940                21.5892                 4.6960
 IR Inten    --      2.4751               221.4354               343.6729

                    112                    113                    114
                      A                      A                      A
 Frequencies --   2837.4410              3038.6830              3056.6278
 Red. masses --      1.0661                 1.0352                 1.0584
 Frc consts  --      5.0570                 5.6320                 5.8264
 IR Inten    --    222.7654                16.7384                18.0355

                    115                    116                    117
                      A                      A                      A
 Frequencies --   3061.0260              3067.9267              3074.9138
 Red. masses --      1.0606                 1.0836                 1.0636
 Frc consts  --      5.8553                 6.0093                 5.9253
 IR Inten    --     18.0721                 8.9773                23.5658

                    118                    119                    120
                      A                      A                      A
 Frequencies --   3075.9295              3088.0550              3099.0680
 Red. masses --      1.0645                 1.0636                 1.1041
 Frc consts  --      5.9342                 5.9758                 6.2476
 IR Inten    --      2.7604                 1.8098                 5.6287

                    121                    122                    123
                      A                      A                      A
 Frequencies --   3100.5237              3115.5575              3128.1479
 Red. masses --      1.1071                 1.1014                 1.1020
 Frc consts  --      6.2707                 6.2991                 6.3534
 IR Inten    --      5.2102                19.8464                 9.3205

                    124                    125                    126
                      A                      A                      A
 Frequencies --   3129.2042              3138.5178              3160.6946
 Red. masses --      1.1054                 1.0875                 1.1045
 Frc consts  --      6.3771                 6.3114                 6.5009
 IR Inten    --     27.6830                 7.6075                 8.6404

                    127                    128                    129
                      A                      A                      A
 Frequencies --   3168.4677              3178.0105              3179.0779
 Red. masses --      1.0847                 1.1037                 1.0890
 Frc consts  --      6.4161                 6.5678                 6.4847
 IR Inten    --      0.4983                 3.0618                 6.3871

                    130                    131                    132
                      A                      A                      A
 Frequencies --   3189.9752              3197.4762              3217.9440
 Red. masses --      1.0926                 1.0971                 1.0925
 Frc consts  --      6.5507                 6.6085                 6.6657
 IR Inten    --     20.0720                12.4012                 4.5061

 - Thermochemistry -
 -------------------
 Temperature   298.150 Kelvin.  Pressure   1.00000 Atm.
 Atom     1 has atomic number  6 and mass  12.00000

 Molecular mass:   434.99839 amu.
 Principal axes and moments of inertia in atomic units:
                           1         2         3
     Eigenvalues --  9180.64195********************
           X            0.99502   0.09813   0.01754
           Y           -0.09804   0.99517  -0.00582
           Z           -0.01802   0.00407   0.99983
 This molecule is an asymmetric top.
 Rotational symmetry number  1.
 Warning -- assumption of classical behavior for rotation
           may cause significant error
 Rotational temperatures (Kelvin)      0.00943     0.00754     0.00670
 Rotational constants (GHZ):           0.19658     0.15710     0.13958
    1 imaginary frequencies ignored.
 Zero-point vibrational energy     938125.4 (Joules/Mol)
                                  224.21736 (Kcal/Mol)
 Warning -- explicit consideration of  41 degrees of freedom as
           vibrations may cause significant error
 Vibrational temperatures:     33.19    36.52    56.55    63.51    86.43
          (Kelvin)             90.97   104.37   108.06   112.41   141.86
                              153.81   156.56   169.43   172.80   187.69
                              218.29   242.39   247.70   275.95   281.11
                              329.47   351.10   359.12   370.39   380.90
                              432.39   441.59   466.87   473.36   508.31
                              514.66   549.87   564.06   597.91   608.04
                              616.74   686.32   743.99   791.49   810.51
                              886.43   901.97   938.87  1004.18  1015.07
                             1024.05  1078.70  1094.85  1110.70  1160.50
                             1166.24  1205.29  1214.23  1224.60  1256.93
                             1300.38  1328.08  1350.26  1398.09  1414.94
                             1438.45  1441.54  1444.30  1452.68  1467.00
                             1484.86  1501.16  1516.47  1546.28  1589.30
                             1599.07  1629.59  1642.78  1666.76  1681.87
                             1690.66  1701.76  1724.94  1740.62  1763.82
                             1798.36  1813.62  1843.68  1858.55  1883.03
                             1897.19  1903.84  1915.47  1925.05  1942.71
                             1952.76  1970.34  2000.24  2004.60  2038.37
                             2046.12  2067.47  2110.17  2121.83  2139.57
                             2140.68  2149.16  2162.94  2166.14  2169.52
                             2182.51  2332.10  2360.00  2542.28  3931.01
                             4082.44  4371.99  4397.81  4404.13  4414.06
                             4424.12  4425.58  4443.02  4458.87  4460.96
                             4482.59  4500.71  4502.23  4515.63  4547.53
                             4558.72  4572.45  4573.98  4589.66  4600.46
                             4629.90

 Zero-point correction=                           0.357313 (Hartree/Particle)
 Thermal correction to Energy=                    0.384351
 Thermal correction to Enthalpy=                  0.385295
 Thermal correction to Gibbs Free Energy=         0.296055
 Sum of electronic and zero-point Energies=          -3531.045952
 Sum of electronic and thermal Energies=             -3531.018914
 Sum of electronic and thermal Enthalpies=           -3531.017970
 Sum of electronic and thermal Free Energies=        -3531.107211

                     E (Thermal)             CV                S
                      KCal/Mol        Cal/Mol-Kelvin    Cal/Mol-Kelvin
 Total                  241.184             97.255            187.822
 Electronic               0.000              0.000              3.561
 Translational            0.889              2.981             44.100
 Rotational               0.889              2.981             35.565
 Vibrational            239.406             91.294            104.596
 Vibration     1          0.593              1.985              6.351
 Vibration     2          0.593              1.985              6.161
 Vibration     3          0.594              1.981              5.294
 Vibration     4          0.595              1.980              5.064
 Vibration     5          0.597              1.973              4.455
 Vibration     6          0.597              1.972              4.354
 Vibration     7          0.599              1.967              4.083
 Vibration     8          0.599              1.966              4.015
 Vibration     9          0.599              1.964              3.937
 Vibration    10          0.604              1.950              3.482
 Vibration    11          0.606              1.944              3.324
 Vibration    12          0.606              1.942              3.290
 Vibration    13          0.608              1.935              3.137
 Vibration    14          0.609              1.933              3.099
 Vibration    15          0.612              1.923              2.939
 Vibration    16          0.619              1.901              2.651
 Vibration    17          0.625              1.881              2.452
 Vibration    18          0.626              1.877              2.412
 Vibration    19          0.634              1.851              2.210
 Vibration    20          0.636              1.846              2.176
 Vibration    21          0.652              1.797              1.887
 Vibration    22          0.659              1.773              1.773
 Vibration    23          0.662              1.763              1.733
 Vibration    24          0.667              1.750              1.679
 Vibration    25          0.671              1.738              1.630
 Vibration    26          0.693              1.673              1.414
 Vibration    27          0.697              1.661              1.379
 Vibration    28          0.709              1.626              1.287
 Vibration    29          0.712              1.618              1.265
 Vibration    30          0.729              1.569              1.151
 Vibration    31          0.733              1.559              1.132
 Vibration    32          0.752              1.508              1.031
 Vibration    33          0.759              1.487              0.992
 Vibration    34          0.779              1.436              0.907
 Vibration    35          0.785              1.421              0.883
 Vibration    36          0.790              1.408              0.863
 Vibration    37          0.834              1.301              0.718
 Vibration    38          0.872              1.212              0.617
 Vibration    39          0.905              1.139              0.544
 Vibration    40          0.919              1.111              0.517
 Vibration    41          0.976              0.998              0.423

                           ! Non-Optimized Parameters !
 Normal termination of Gaussian 16 at Sun Jun 20 05:52:49 2021.

 ----------------------------------------------------------------------
 #p ub3lyp jul-cc-pvdz pop=cm5 scrf=(pcm,solvent=dichloroethane) guess=
 read geom=allcheck
 ----------------------------------------------------------------------

 Structure from the checkpoint file:  "checkpoint.chk"
 -----
 title
 -----
 Charge =  0 Multiplicity = 6

 SCF Done:  E(UB3LYP) =  -3531.43187800     A.U. after   17 cycles
 Normal termination of Gaussian 16 at Sun Jun 20 06:12:16 2021.
 Gaussian 16:  ES64L-G16RevA.03 25-Dec-2016

 ----------------------------------------------------------------------
 #p ub3lyp jul-cc-pvdz pop=cm5 scrf=(pcm,solvent=water) guess=read geom
 =allcheck
 ----------------------------------------------------------------------

 Structure from the checkpoint file:  "checkpoint.chk"
 -----
 title
 -----
 Charge =  0 Multiplicity = 6

                         Standard orientation:
 ---------------------------------------------------------------------
 Center     Atomic      Atomic             Coordinates (Angstroms)
 Number     Number       Type             X           Y           Z
 ---------------------------------------------------------------------
      1          6           0        1.912687   -1.948453    1.560229
      2          6           0        1.256382   -0.828824    1.020441
      3          6           0        1.350999    0.387549    1.716650
      4          6           0        2.065724    0.478069    2.912888
      5          6           0        2.705982   -0.644400    3.441979
      6          6           0        2.627686   -1.859235    2.756966
      7          6           0        0.510120   -0.834359   -0.331044
      8          6           0        1.515043   -0.775943   -1.550659
      9          6           0        2.082509   -2.177321   -1.717505
     10          6           0        0.896906   -3.128683   -1.470721
     11          6           0       -0.133231   -2.395620   -0.527434
     12          6           0       -1.482468   -2.509990   -1.076024
     13          6           0       -1.837512   -1.929791   -2.366750
     14          8           0       -0.371493    0.199639   -0.425148
     15         26           0       -1.872071    0.996394    0.350141
     16         17           0       -3.473431    0.930047   -1.243651
     17          6           0       -2.550363   -3.068115   -0.237246
     18         17           0       -1.405629    3.059275    0.990853
     19         17           0       -2.532086   -0.328774    2.041345
     20          1           0        0.863841    1.275677    1.320754
     21          1           0        2.112950    1.435130    3.434149
     22          1           0        3.259065   -0.575309    4.379738
     23          1           0        3.122205   -2.746779    3.154376
     24          1           0        1.880747   -2.917443    1.064429
     25          1           0        0.898075   -0.484994   -2.411948
     26          6           0        2.591812    0.290010   -1.386767
     27          1           0        2.516662   -2.327764   -2.714264
     28          1           0        2.886648   -2.336399   -0.990636
     29          1           0        0.421788   -3.397388   -2.422561
     30          1           0        1.203584   -4.072851   -1.002588
     31          1           0       -0.131578   -2.836445    0.470932
     32          1           0       -2.205340   -3.923172    0.359673
     33          1           0       -2.766321   -2.264706    0.511135
     34          1           0       -3.471867   -3.295618   -0.782394
     35          1           0       -2.627153   -2.486037   -2.887424
     36          1           0       -2.311463   -0.948616   -2.079361
     37          1           0       -0.993442   -1.701366   -3.021845
     38          8           0        2.107123    1.513661   -1.646178
     39          8           0        3.742054    0.059978   -1.075062
     40          6           0        3.024103    2.628428   -1.463670
     41          6           0        2.249904    3.902277   -1.734895
     42          1           0        3.413645    2.586301   -0.437788
     43          1           0        3.869697    2.495105   -2.152677
     44          1           0        2.913525    4.767884   -1.595103
     45          1           0        1.869947    3.920721   -2.765772
     46          1           0        1.398930    3.998691   -1.047313
 ---------------------------------------------------------------------

 SCF Done:  E(UB3LYP) =  -3531.43745508     A.U. after   14 cycles

 The electronic state is 6-A.
 Alpha  occ. eigenvalues -- -256.19809-101.52005-101.51917-101.51821 -30.19217
 Alpha  occ. eigenvalues --  -26.04547 -26.04458 -26.04338 -19.20152 -19.15940
 Alpha  occ. eigenvalues --  -19.15097 -10.32729 -10.31669 -10.29802 -10.24743
 Alpha  occ. eigenvalues --  -10.23313 -10.22044 -10.22024 -10.21752 -10.21720
 Alpha  occ. eigenvalues --  -10.21348 -10.20391 -10.20149 -10.20080 -10.20004
 Alpha  occ. eigenvalues --  -10.19883 -10.19856 -10.18631  -9.43702  -9.43654
 Alpha  occ. eigenvalues --   -9.43530  -7.19567  -7.19509  -7.19392  -7.19259
 Alpha  occ. eigenvalues --   -7.19232  -7.19213  -7.19181  -7.19081  -7.19054
 Alpha  occ. eigenvalues --   -3.66936  -2.44487  -2.44302  -2.44073  -1.11977
 Alpha  occ. eigenvalues --   -1.03646  -1.03470  -0.89267  -0.87062  -0.84267
 Alpha  occ. eigenvalues --   -0.79878  -0.79229  -0.79109  -0.78805  -0.77205
 Alpha  occ. eigenvalues --   -0.75954  -0.75454  -0.74632  -0.71572  -0.66603
 Alpha  occ. eigenvalues --   -0.64033  -0.61978  -0.61158  -0.59441  -0.57073
 Alpha  occ. eigenvalues --   -0.56620  -0.54643  -0.53097  -0.51249  -0.50614
 Alpha  occ. eigenvalues --   -0.50103  -0.48899  -0.48624  -0.48080  -0.47782
 Alpha  occ. eigenvalues --   -0.47354  -0.47178  -0.47025  -0.46574  -0.46111
 Alpha  occ. eigenvalues --   -0.44888  -0.44304  -0.43770  -0.43172  -0.42815
 Alpha  occ. eigenvalues --   -0.42616  -0.42045  -0.41127  -0.40892  -0.40628
 Alpha  occ. eigenvalues --   -0.39924  -0.39066  -0.37775  -0.37627  -0.37168
 Alpha  occ. eigenvalues --   -0.37006  -0.36482  -0.36056  -0.35794  -0.35456
 Alpha  occ. eigenvalues --   -0.34829  -0.34115  -0.33799  -0.31726  -0.31599
 Alpha  occ. eigenvalues --   -0.30922  -0.30710  -0.30520  -0.30072  -0.29777
 Alpha  occ. eigenvalues --   -0.29430  -0.28746  -0.28019  -0.26653  -0.26185
 Alpha virt. eigenvalues --   -0.13969  -0.02997  -0.02740  -0.01551  -0.01212
 Alpha virt. eigenvalues --   -0.00220  -0.00079   0.00094   0.01422   0.01649
 Alpha virt. eigenvalues --    0.01746   0.01841   0.02444   0.03275   0.03778

  Beta  occ. eigenvalues -- -256.19623-101.51839-101.51755-101.51671 -30.10293
  Beta  occ. eigenvalues --  -25.97070 -25.97035 -25.96922 -19.20152 -19.15139
  Beta  occ. eigenvalues --  -19.15093 -10.32731 -10.31656 -10.29793 -10.24743
  Beta  occ. eigenvalues --  -10.23289 -10.22042 -10.22024 -10.21753 -10.21691
  Beta  occ. eigenvalues --  -10.21327 -10.20389 -10.20148 -10.20081 -10.20003
  Beta  occ. eigenvalues --  -10.19887 -10.19851 -10.18631  -9.43539  -9.43495
  Beta  occ. eigenvalues --   -9.43382  -7.19276  -7.19244  -7.19118  -7.19047
  Beta  occ. eigenvalues --   -7.19018  -7.18980  -7.18974  -7.18896  -7.18863
  Beta  occ. eigenvalues --   -3.46130  -2.22464  -2.22414  -2.22208  -1.11973
  Beta  occ. eigenvalues --   -1.03472  -1.02052  -0.89148  -0.87016  -0.84175
  Beta  occ. eigenvalues --   -0.78874  -0.78779  -0.78090  -0.78040  -0.77105
  Beta  occ. eigenvalues --   -0.75939  -0.75424  -0.74611  -0.71415  -0.66473
  Beta  occ. eigenvalues --   -0.63947  -0.61936  -0.61073  -0.59272  -0.57024
  Beta  occ. eigenvalues --   -0.56061  -0.54521  -0.51864  -0.51211  -0.50562
  Beta  occ. eigenvalues --   -0.49905  -0.48541  -0.48237  -0.47636  -0.47337
  Beta  occ. eigenvalues --   -0.46208  -0.44541  -0.43927  -0.43203  -0.42900
  Beta  occ. eigenvalues --   -0.42746  -0.42027  -0.41049  -0.40926  -0.40616
  Beta  occ. eigenvalues --   -0.39913  -0.38941  -0.37725  -0.37636  -0.37559
  Beta  occ. eigenvalues --   -0.37056  -0.36452  -0.36239  -0.35834  -0.35571
  Beta  occ. eigenvalues --   -0.35423  -0.35321  -0.34726  -0.32873  -0.32732
  Beta  occ. eigenvalues --   -0.32389  -0.31960  -0.31527  -0.31493  -0.29554
  Beta  occ. eigenvalues --   -0.29521  -0.28753  -0.28381  -0.26654  -0.26191
  Beta virt. eigenvalues --   -0.14369  -0.13659  -0.13450  -0.12573  -0.11841
  Beta virt. eigenvalues --   -0.11358  -0.02957  -0.02707  -0.01455  -0.01167
  Beta virt. eigenvalues --   -0.00177  -0.00044   0.00121   0.01447   0.01661

 Mulliken charges and spin densities:
               1          2
     1  C   -0.247620   0.001124
     2  C    2.611091   0.006471
     3  C   -0.579542  -0.003599
     4  C    0.064154   0.005369
     5  C    0.195307   0.000460
     6  C   -0.100704   0.001957
     7  C   -1.657576  -0.023711
     8  C    0.458538   0.014916
     9  C    0.583420   0.004209
    10  C    0.363225  -0.001655
    11  C    1.440771   0.016107
    12  C   -0.738190   0.016618
    13  C    0.082247  -0.004807
    14  O   -0.507260   0.277509
    15  Fe   0.635505   4.051965
    16  Cl  -0.565959   0.199875
    17  C    0.285812  -0.003772
    18  Cl  -0.505024   0.226283
    19  Cl  -0.554747   0.211289
    20  H   -0.259826  -0.000895
    21  H   -0.168550  -0.000042
    22  H   -0.162802   0.000006
    23  H   -0.159261   0.000171
    24  H   -0.252511  -0.000052
    25  H   -0.173394  -0.000318
    26  C    0.914042  -0.000094
    27  H   -0.149332   0.000713
    28  H   -0.050790   0.000057
    29  H   -0.095484   0.000120
    30  H   -0.084604   0.000155
    31  H   -0.231506  -0.000001
    32  H    0.044766   0.000534
    33  H    0.166899   0.001656
    34  H    0.007589  -0.000029
    35  H    0.013355   0.000203
    36  H    0.200399   0.001522
    37  H    0.069783   0.000230
    38  O   -0.694846  -0.001853
    39  O   -0.640079   0.001414
    40  C    0.438590  -0.000409
    41  C    0.058649   0.000433
    42  H   -0.039567   0.000023
    43  H   -0.051174   0.000018
    44  H   -0.005208   0.000008
    45  H    0.020302  -0.000010
    46  H    0.021117  -0.000167
 Sum of Mulliken charges =  -0.00000   5.00000

 Dipole moment (field-independent basis, Debye):
    X=              3.2000    Y=            -12.9673    Z=             -5.9861  Tot=             14.6364
 Quadrupole moment (field-independent basis, Debye-Ang):
   XX=           -199.1584   YY=           -149.0877   ZZ=           -168.3510
   XY=             26.4849   XZ=             11.7167   YZ=              7.3083

 Normal termination of Gaussian 16 at Sun Jun 20 06:28:24 2021.
