 Gaussian 16, Revision A.03,

 -----------------------------------------------------------
 #p opt=modredundant freq=noraman ub3lyp jul-cc-pvdz pop=cm5
 -----------------------------------------------------------

 -----
 title
 -----
 Symbolic Z-matrix:
 Charge =  0 Multiplicity = 6

 SCF Done:  E(UB3LYP) =  -3531.42770450     A.U. after   23 cycles
 SCF Done:  E(UB3LYP) =  -3531.42749944     A.U. after   15 cycles
 SCF Done:  E(UB3LYP) =  -3531.42207231     A.U. after   19 cycles
 SCF Done:  E(UB3LYP) =  -3531.42771803     A.U. after   15 cycles
 SCF Done:  E(UB3LYP) =  -3531.42806601     A.U. after   10 cycles
 SCF Done:  E(UB3LYP) =  -3531.42819135     A.U. after   15 cycles
 SCF Done:  E(UB3LYP) =  -3531.42815159     A.U. after   17 cycles
 SCF Done:  E(UB3LYP) =  -3531.42823429     A.U. after   15 cycles
 SCF Done:  E(UB3LYP) =  -3531.42825147     A.U. after   14 cycles
 SCF Done:  E(UB3LYP) =  -3531.42825364     A.U. after   13 cycles
 SCF Done:  E(UB3LYP) =  -3531.42825502     A.U. after   12 cycles
 SCF Done:  E(UB3LYP) =  -3531.42825557     A.U. after   10 cycles
 SCF Done:  E(UB3LYP) =  -3531.42825566     A.U. after   11 cycles
 SCF Done:  E(UB3LYP) =  -3531.42825579     A.U. after    9 cycles
 Optimization completed.
    -- Stationary point found.
 Normal termination of Gaussian 16 at Sun Jun 20 02:30:24 2021.

 ----------------------------------------------------------------------
 #P Geom=AllCheck Guess=TCheck SCRF=Check GenChk UB3LYP/Jul-CC-pVDZ Fre
 q
 ----------------------------------------------------------------------

 Structure from the checkpoint file:  "checkpoint.chk"
 -----
 title
 -----
 Charge =  0 Multiplicity = 6

 SCF Done:  E(UB3LYP) =  -3531.42825579     A.U. after    2 cycles

  Exact polarizability: 280.166   2.709 297.242  23.884   4.455 283.609
 Approx polarizability: 410.445   1.965 468.787  44.764   3.438 448.453

                      1                      2                      3
                      A                      A                      A
 Frequencies --     18.7494                26.2743                29.3703
 Red. masses --      8.5288                 4.6695                 5.8632
 Frc consts  --      0.0018                 0.0019                 0.0030
 IR Inten    --      1.7755                 0.3993                 0.3986

                      4                      5                      6
                      A                      A                      A
 Frequencies --     47.3040                50.6190                64.9613
 Red. masses --      5.4794                 4.5466                 2.4980
 Frc consts  --      0.0072                 0.0069                 0.0062
 IR Inten    --      2.5688                 1.9083                 0.5014

                      7                      8                      9
                      A                      A                      A
 Frequencies --     68.5278                78.7759                78.9740
 Red. masses --      5.4787                 8.7622                 7.7394
 Frc consts  --      0.0152                 0.0320                 0.0284
 IR Inten    --      2.3492                 1.1186                 4.9615

                     10                     11                     12
                      A                      A                      A
 Frequencies --     86.8708               101.0145               112.1695
 Red. masses --      8.3919                 5.3606                13.3768
 Frc consts  --      0.0373                 0.0322                 0.0992
 IR Inten    --      4.2297                 0.6616                 6.1272

                     13                     14                     15
                      A                      A                      A
 Frequencies --    114.6054               118.3371               123.8050
 Red. masses --     13.1220                 3.8869                 5.3808
 Frc consts  --      0.1015                 0.0321                 0.0486
 IR Inten    --      1.4187                 0.8290                15.3654

                     16                     17                     18
                      A                      A                      A
 Frequencies --    133.9264               165.5049               175.1434
 Red. masses --      4.3408                 2.7858                 3.5170
 Frc consts  --      0.0459                 0.0450                 0.0636
 IR Inten    --     12.8678                 2.1448                17.5957

                     19                     20                     21
                      A                      A                      A
 Frequencies --    193.8780               198.4666               218.5446
 Red. masses --      1.7407                 3.1507                 2.6961
 Frc consts  --      0.0386                 0.0731                 0.0759
 IR Inten    --      7.1868                18.3791                69.7701

                     22                     23                     24
                      A                      A                      A
 Frequencies --    227.3318               236.0023               252.3398
 Red. masses --      4.1678                 1.5658                 1.5552
 Frc consts  --      0.1269                 0.0514                 0.0583
 IR Inten    --     17.8876                 0.9598                 1.8110

                     25                     26                     27
                      A                      A                      A
 Frequencies --    262.0195               266.2897               296.5911
 Red. masses --      2.1578                 2.5123                 3.8081
 Frc consts  --      0.0873                 0.1050                 0.1974
 IR Inten    --      0.2235                34.6472                 2.4850

                     28                     29                     30
                      A                      A                      A
 Frequencies --    310.0975               341.0754               346.6922
 Red. masses --      2.9194                 4.2412                15.3830
 Frc consts  --      0.1654                 0.2907                 1.0894
 IR Inten    --      8.2606                 8.0354                22.8836

                     31                     32                     33
                      A                      A                      A
 Frequencies --    374.1026               385.4699               391.6442
 Red. masses --      3.3287                 3.1265                29.5792
 Frc consts  --      0.2745                 0.2737                 2.6731
 IR Inten    --      5.8027                 5.8798                92.3935

                     34                     35                     36
                      A                      A                      A
 Frequencies --    401.4951               404.8840               412.1056
 Red. masses --     32.0904                 3.4914                 2.9547
 Frc consts  --      3.0478                 0.3372                 0.2957
 IR Inten    --     87.0099                 7.9635                 2.4582

                     37                     38                     39
                      A                      A                      A
 Frequencies --    417.4528               467.8748               514.6716
 Red. masses --      5.4336                 3.7934                 3.0640
 Frc consts  --      0.5579                 0.4893                 0.4782
 IR Inten    --     26.6744                 2.2893                 8.6460

                     40                     41                     42
                      A                      A                      A
 Frequencies --    545.2741               570.0996               627.3170
 Red. masses --      3.5817                 2.4553                 6.0066
 Frc consts  --      0.6274                 0.4702                 1.3927
 IR Inten    --     17.8819                 0.6806                 1.0969

                     43                     44                     45
                      A                      A                      A
 Frequencies --    638.5821               672.0518               704.3597
 Red. masses --      4.6968                 4.6423                 3.0859
 Frc consts  --      1.1285                 1.2354                 0.9020
 IR Inten    --     17.6358                15.0523                19.2617

                     46                     47                     48
                      A                      A                      A
 Frequencies --    707.6018               755.9051               784.6761
 Red. masses --      1.8505                 2.8482                 2.8182
 Frc consts  --      0.5459                 0.9589                 1.0224
 IR Inten    --     35.4328                18.2296                15.0338

                     49                     50                     51
                      A                      A                      A
 Frequencies --    791.8219               803.8255               813.7190
 Red. masses --      4.1418                 1.4876                 2.6009
 Frc consts  --      1.5300                 0.5663                 1.0147
 IR Inten    --      6.3774                12.1819                24.1175

                     52                     53                     54
                      A                      A                      A
 Frequencies --    840.9328               845.2520               871.6759
 Red. masses --      1.9182                 1.2562                 2.6516
 Frc consts  --      0.7992                 0.5288                 1.1871
 IR Inten    --     23.5382                 0.0800                 8.2794

                     55                     56                     57
                      A                      A                      A
 Frequencies --    908.9127               918.3877               929.4905
 Red. masses --      1.8416                 1.6935                 1.6651
 Frc consts  --      0.8964                 0.8415                 0.8476
 IR Inten    --     57.7978                52.9575                15.6218

                     58                     59                     60
                      A                      A                      A
 Frequencies --    944.3030               954.4631               981.3496
 Red. masses --      2.5953                 2.4571                 1.4240
 Frc consts  --      1.3635                 1.3188                 0.8080
 IR Inten    --     32.5480                 8.8613                 0.5966

                     61                     62                     63
                      A                      A                      A
 Frequencies --    981.9897              1001.5621              1004.1270
 Red. masses --      2.0666                 1.5213                 2.2684
 Frc consts  --      1.1741                 0.8991                 1.3475
 IR Inten    --     15.7590                 3.4643                 2.1686

                     64                     65                     66
                      A                      A                      A
 Frequencies --   1005.4880              1008.5461              1028.4240
 Red. masses --      1.7760                 3.2827                 2.9154
 Frc consts  --      1.0579                 1.9673                 1.8168
 IR Inten    --      0.7195                 7.5181                 9.5571

                     67                     68                     69
                      A                      A                      A
 Frequencies --   1044.0184              1051.8427              1059.1852
 Red. masses --      2.4685                 2.1337                 1.9940
 Frc consts  --      1.5853                 1.3908                 1.3180
 IR Inten    --     41.0089                 8.2102                 2.1772

                     70                     71                     72
                      A                      A                      A
 Frequencies --   1094.6191              1102.1470              1105.6992
 Red. masses --      2.7752                 1.8524                 1.6378
 Frc consts  --      1.9592                 1.3257                 1.1798
 IR Inten    --     17.4501                32.8134                 5.0404

                     73                     74                     75
                      A                      A                      A
 Frequencies --   1132.6697              1149.0536              1168.9522
 Red. masses --      2.1572                 1.6442                 1.5743
 Frc consts  --      1.6306                 1.2791                 1.2675
 IR Inten    --      6.7682                19.5634                 8.5526

                     76                     77                     78
                      A                      A                      A
 Frequencies --   1175.4134              1188.7587              1201.4983
 Red. masses --      1.0882                 2.6148                 1.4699
 Frc consts  --      0.8858                 2.1771                 1.2502
 IR Inten    --      0.3297                51.4604                 8.5960

                     79                     80                     81
                      A                      A                      A
 Frequencies --   1206.8681              1213.7004              1224.0792
 Red. masses --      1.9631                 1.3283                 1.8834
 Frc consts  --      1.6846                 1.1529                 1.6627
 IR Inten    --    101.8732                 8.7685                91.8376

                     82                     83                     84
                      A                      A                      A
 Frequencies --   1257.6797              1282.4726              1286.7601
 Red. masses --      1.8070                 1.1671                 1.5902
 Frc consts  --      1.6840                 1.1310                 1.5513
 IR Inten    --     36.4878                 3.1810                12.0624

                     85                     86                     87
                      A                      A                      A
 Frequencies --   1290.8738              1306.8762              1320.5315
 Red. masses --      1.7213                 1.6562                 1.5485
 Frc consts  --      1.6900                 1.6667                 1.5909
 IR Inten    --     56.4903                11.0897                24.1221

                     88                     89                     90
                      A                      A                      A
 Frequencies --   1335.8603              1356.3150              1362.2048
 Red. masses --      1.8440                 2.5074                 1.7390
 Frc consts  --      1.9388                 2.7176                 1.9013
 IR Inten    --     14.8184                11.6232                 6.1654

                     91                     92                     93
                      A                      A                      A
 Frequencies --   1369.9103              1373.9622              1398.1805
 Red. masses --      1.3600                 1.5250                 1.6530
 Frc consts  --      1.5038                 1.6962                 1.9039
 IR Inten    --      7.4408                 6.0340                77.2276

                     94                     95                     96
                      A                      A                      A
 Frequencies --   1404.1425              1409.8999              1418.3442
 Red. masses --      1.2900                 1.4361                 1.5990
 Frc consts  --      1.4985                 1.6820                 1.8952
 IR Inten    --     21.7028                25.2613                 9.0003

                     97                     98                     99
                      A                      A                      A
 Frequencies --   1454.2047              1471.2849              1473.8639
 Red. masses --      1.0771                 2.1805                 1.0393
 Frc consts  --      1.3420                 2.7810                 1.3301
 IR Inten    --      0.4572                 9.5895                 3.7060

                    100                    101                    102
                      A                      A                      A
 Frequencies --   1475.7985              1479.2685              1488.0502
 Red. masses --      1.0876                 1.1136                 1.0525
 Frc consts  --      1.3956                 1.4358                 1.3731
 IR Inten    --      1.2043                 0.8005                 1.2098

                    103                    104                    105
                      A                      A                      A
 Frequencies --   1489.4040              1500.8256              1507.4027
 Red. masses --      1.0793                 1.0872                 1.0844
 Frc consts  --      1.4106                 1.4429                 1.4517
 IR Inten    --      5.5127                14.3594                 6.0087

                    106                    107                    108
                      A                      A                      A
 Frequencies --   1511.7625              1525.4517              1627.1363
 Red. masses --      1.0800                 2.2413                 5.6995
 Frc consts  --      1.4543                 3.0729                 8.8906
 IR Inten    --      2.3044                 3.3641                 0.6031

                    109                    110                    111
                      A                      A                      A
 Frequencies --   1648.5850              1773.5612              3018.2880
 Red. masses --      5.7423                11.6075                 1.0468
 Frc consts  --      9.1951                21.5119                 5.6188
 IR Inten    --      0.0910               203.2855                 2.2930

                    112                    113                    114
                      A                      A                      A
 Frequencies --   3030.6885              3039.7726              3058.4037
 Red. masses --      1.0461                 1.0355                 1.0585
 Frc consts  --      5.6614                 5.6377                 5.8337
 IR Inten    --     10.1537                20.4808                13.3432

                    115                    116                    117
                      A                      A                      A
 Frequencies --   3063.4365              3069.3749              3083.3587
 Red. masses --      1.0601                 1.0621                 1.0855
 Frc consts  --      5.8617                 5.8955                 6.0801
 IR Inten    --     12.6959                34.4060                 8.4415

                    118                    119                    120
                      A                      A                      A
 Frequencies --   3094.1519              3102.6535              3106.6212
 Red. masses --      1.0936                 1.1064                 1.0976
 Frc consts  --      6.1686                 6.2752                 6.2413
 IR Inten    --      5.0700                 7.4061                 7.6905

                    121                    122                    123
                      A                      A                      A
 Frequencies --   3110.6443              3115.3716              3117.0493
 Red. masses --      1.0862                 1.1024                 1.0884
 Frc consts  --      6.1924                 6.3037                 6.2304
 IR Inten    --      2.1238                20.0925                 1.3106

                    124                    125                    126
                      A                      A                      A
 Frequencies --   3120.6437              3133.7065              3157.9750
 Red. masses --      1.1038                 1.1044                 1.1053
 Frc consts  --      6.3330                 6.3896                 6.4945
 IR Inten    --     26.1763                21.7777                 2.4315

                    127                    128                    129
                      A                      A                      A
 Frequencies --   3160.7544              3168.1462              3177.6100
 Red. masses --      1.1041                 1.0847                 1.0878
 Frc consts  --      6.4991                 6.4143                 6.4714
 IR Inten    --      5.3945                 1.2696                 5.1552

                    130                    131                    132
                      A                      A                      A
 Frequencies --   3185.7853              3193.5697              3199.8065
 Red. masses --      1.0920                 1.0945                 1.0983
 Frc consts  --      6.5299                 6.5770                 6.6253
 IR Inten    --     18.0745                 5.2337                 9.9875

 - Thermochemistry -
 -------------------
 Temperature   298.150 Kelvin.  Pressure   1.00000 Atm.
 Atom     1 has atomic number  6 and mass  12.00000

 Molecular mass:   434.99839 amu.
 Principal axes and moments of inertia in atomic units:
                           1         2         3
     Eigenvalues --  8982.52557********************
           X            0.99672   0.07903   0.01736
           Y           -0.07937   0.99665   0.01953
           Z           -0.01576  -0.02085   0.99966
 This molecule is an asymmetric top.
 Rotational symmetry number  1.
 Warning -- assumption of classical behavior for rotation
           may cause significant error
 Rotational temperatures (Kelvin)      0.00964     0.00753     0.00691
 Rotational constants (GHZ):           0.20092     0.15688     0.14406
 Zero-point vibrational energy     947328.9 (Joules/Mol)
                                  226.41705 (Kcal/Mol)
 Warning -- explicit consideration of  41 degrees of freedom as
           vibrations may cause significant error
 Vibrational temperatures:     26.98    37.80    42.26    68.06    72.83
          (Kelvin)             93.46    98.60   113.34   113.63   124.99
                              145.34   161.39   164.89   170.26   178.13
                              192.69   238.12   251.99   278.95   285.55
                              314.44   327.08   339.55   363.06   376.99
                              383.13   426.73   446.16   490.73   498.81
                              538.25   554.61   563.49   577.66   582.54
                              592.93   600.62   673.17   740.50   784.53
                              820.25   902.57   918.78   966.93  1013.42
                             1018.08  1087.58  1128.97  1139.26  1156.53
                             1170.76  1209.91  1216.13  1254.15  1307.72
                             1321.36  1337.33  1358.64  1373.26  1411.94
                             1412.86  1441.02  1444.71  1446.67  1451.07
                             1479.67  1502.11  1513.37  1523.93  1574.91
                             1585.74  1590.85  1629.66  1653.23  1681.86
                             1691.16  1710.36  1728.69  1736.41  1746.24
                             1761.18  1809.52  1845.19  1851.36  1857.28
                             1880.30  1899.95  1922.01  1951.43  1959.91
                             1971.00  1976.83  2011.67  2020.25  2028.53
                             2040.68  2092.28  2116.85  2120.56  2123.34
                             2128.34  2140.97  2142.92  2159.35  2168.82
                             2175.09  2194.78  2341.09  2371.95  2551.76
                             4342.64  4360.48  4373.55  4400.36  4407.60
                             4416.15  4436.27  4451.79  4464.03  4469.73
                             4475.52  4482.32  4484.74  4489.91  4508.70
                             4543.62  4547.62  4558.26  4571.87  4583.63
                             4594.83  4603.81

 Zero-point correction=                           0.360819 (Hartree/Particle)
 Thermal correction to Energy=                    0.388286
 Thermal correction to Enthalpy=                  0.389230
 Thermal correction to Gibbs Free Energy=         0.298578
 Sum of electronic and zero-point Energies=          -3531.067437
 Sum of electronic and thermal Energies=             -3531.039970
 Sum of electronic and thermal Enthalpies=           -3531.039026
 Sum of electronic and thermal Free Energies=        -3531.129678

                     E (Thermal)             CV                S
                      KCal/Mol        Cal/Mol-Kelvin    Cal/Mol-Kelvin
 Total                  243.653             98.086            190.794
 Electronic               0.000              0.000              3.561
 Translational            0.889              2.981             44.100
 Rotational               0.889              2.981             35.514
 Vibrational            241.876             92.125            107.619
 Vibration     1          0.593              1.986              6.762
 Vibration     2          0.593              1.985              6.093
 Vibration     3          0.593              1.984              5.872
 Vibration     4          0.595              1.979              4.927
 Vibration     5          0.595              1.977              4.793
 Vibration     6          0.597              1.971              4.301
 Vibration     7          0.598              1.969              4.195
 Vibration     8          0.600              1.963              3.921
 Vibration     9          0.600              1.963              3.916
 Vibration    10          0.601              1.958              3.729
 Vibration    11          0.604              1.948              3.435
 Vibration    12          0.607              1.939              3.231
 Vibration    13          0.608              1.937              3.189
 Vibration    14          0.608              1.934              3.127
 Vibration    15          0.610              1.929              3.040
 Vibration    16          0.613              1.919              2.889
 Vibration    17          0.624              1.885              2.486
 Vibration    18          0.627              1.873              2.380
 Vibration    19          0.635              1.848              2.190
 Vibration    20          0.637              1.842              2.147
 Vibration    21          0.646              1.813              1.971
 Vibration    22          0.651              1.799              1.900
 Vibration    23          0.655              1.786              1.833
 Vibration    24          0.664              1.759              1.714
 Vibration    25          0.669              1.742              1.648
 Vibration    26          0.672              1.735              1.620
 Vibration    27          0.690              1.680              1.436
 Vibration    28          0.699              1.654              1.362
 Vibration    29          0.721              1.593              1.207
 Vibration    30          0.725              1.582              1.181
 Vibration    31          0.745              1.525              1.063
 Vibration    32          0.754              1.501              1.018
 Vibration    33          0.759              1.488              0.994
 Vibration    34          0.767              1.467              0.957
 Vibration    35          0.770              1.460              0.945
 Vibration    36          0.776              1.444              0.919
 Vibration    37          0.780              1.432              0.901
 Vibration    38          0.825              1.321              0.744
 Vibration    39          0.870              1.217              0.622
 Vibration    40          0.900              1.150              0.554
 Vibration    41          0.926              1.096              0.504

                           ! Non-Optimized Parameters !
 Normal termination of Gaussian 16 at Sun Jun 20 06:15:40 2021.

 ----------------------------------------------------------------------
 #p ub3lyp jul-cc-pvdz pop=cm5 scrf=(pcm,solvent=dichloroethane) guess=
 read geom=allcheck
 ----------------------------------------------------------------------

 Structure from the checkpoint file:  "checkpoint.chk"
 -----
 title
 -----
 Charge =  0 Multiplicity = 6

 SCF Done:  E(UB3LYP) =  -3531.44825613     A.U. after   17 cycles
 Normal termination of Gaussian 16 at Sun Jun 20 06:37:23 2021.
 Gaussian 16:  ES64L-G16RevA.03 25-Dec-2016

 ----------------------------------------------------------------------
 #p ub3lyp jul-cc-pvdz pop=cm5 scrf=(pcm,solvent=water) guess=read geom
 =allcheck
 ----------------------------------------------------------------------

 Structure from the checkpoint file:  "checkpoint.chk"
 -----
 title
 -----
 Charge =  0 Multiplicity = 6

                         Standard orientation:
 ---------------------------------------------------------------------
 Center     Atomic      Atomic             Coordinates (Angstroms)
 Number     Number       Type             X           Y           Z
 ---------------------------------------------------------------------
      1          6           0        1.857402   -2.085067    1.650390
      2          6           0        1.230960   -0.998537    1.023971
      3          6           0        1.223501    0.240110    1.682729
      4          6           0        1.797791    0.379227    2.946502
      5          6           0        2.412644   -0.712357    3.566768
      6          6           0        2.447640   -1.943640    2.910261
      7          6           0        0.632631   -1.135238   -0.365094
      8          6           0        1.573284   -0.611209   -1.518313
      9          6           0        2.258478   -1.895002   -2.013777
     10          6           0        1.152506   -2.969209   -1.960538
     11          6           0        0.222067   -2.506253   -0.814274
     12          6           0       -1.237517   -2.116509   -1.128425
     13          6           0       -1.682410   -1.873999   -2.537380
     14          8           0       -0.721658   -0.521108   -0.473767
     15         26           0       -1.973693    0.813031    0.325320
     16         17           0       -3.733011    0.709132   -1.018429
     17          6           0       -2.279036   -2.675402   -0.207891
     18         17           0       -1.102718    2.835150    0.315935
     19         17           0       -2.498483    0.112342    2.346492
     20          1           0        0.766526    1.111177    1.215351
     21          1           0        1.761802    1.347259    3.447643
     22          1           0        2.863192   -0.602419    4.554157
     23          1           0        2.931933   -2.802252    3.377439
     24          1           0        1.907485   -3.057761    1.160920
     25          1           0        0.910244   -0.201370   -2.290171
     26          6           0        2.572932    0.472662   -1.145448
     27          1           0        2.689426   -1.769279   -3.015227
     28          1           0        3.084749   -2.140734   -1.333939
     29          1           0        0.615995   -3.025325   -2.916087
     30          1           0        1.558695   -3.970436   -1.769655
     31          1           0        0.212452   -3.232391    0.004506
     32          1           0       -2.413750   -3.734196   -0.489048
     33          1           0       -1.962085   -2.638691    0.839666
     34          1           0       -3.242500   -2.165643   -0.320833
     35          1           0       -1.918801   -2.851699   -2.989002
     36          1           0       -2.595021   -1.267435   -2.545880
     37          1           0       -0.918503   -1.388093   -3.151789
     38          8           0        2.069862    1.697691   -1.378130
     39          8           0        3.689803    0.261536   -0.722425
     40          6           0        2.932966    2.824680   -1.055131
     41          6           0        2.249767    4.084072   -1.547427
     42          1           0        3.086832    2.832511    0.032692
     43          1           0        3.907328    2.659572   -1.533648
     44          1           0        2.873465    4.955040   -1.299174
     45          1           0        2.112921    4.056734   -2.637546
     46          1           0        1.267547    4.209089   -1.073625
 ---------------------------------------------------------------------

 SCF Done:  E(UB3LYP) =  -3531.45216024     A.U. after   14 cycles

 The electronic state is 6-A.
 Alpha  occ. eigenvalues -- -256.21549-101.52973-101.52861-101.52763 -30.20921
 Alpha  occ. eigenvalues --  -26.06308 -26.06133 -26.06028 -19.20297 -19.20138
 Alpha  occ. eigenvalues --  -19.15179 -10.32786 -10.30286 -10.28436 -10.24734
 Alpha  occ. eigenvalues --  -10.21829 -10.21547 -10.21499 -10.20527 -10.20348
 Alpha  occ. eigenvalues --  -10.20344 -10.20289 -10.20262 -10.20215 -10.20186
 Alpha  occ. eigenvalues --  -10.19858 -10.19753 -10.18571  -9.44693  -9.44585
 Alpha  occ. eigenvalues --   -9.44490  -7.20560  -7.20457  -7.20363  -7.20252
 Alpha  occ. eigenvalues --   -7.20229  -7.20146  -7.20115  -7.20038  -7.20033
 Alpha  occ. eigenvalues --   -3.68553  -2.46150  -2.45888  -2.45645  -1.12007
 Alpha  occ. eigenvalues --   -1.04775  -1.03564  -0.87973  -0.86348  -0.83487
 Alpha  occ. eigenvalues --   -0.80965  -0.80218  -0.80097  -0.78764  -0.77742
 Alpha  occ. eigenvalues --   -0.76180  -0.74909  -0.72674  -0.71971  -0.66314
 Alpha  occ. eigenvalues --   -0.63913  -0.62208  -0.60898  -0.59556  -0.57055
 Alpha  occ. eigenvalues --   -0.56173  -0.54285  -0.53041  -0.51353  -0.50421
 Alpha  occ. eigenvalues --   -0.50030  -0.49298  -0.48932  -0.48780  -0.48569
 Alpha  occ. eigenvalues --   -0.48154  -0.47642  -0.47151  -0.46293  -0.46102
 Alpha  occ. eigenvalues --   -0.45475  -0.44695  -0.43967  -0.43221  -0.42918
 Alpha  occ. eigenvalues --   -0.42071  -0.41133  -0.40516  -0.40297  -0.39911
 Alpha  occ. eigenvalues --   -0.39296  -0.38976  -0.37871  -0.37502  -0.37224
 Alpha  occ. eigenvalues --   -0.36869  -0.36445  -0.36058  -0.35626  -0.35146
 Alpha  occ. eigenvalues --   -0.34894  -0.34456  -0.34103  -0.33776  -0.32039
 Alpha  occ. eigenvalues --   -0.31622  -0.31463  -0.31381  -0.31238  -0.30985
 Alpha  occ. eigenvalues --   -0.30255  -0.30144  -0.29251  -0.26869  -0.26547
 Alpha virt. eigenvalues --   -0.05137  -0.03670  -0.02944  -0.01478  -0.01374
 Alpha virt. eigenvalues --   -0.00181  -0.00046   0.00106   0.01482   0.01684
 Alpha virt. eigenvalues --    0.01757   0.01831   0.02395   0.03206   0.03765

  Beta  occ. eigenvalues -- -256.21364-101.52779-101.52666-101.52567 -30.12001
  Beta  occ. eigenvalues --  -25.98769 -25.98733 -25.98663 -19.20297 -19.19735
  Beta  occ. eigenvalues --  -19.15177 -10.32786 -10.30273 -10.28408 -10.24734
  Beta  occ. eigenvalues --  -10.21821 -10.21538 -10.21496 -10.20525 -10.20348
  Beta  occ. eigenvalues --  -10.20341 -10.20289 -10.20261 -10.20214 -10.20185
  Beta  occ. eigenvalues --  -10.19855 -10.19752 -10.18570  -9.44502  -9.44394
  Beta  occ. eigenvalues --   -9.44298  -7.20250  -7.20136  -7.20043  -7.19980
  Beta  occ. eigenvalues --   -7.19968  -7.19875  -7.19861  -7.19771  -7.19768
  Beta  occ. eigenvalues --   -3.47745  -2.24042  -2.23948  -2.23901  -1.12006
  Beta  occ. eigenvalues --   -1.04053  -1.03559  -0.87871  -0.86239  -0.83441
  Beta  occ. eigenvalues --   -0.79712  -0.78919  -0.78749  -0.78695  -0.77696
  Beta  occ. eigenvalues --   -0.76171  -0.74880  -0.72643  -0.71848  -0.66282
  Beta  occ. eigenvalues --   -0.63872  -0.62185  -0.60848  -0.59453  -0.57025
  Beta  occ. eigenvalues --   -0.55598  -0.54200  -0.52373  -0.51257  -0.50060
  Beta  occ. eigenvalues --   -0.49580  -0.49019  -0.47497  -0.47043  -0.46378
  Beta  occ. eigenvalues --   -0.45465  -0.44715  -0.43967  -0.43263  -0.42933
  Beta  occ. eigenvalues --   -0.42073  -0.41141  -0.40419  -0.40263  -0.39889
  Beta  occ. eigenvalues --   -0.38968  -0.38798  -0.38048  -0.37501  -0.37250
  Beta  occ. eigenvalues --   -0.36966  -0.36653  -0.36463  -0.36398  -0.35985
  Beta  occ. eigenvalues --   -0.35646  -0.35118  -0.34157  -0.34001  -0.33682
  Beta  occ. eigenvalues --   -0.33540  -0.32956  -0.32549  -0.31794  -0.31236
  Beta  occ. eigenvalues --   -0.30297  -0.30092  -0.29215  -0.26859  -0.26524
  Beta virt. eigenvalues --   -0.15525  -0.15081  -0.14116  -0.13932  -0.13578
  Beta virt. eigenvalues --   -0.04651  -0.03560  -0.02917  -0.01367  -0.01336
  Beta virt. eigenvalues --   -0.00113  -0.00022   0.00131   0.01510   0.01709

 Mulliken charges and spin densities:
               1          2
     1  C   -0.343914   0.004418
     2  C    3.578897  -0.004398
     3  C   -0.421628  -0.013267
     4  C   -0.005332   0.000493
     5  C    0.247447  -0.000496
     6  C   -0.170837   0.001324
     7  C   -2.828388   0.025574
     8  C    0.300394   0.000428
     9  C    0.561516   0.001015
    10  C    0.652066   0.002069
    11  C    0.990445   0.000180
    12  C   -0.956233   0.013075
    13  C    0.423594  -0.004313
    14  O   -0.231686   0.109041
    15  Fe   0.580478   4.060193
    16  Cl  -0.480647   0.266619
    17  C    0.524013   0.002013
    18  Cl  -0.447146   0.268321
    19  Cl  -0.449533   0.262336
    20  H   -0.314866   0.000739
    21  H   -0.165697  -0.000014
    22  H   -0.162327   0.000024
    23  H   -0.157450   0.000033
    24  H   -0.190468  -0.000012
    25  H   -0.215790   0.000085
    26  C    1.006655   0.002506
    27  H   -0.142526   0.000360
    28  H   -0.060480   0.000012
    29  H   -0.091352  -0.000048
    30  H   -0.118106   0.000336
    31  H   -0.210658   0.000995
    32  H    0.023162   0.000133
    33  H    0.053842  -0.000653
    34  H    0.033276   0.000021
    35  H    0.047234   0.002174
    36  H    0.031284  -0.000278
    37  H    0.041859  -0.000222
    38  O   -0.700561  -0.000813
    39  O   -0.664883   0.000592
    40  C    0.418690  -0.001107
    41  C    0.059323   0.001112
    42  H   -0.040349   0.000018
    43  H   -0.048951  -0.000003
    44  H   -0.004195   0.000063
    45  H    0.021977  -0.000008
    46  H    0.027850  -0.000671
 Sum of Mulliken charges =  -0.00000   5.00000

 Dipole moment (field-independent basis, Debye):
    X=              4.1325    Y=             -8.6612    Z=             -5.0071  Tot=             10.8242
 Quadrupole moment (field-independent basis, Debye-Ang):
   XX=           -201.3858   YY=           -152.5015   ZZ=           -167.0124
   XY=             16.3975   XZ=              8.3634   YZ=              6.7967

 Normal termination of Gaussian 16 at Sun Jun 20 06:55:16 2021.
