 Gaussian 16, Revision A.03,

 -----------------------------------------------------------
 #p opt=modredundant freq=noraman ub3lyp jul-cc-pvdz pop=cm5
 -----------------------------------------------------------

 -----
 title
 -----
 Symbolic Z-matrix:
 Charge =  0 Multiplicity = 6

 SCF Done:  E(UB3LYP) =  -3531.42814417     A.U. after   27 cycles
 SCF Done:  E(UB3LYP) =  -3531.42856431     A.U. after   17 cycles
 SCF Done:  E(UB3LYP) =  -3531.42085503     A.U. after   24 cycles
 SCF Done:  E(UB3LYP) =  -3531.42456722     A.U. after   19 cycles
 SCF Done:  E(UB3LYP) =  -3531.42865295     A.U. after   14 cycles
 SCF Done:  E(UB3LYP) =  -3531.42875764     A.U. after   16 cycles
 SCF Done:  E(UB3LYP) =  -3531.42874226     A.U. after   16 cycles
 SCF Done:  E(UB3LYP) =  -3531.42876615     A.U. after   14 cycles
 SCF Done:  E(UB3LYP) =  -3531.42881587     A.U. after   14 cycles
 SCF Done:  E(UB3LYP) =  -3531.42882047     A.U. after   12 cycles
 SCF Done:  E(UB3LYP) =  -3531.42882589     A.U. after   11 cycles
 SCF Done:  E(UB3LYP) =  -3531.42882663     A.U. after   11 cycles
 SCF Done:  E(UB3LYP) =  -3531.42882686     A.U. after   12 cycles
 SCF Done:  E(UB3LYP) =  -3531.42882692     A.U. after   11 cycles
 SCF Done:  E(UB3LYP) =  -3531.42882691     A.U. after   10 cycles
 SCF Done:  E(UB3LYP) =  -3531.42882689     A.U. after    9 cycles
 SCF Done:  E(UB3LYP) =  -3531.42882689     A.U. after    8 cycles
 Optimization completed.
    -- Stationary point found.
 Normal termination of Gaussian 16 at Sun Jun 20 03:55:00 2021.

 ----------------------------------------------------------------------
 #P Geom=AllCheck Guess=TCheck SCRF=Check GenChk UB3LYP/Jul-CC-pVDZ Fre
 q
 ----------------------------------------------------------------------

 Structure from the checkpoint file:  "checkpoint.chk"
 -----
 title
 -----
 Charge =  0 Multiplicity = 6

 SCF Done:  E(UB3LYP) =  -3531.42882689     A.U. after    2 cycles

  Exact polarizability: 323.311 -12.976 308.728   9.457  -2.954 289.698
 Approx polarizability: 488.294 -29.349 474.549  -3.993  -5.987 489.669

 ******    1 imaginary frequencies (negative Signs) ******

                      1                      2                      3
                      A                      A                      A
 Frequencies --   -109.2161                13.6261                20.5463
 Red. masses --      4.6566                10.9601                 3.7535
 Frc consts  --      0.0327                 0.0012                 0.0009
 IR Inten    --    182.0848                 0.2219                 1.3351

                      4                      5                      6
                      A                      A                      A
 Frequencies --     31.3769                37.8256                43.0171
 Red. masses --      4.4260                 6.6133                 7.4751
 Frc consts  --      0.0026                 0.0056                 0.0081
 IR Inten    --      5.9626                 0.3249                 0.4589

                      7                      8                      9
                      A                      A                      A
 Frequencies --     57.5475                68.7888                70.0517
 Red. masses --      4.4089                 4.6136                 3.5031
 Frc consts  --      0.0086                 0.0129                 0.0101
 IR Inten    --      5.8273                 2.5810                 2.1141

                     10                     11                     12
                      A                      A                      A
 Frequencies --     80.7872                88.8719                91.0287
 Red. masses --      4.6393                 7.8919                 5.7355
 Frc consts  --      0.0178                 0.0367                 0.0280
 IR Inten    --      0.2719                 0.8468                 0.2660

                     13                     14                     15
                      A                      A                      A
 Frequencies --     97.7058               101.6500               108.8153
 Red. masses --      3.8988                 2.9844                 4.7153
 Frc consts  --      0.0219                 0.0182                 0.0329
 IR Inten    --      2.5964                 9.4198                 0.9292

                     16                     17                     18
                      A                      A                      A
 Frequencies --    119.0665               122.5563               130.5033
 Red. masses --      5.5725                 2.7840                 4.6164
 Frc consts  --      0.0465                 0.0246                 0.0463
 IR Inten    --      2.8955                 4.4459                 2.4129

                     19                     20                     21
                      A                      A                      A
 Frequencies --    146.8558               153.8952               173.6434
 Red. masses --      4.1580                 1.2914                 2.1470
 Frc consts  --      0.0528                 0.0180                 0.0381
 IR Inten    --      8.7070                20.9131                37.9234

                     22                     23                     24
                      A                      A                      A
 Frequencies --    190.4866               205.0935               219.3654
 Red. masses --      2.8953                 3.8782                 3.6069
 Frc consts  --      0.0619                 0.0961                 0.1023
 IR Inten    --      5.7250                10.8391                10.6438

                     25                     26                     27
                      A                      A                      A
 Frequencies --    244.2263               253.6455               266.2918
 Red. masses --      3.6205                 1.6882                 5.0574
 Frc consts  --      0.1272                 0.0640                 0.2113
 IR Inten    --      5.8294                 3.2313                 6.6847

                     28                     29                     30
                      A                      A                      A
 Frequencies --    287.3320               305.0390               341.0248
 Red. masses --      2.9042                 3.5778                24.9962
 Frc consts  --      0.1413                 0.1961                 1.7128
 IR Inten    --      2.4463                10.6527                48.2053

                     31                     32                     33
                      A                      A                      A
 Frequencies --    353.4532               386.3289               388.4616
 Red. masses --      4.0360                 3.5784                38.4345
 Frc consts  --      0.2971                 0.3147                 3.4172
 IR Inten    --      1.3064                 7.8785                80.1206

                     34                     35                     36
                      A                      A                      A
 Frequencies --    401.8994               403.3431               416.8340
 Red. masses --     26.0704                 4.1874                 3.1400
 Frc consts  --      2.4810                 0.4014                 0.3214
 IR Inten    --     91.0388                 9.6941                 1.3071

                     37                     38                     39
                      A                      A                      A
 Frequencies --    429.3404               454.6423               488.0549
 Red. masses --      4.0233                 3.9444                 2.2486
 Frc consts  --      0.4369                 0.4804                 0.3156
 IR Inten    --     30.4632                 8.7911                 4.0872

                     40                     41                     42
                      A                      A                      A
 Frequencies --    506.5460               524.6258               538.4049
 Red. masses --      2.9863                 3.4702                 3.3979
 Frc consts  --      0.4515                 0.5627                 0.5803
 IR Inten    --      3.8201                20.3031                13.6966

                     43                     44                     45
                      A                      A                      A
 Frequencies --    591.1230               626.0708               640.5189
 Red. masses --      5.3969                 6.3228                 3.9606
 Frc consts  --      1.1111                 1.4602                 0.9574
 IR Inten    --     50.6214                 2.6148               127.9569

                     46                     47                     48
                      A                      A                      A
 Frequencies --    697.3261               705.5796               753.4664
 Red. masses --      6.0796                 1.6510                 3.7628
 Frc consts  --      1.7418                 0.4843                 1.2586
 IR Inten    --     24.2279                57.6630                 6.9972

                     49                     50                     51
                      A                      A                      A
 Frequencies --    771.3672               803.4099               810.8280
 Red. masses --      2.2564                 1.4328                 2.6243
 Frc consts  --      0.7910                 0.5449                 1.0165
 IR Inten    --      5.9509                 7.7444                20.3361

                     52                     53                     54
                      A                      A                      A
 Frequencies --    833.0491               853.3123               868.2082
 Red. masses --      2.9109                 1.2513                 2.2487
 Frc consts  --      1.1902                 0.5368                 0.9987
 IR Inten    --      1.6437                 2.0727                16.8039

                     55                     56                     57
                      A                      A                      A
 Frequencies --    877.5666               915.9359               924.5732
 Red. masses --      1.5918                 1.5213                 2.3161
 Frc consts  --      0.7223                 0.7520                 1.1665
 IR Inten    --      6.5882                 0.9958                15.6903

                     58                     59                     60
                      A                      A                      A
 Frequencies --    943.7963               963.9873               969.4950
 Red. masses --      1.4043                 1.5122                 2.6148
 Frc consts  --      0.7370                 0.8279                 1.4480
 IR Inten    --      0.8774                 6.8944                 7.8823

                     61                     62                     63
                      A                      A                      A
 Frequencies --    990.0627               991.8878              1003.1163
 Red. masses --      1.3577                 2.6918                 1.6742
 Frc consts  --      0.7841                 1.5603                 0.9926
 IR Inten    --      8.0798                60.3929                 0.4589

                     64                     65                     66
                      A                      A                      A
 Frequencies --   1006.0142              1007.2175              1019.3390
 Red. masses --      1.4201                 2.6740                 1.8637
 Frc consts  --      0.8468                 1.5983                 1.1409
 IR Inten    --     14.3334                 2.9459                40.4894

                     67                     68                     69
                      A                      A                      A
 Frequencies --   1041.0196              1047.4071              1067.7874
 Red. masses --      2.8554                 2.2597                 2.0671
 Frc consts  --      1.8232                 1.4606                 1.3886
 IR Inten    --     47.6464                 3.6671                 0.7531

                     70                     71                     72
                      A                      A                      A
 Frequencies --   1079.6365              1101.8509              1107.6092
 Red. masses --      1.8993                 1.7006                 1.5861
 Frc consts  --      1.3044                 1.2164                 1.1464
 IR Inten    --      2.8991                11.5803                12.1685

                     73                     74                     75
                      A                      A                      A
 Frequencies --   1132.5861              1138.5238              1165.4487
 Red. masses --      2.1899                 2.4451                 1.7443
 Frc consts  --      1.6550                 1.8674                 1.3959
 IR Inten    --     11.2855                 7.9115                21.8679

                     76                     77                     78
                      A                      A                      A
 Frequencies --   1168.1572              1174.5858              1198.9583
 Red. masses --      1.5530                 1.0879                 1.2407
 Frc consts  --      1.2486                 0.8843                 1.0508
 IR Inten    --      1.8573                 0.6818                38.6210

                     79                     80                     81
                      A                      A                      A
 Frequencies --   1206.3726              1223.6041              1234.8341
 Red. masses --      1.5155                 3.3025                 1.9925
 Frc consts  --      1.2995                 2.9132                 1.7900
 IR Inten    --     53.5481                67.8011               166.1863

                     82                     83                     84
                      A                      A                      A
 Frequencies --   1262.5876              1282.4980              1310.0117
 Red. masses --      1.9181                 1.1019                 1.5944
 Frc consts  --      1.8016                 1.0678                 1.6121
 IR Inten    --     31.1999                 1.4652               169.0553

                     85                     86                     87
                      A                      A                      A
 Frequencies --   1320.8884              1330.6049              1333.3505
 Red. masses --      1.5498                 1.4640                 1.7103
 Frc consts  --      1.5931                 1.5272                 1.7915
 IR Inten    --     93.7473                18.5097                15.2061

                     88                     89                     90
                      A                      A                      A
 Frequencies --   1358.6553              1362.0405              1370.9831
 Red. masses --      2.8711                 1.5725                 1.2908
 Frc consts  --      3.1226                 1.7188                 1.4295
 IR Inten    --      7.9794                17.9779                70.7854

                     91                     92                     93
                      A                      A                      A
 Frequencies --   1382.1997              1389.0400              1398.5905
 Red. masses --      1.3993                 1.2262                 1.8004
 Frc consts  --      1.5751                 1.3940                 2.0749
 IR Inten    --     28.3419                24.4359                24.9721

                     94                     95                     96
                      A                      A                      A
 Frequencies --   1416.0425              1422.5523              1442.8431
 Red. masses --      1.4338                 2.6327                 1.0667
 Frc consts  --      1.6939                 3.1390                 1.3084
 IR Inten    --     27.6212               416.8921                13.2413

                     97                     98                     99
                      A                      A                      A
 Frequencies --   1463.3083              1468.2318              1473.4755
 Red. masses --      1.0661                 1.2269                 1.0405
 Frc consts  --      1.3451                 1.5583                 1.3310
 IR Inten    --      4.9948                27.4068                 6.5252

                    100                    101                    102
                      A                      A                      A
 Frequencies --   1476.7389              1480.2818              1484.5093
 Red. masses --      1.8759                 1.0892                 1.0538
 Frc consts  --      2.4102                 1.4062                 1.3683
 IR Inten    --     67.4878                 8.9354                 5.8241

                    103                    104                    105
                      A                      A                      A
 Frequencies --   1490.1577              1499.9877              1505.8663
 Red. masses --      1.1662                 1.1327                 1.0865
 Frc consts  --      1.5257                 1.5015                 1.4516
 IR Inten    --     34.0068                11.1169                 8.8465

                    106                    107                    108
                      A                      A                      A
 Frequencies --   1516.0345              1612.9837              1623.1110
 Red. masses --      2.1011                 4.6320                 5.6053
 Frc consts  --      2.8452                 7.1004                 8.7006
 IR Inten    --      4.5311               138.0681                22.9872

                    109                    110                    111
                      A                      A                      A
 Frequencies --   1639.6959              1766.9038              2984.6481
 Red. masses --      5.6493                11.9576                 1.0545
 Frc consts  --      8.9489                21.9948                 5.5347
 IR Inten    --      4.6771               227.1734                16.5671

                    112                    113                    114
                      A                      A                      A
 Frequencies --   3016.6416              3038.1256              3042.1253
 Red. masses --      1.0399                 1.0657                 1.0356
 Frc consts  --      5.5757                 5.7958                 5.6467
 IR Inten    --      4.0110                21.9313                12.6389

                    115                    116                    117
                      A                      A                      A
 Frequencies --   3058.3041              3060.4859              3067.9902
 Red. masses --      1.0580                 1.0639                 1.0958
 Frc consts  --      5.8306                 5.8712                 6.0768
 IR Inten    --     15.8666                18.2306                 1.7808

                    118                    119                    120
                      A                      A                      A
 Frequencies --   3079.3179              3080.5338              3102.7564
 Red. masses --      1.0819                 1.0830                 1.0989
 Frc consts  --      6.0443                 6.0553                 6.2329
 IR Inten    --     12.5568                 4.3559                 7.4665

                    121                    122                    123
                      A                      A                      A
 Frequencies --   3103.5443              3116.2247              3118.7211
 Red. masses --      1.1078                 1.1026                 1.1012
 Frc consts  --      6.2868                 6.3083                 6.3105
 IR Inten    --      4.8342                 9.1898                26.8456

                    124                    125                    126
                      A                      A                      A
 Frequencies --   3134.2034              3140.4149              3156.5917
 Red. masses --      1.1050                 1.1000                 1.0871
 Frc consts  --      6.3953                 6.3919                 6.3821
 IR Inten    --     21.1081                 6.6878                 6.7792

                    127                    128                    129
                      A                      A                      A
 Frequencies --   3159.2727              3171.8875              3182.6718
 Red. masses --      1.0975                 1.0856                 1.0901
 Frc consts  --      6.4539                 6.4351                 6.5058
 IR Inten    --     11.2799                 0.0739                 6.8280

                    130                    131                    132
                      A                      A                      A
 Frequencies --   3193.3798              3204.9171              3213.4866
 Red. masses --      1.0950                 1.0947                 1.0934
 Frc consts  --      6.5791                 6.6246                 6.6522
 IR Inten    --     12.9492                 2.5329                 2.8400

 - Thermochemistry -
 -------------------
 Temperature   298.150 Kelvin.  Pressure   1.00000 Atm.
 Atom     1 has atomic number  6 and mass  12.00000

 Molecular mass:   434.99839 amu.
 Principal axes and moments of inertia in atomic units:
                           1         2         3
     Eigenvalues --  8987.72633********************
           X            0.99794  -0.06022   0.02215
           Y            0.06049   0.99810  -0.01191
           Z           -0.02139   0.01322   0.99968
 This molecule is an asymmetric top.
 Rotational symmetry number  1.
 Warning -- assumption of classical behavior for rotation
           may cause significant error
 Rotational temperatures (Kelvin)      0.00964     0.00742     0.00620
 Rotational constants (GHZ):           0.20080     0.15452     0.12928
    1 imaginary frequencies ignored.
 Zero-point vibrational energy     941034.3 (Joules/Mol)
                                  224.91260 (Kcal/Mol)
 Warning -- explicit consideration of  42 degrees of freedom as
           vibrations may cause significant error
 Vibrational temperatures:     19.60    29.56    45.14    54.42    61.89
          (Kelvin)             82.80    98.97   100.79   116.23   127.87
                              130.97   140.58   146.25   156.56   171.31
                              176.33   187.77   211.29   221.42   249.83
                              274.07   295.08   315.62   351.39   364.94
                              383.13   413.41   438.88   490.66   508.54
                              555.84   558.91   578.24   580.32   599.73
                              617.73   654.13   702.20   728.81   754.82
                              774.64   850.49   900.78   921.56  1003.30
                             1015.17  1084.07  1109.83  1155.93  1166.60
                             1198.57  1227.73  1249.16  1262.62  1317.83
                             1330.25  1357.91  1386.96  1394.89  1424.48
                             1427.11  1443.26  1447.43  1449.16  1466.60
                             1497.79  1506.99  1536.31  1553.36  1585.32
                             1593.60  1629.54  1638.08  1676.82  1680.72
                             1689.97  1725.03  1735.70  1760.49  1776.65
                             1816.58  1845.23  1884.81  1900.46  1914.44
                             1918.39  1954.80  1959.67  1972.54  1988.68
                             1998.52  2012.26  2037.37  2046.74  2075.93
                             2105.37  2112.46  2120.00  2124.70  2129.80
                             2135.88  2144.00  2158.15  2166.61  2181.24
                             2320.72  2335.29  2359.16  2542.18  4294.24
                             4340.27  4371.19  4376.94  4400.22  4403.36
                             4414.15  4430.45  4432.20  4464.17  4465.31
                             4483.55  4487.14  4509.42  4518.36  4541.63
                             4545.49  4563.64  4579.15  4594.56  4611.16
                             4623.49

 Zero-point correction=                           0.358421 (Hartree/Particle)
 Thermal correction to Energy=                    0.386347
 Thermal correction to Enthalpy=                  0.387292
 Thermal correction to Gibbs Free Energy=         0.294136
 Sum of electronic and zero-point Energies=          -3531.070406
 Sum of electronic and thermal Energies=             -3531.042479
 Sum of electronic and thermal Enthalpies=           -3531.041535
 Sum of electronic and thermal Free Energies=        -3531.134691

                     E (Thermal)             CV                S
                      KCal/Mol        Cal/Mol-Kelvin    Cal/Mol-Kelvin
 Total                  242.437             97.876            196.063
 Electronic               0.000              0.000              3.561
 Translational            0.889              2.981             44.100
 Rotational               0.889              2.981             35.637
 Vibrational            240.659             91.914            112.765
 Vibration     1          0.593              1.986              7.396
 Vibration     2          0.593              1.986              6.581
 Vibration     3          0.594              1.983              5.740
 Vibration     4          0.594              1.982              5.370
 Vibration     5          0.595              1.980              5.115
 Vibration     6          0.596              1.974              4.540
 Vibration     7          0.598              1.969              4.188
 Vibration     8          0.598              1.968              4.152
 Vibration     9          0.600              1.962              3.872
 Vibration    10          0.602              1.957              3.685
 Vibration    11          0.602              1.956              3.638
 Vibration    12          0.603              1.951              3.500
 Vibration    13          0.604              1.948              3.422
 Vibration    14          0.606              1.942              3.290
 Vibration    15          0.609              1.933              3.115
 Vibration    16          0.610              1.930              3.060
 Vibration    17          0.612              1.923              2.939
 Vibration    18          0.617              1.906              2.713
 Vibration    19          0.619              1.898              2.624
 Vibration    20          0.627              1.875              2.396
 Vibration    21          0.634              1.853              2.223
 Vibration    22          0.640              1.833              2.087
 Vibration    23          0.647              1.812              1.964
 Vibration    24          0.660              1.772              1.772
 Vibration    25          0.665              1.757              1.705
 Vibration    26          0.672              1.735              1.620
 Vibration    27          0.685              1.697              1.490
 Vibration    28          0.696              1.664              1.389
 Vibration    29          0.721              1.593              1.207
 Vibration    30          0.730              1.568              1.151
 Vibration    31          0.755              1.499              1.014
 Vibration    32          0.757              1.495              1.006
 Vibration    33          0.768              1.466              0.956
 Vibration    34          0.769              1.463              0.950
 Vibration    35          0.780              1.434              0.903
 Vibration    36          0.791              1.406              0.861
 Vibration    37          0.813              1.351              0.782
 Vibration    38          0.844              1.277              0.689
 Vibration    39          0.862              1.235              0.642
 Vibration    40          0.880              1.195              0.599
 Vibration    41          0.893              1.165              0.569
 Vibration    42          0.949              1.051              0.465

                           ! Non-Optimized Parameters !
 Normal termination of Gaussian 16 at Sun Jun 20 08:15:22 2021.

 ----------------------------------------------------------------------
 #p ub3lyp jul-cc-pvdz pop=cm5 scrf=(pcm,solvent=dichloroethane) guess=
 read geom=allcheck
 ----------------------------------------------------------------------

 Structure from the checkpoint file:  "checkpoint.chk"
 -----
 title
 -----
 Charge =  0 Multiplicity = 6

 SCF Done:  E(UB3LYP) =  -3531.44887039     A.U. after   18 cycles
 Normal termination of Gaussian 16 at Sun Jun 20 08:37:47 2021.
 Gaussian 16:  ES64L-G16RevA.03 25-Dec-2016

 ----------------------------------------------------------------------
 #p ub3lyp jul-cc-pvdz pop=cm5 scrf=(pcm,solvent=water) guess=read geom
 =allcheck
 ----------------------------------------------------------------------

 Structure from the checkpoint file:  "checkpoint.chk"
 -----
 title
 -----
 Charge =  0 Multiplicity = 6

                         Standard orientation:
 ---------------------------------------------------------------------
 Center     Atomic      Atomic             Coordinates (Angstroms)
 Number     Number       Type             X           Y           Z
 ---------------------------------------------------------------------
      1          6           0       -3.038781   -1.009393   -0.033367
      2          6           0       -1.751891   -0.821015   -0.570093
      3          6           0       -1.584122   -0.871494   -1.964123
      4          6           0       -2.675438   -1.111504   -2.801412
      5          6           0       -3.950098   -1.301467   -2.259591
      6          6           0       -4.128032   -1.245169   -0.872145
      7          6           0       -0.553246   -0.520146    0.294300
      8          6           0       -0.728171    0.293598    1.625068
      9          6           0       -0.845273   -0.575508    2.878099
     10          6           0        0.055723   -1.782680    2.628276
     11          6           0       -0.390642   -2.355403    1.301969
     12          6           0        0.358859   -3.148331    0.459445
     13          6           0        1.847052   -3.168109    0.470254
     14          8           0        0.525962   -0.266501   -0.357332
     15         26           0        2.242823    0.657900   -0.411815
     16         17           0        3.085824    0.557817    1.641409
     17          6           0       -0.299530   -3.925169   -0.635815
     18         17           0        1.878129    2.723048   -1.065446
     19         17           0        3.433567   -0.503118   -1.872795
     20          1           0       -0.594672   -0.702106   -2.384849
     21          1           0       -2.528826   -1.141610   -3.881914
     22          1           0       -4.803437   -1.486054   -2.913894
     23          1           0       -5.120348   -1.381488   -0.440513
     24          1           0       -3.205310   -0.962112    1.041680
     25          1           0        0.210956    0.856783    1.691365
     26          6           0       -1.839561    1.341618    1.519030
     27          1           0       -0.547631   -0.002791    3.765247
     28          1           0       -1.886851   -0.887922    3.034236
     29          1           0        1.108483   -1.475886    2.607395
     30          1           0       -0.058832   -2.537150    3.421525
     31          1           0       -1.463612   -2.547814    1.262236
     32          1           0       -1.385169   -3.782589   -0.663582
     33          1           0        0.129200   -3.644376   -1.611867
     34          1           0       -0.087282   -4.998768   -0.505275
     35          1           0        2.228070   -4.169277    0.223269
     36          1           0        2.209231   -2.494916   -0.330230
     37          1           0        2.287748   -2.829014    1.412104
     38          8           0       -1.579195    2.215812    0.539684
     39          8           0       -2.807285    1.391742    2.249143
     40          6           0       -2.540419    3.293256    0.349122
     41          6           0       -2.058066    4.134607   -0.814211
     42          1           0       -3.525752    2.844085    0.164746
     43          1           0       -2.597189    3.866139    1.284491
     44          1           0       -2.754949    4.970954   -0.969226
     45          1           0       -1.057919    4.541875   -0.616442
     46          1           0       -2.013181    3.542374   -1.737981
 ---------------------------------------------------------------------

 SCF Done:  E(UB3LYP) =  -3531.45238791     A.U. after   17 cycles

 The electronic state is 6-A.
 Alpha  occ. eigenvalues -- -256.21092-101.52555-101.52553-101.52417 -30.20502
 Alpha  occ. eigenvalues --  -26.05879 -26.05679 -26.05638 -19.20653 -19.18298
 Alpha  occ. eigenvalues --  -19.15748 -10.33528 -10.32649 -10.25273 -10.25016
 Alpha  occ. eigenvalues --  -10.22801 -10.22102 -10.21134 -10.21078 -10.20895
 Alpha  occ. eigenvalues --  -10.20800 -10.20719 -10.20606 -10.20047 -10.20020
 Alpha  occ. eigenvalues --  -10.20010 -10.19798 -10.18711  -9.44291  -9.44258
 Alpha  occ. eigenvalues --   -9.44154  -7.20154  -7.20130  -7.20022  -7.19839
 Alpha  occ. eigenvalues --   -7.19836  -7.19813  -7.19796  -7.19700  -7.19691
 Alpha  occ. eigenvalues --   -3.68166  -2.45786  -2.45412  -2.45321  -1.12613
 Alpha  occ. eigenvalues --   -1.07866  -1.04105  -0.88003  -0.86361  -0.83392
 Alpha  occ. eigenvalues --   -0.80562  -0.79821  -0.79739  -0.78961  -0.78208
 Alpha  occ. eigenvalues --   -0.76528  -0.75064  -0.71780  -0.70421  -0.66737
 Alpha  occ. eigenvalues --   -0.64586  -0.62513  -0.61607  -0.59574  -0.57610
 Alpha  occ. eigenvalues --   -0.55947  -0.54588  -0.53261  -0.51513  -0.50294
 Alpha  occ. eigenvalues --   -0.49894  -0.49164  -0.48684  -0.48474  -0.48237
 Alpha  occ. eigenvalues --   -0.48020  -0.47553  -0.47169  -0.46641  -0.46004
 Alpha  occ. eigenvalues --   -0.45401  -0.44905  -0.44112  -0.43519  -0.42532
 Alpha  occ. eigenvalues --   -0.42490  -0.41352  -0.40577  -0.40430  -0.40094
 Alpha  occ. eigenvalues --   -0.39038  -0.38501  -0.38047  -0.37768  -0.37560
 Alpha  occ. eigenvalues --   -0.37046  -0.36932  -0.36255  -0.36070  -0.35734
 Alpha  occ. eigenvalues --   -0.34977  -0.34702  -0.34315  -0.32389  -0.32126
 Alpha  occ. eigenvalues --   -0.31353  -0.31303  -0.31096  -0.30616  -0.30151
 Alpha  occ. eigenvalues --   -0.30038  -0.29369  -0.28423  -0.27297  -0.26022
 Alpha virt. eigenvalues --   -0.11380  -0.03678  -0.02849  -0.01631  -0.01243
 Alpha virt. eigenvalues --   -0.00218  -0.00069   0.00062   0.01422   0.01638
 Alpha virt. eigenvalues --    0.01777   0.01979   0.02328   0.03431   0.03529

  Beta  occ. eigenvalues -- -256.20906-101.52369-101.52362-101.52237 -30.11555
  Beta  occ. eigenvalues --  -25.98312 -25.98271 -25.98242 -19.20653 -19.17825
  Beta  occ. eigenvalues --  -19.15746 -10.33529 -10.32645 -10.25245 -10.25016
  Beta  occ. eigenvalues --  -10.22789 -10.22079 -10.21115 -10.21078 -10.20897
  Beta  occ. eigenvalues --  -10.20801 -10.20716 -10.20605 -10.20046 -10.20021
  Beta  occ. eigenvalues --  -10.20011 -10.19800 -10.18710  -9.44103  -9.44075
  Beta  occ. eigenvalues --   -9.43977  -7.19848  -7.19818  -7.19721  -7.19578
  Beta  occ. eigenvalues --   -7.19573  -7.19562  -7.19551  -7.19457  -7.19453
  Beta  occ. eigenvalues --   -3.47305  -2.23564  -2.23535  -2.23466  -1.12610
  Beta  occ. eigenvalues --   -1.06955  -1.04102  -0.87949  -0.86309  -0.83339
  Beta  occ. eigenvalues --   -0.79363  -0.78950  -0.78512  -0.78467  -0.78126
  Beta  occ. eigenvalues --   -0.76522  -0.75041  -0.71768  -0.70334  -0.66560
  Beta  occ. eigenvalues --   -0.64504  -0.62473  -0.61530  -0.59255  -0.57354
  Beta  occ. eigenvalues --   -0.55474  -0.54503  -0.52436  -0.51486  -0.50087
  Beta  occ. eigenvalues --   -0.49633  -0.48840  -0.47821  -0.47438  -0.46571
  Beta  occ. eigenvalues --   -0.45749  -0.44910  -0.44110  -0.43520  -0.42548
  Beta  occ. eigenvalues --   -0.42453  -0.41374  -0.40600  -0.40423  -0.40099
  Beta  occ. eigenvalues --   -0.39034  -0.38479  -0.38329  -0.37787  -0.37616
  Beta  occ. eigenvalues --   -0.37055  -0.36947  -0.36262  -0.36190  -0.36104
  Beta  occ. eigenvalues --   -0.36064  -0.35746  -0.34931  -0.33515  -0.33311
  Beta  occ. eigenvalues --   -0.32850  -0.32410  -0.32159  -0.31609  -0.30551
  Beta  occ. eigenvalues --   -0.29887  -0.29483  -0.28343  -0.27303  -0.25919
  Beta virt. eigenvalues --   -0.15139  -0.14696  -0.13740  -0.13554  -0.12894
  Beta virt. eigenvalues --   -0.10621  -0.03641  -0.02816  -0.01523  -0.01192
  Beta virt. eigenvalues --   -0.00169  -0.00044   0.00092   0.01434   0.01670

 Mulliken charges and spin densities:
               1          2
     1  C   -0.365915  -0.001348
     2  C    3.424323   0.002199
     3  C   -0.756473   0.000931
     4  C   -0.036116   0.001821
     5  C    0.255108  -0.001818
     6  C   -0.003128   0.002718
     7  C   -2.328339   0.015801
     8  C    0.741694  -0.002511
     9  C    0.592603   0.000319
    10  C    0.747823  -0.000831
    11  C    0.720668   0.011644
    12  C   -0.414655   0.014952
    13  C   -0.010504  -0.001022
    14  O   -0.491940   0.134501
    15  Fe   0.624906   4.068280
    16  Cl  -0.510166   0.242767
    17  C    0.298724  -0.000695
    18  Cl  -0.450793   0.265604
    19  Cl  -0.493459   0.245863
    20  H   -0.200996  -0.000458
    21  H   -0.150728  -0.000002
    22  H   -0.157217   0.000035
    23  H   -0.156172   0.000168
    24  H   -0.172928  -0.000140
    25  H   -0.214265   0.000629
    26  C    0.812970  -0.006220
    27  H   -0.166061   0.000337
    28  H   -0.068203  -0.000188
    29  H   -0.082803  -0.000452
    30  H   -0.146684   0.000492
    31  H   -0.251606  -0.000689
    32  H    0.010449   0.000006
    33  H    0.066981   0.001320
    34  H    0.006291   0.001223
    35  H    0.004044   0.000684
    36  H    0.102322   0.003001
    37  H    0.029555  -0.000213
    38  O   -0.680852   0.000032
    39  O   -0.616378   0.000819
    40  C    0.471664   0.000714
    41  C    0.052369  -0.000131
    42  H   -0.036963  -0.000006
    43  H   -0.038025   0.000001
    44  H   -0.005853  -0.000005
    45  H    0.025562  -0.000188
    46  H    0.019165   0.000054
 Sum of Mulliken charges =  -0.00000   5.00000

 Dipole moment (field-independent basis, Debye):
    X=             -9.2897    Y=             -8.3462    Z=              0.8092  Tot=             12.5145
 Quadrupole moment (field-independent basis, Debye-Ang):
   XX=           -192.9606   YY=           -155.1992   ZZ=           -177.3415
   XY=             -7.3656   XZ=             15.7664   YZ=             -2.2359

 Normal termination of Gaussian 16 at Sun Jun 20 08:58:39 2021.
