 Gaussian 16, Revision A.03,

 -----------------------------------------------------------
 #p opt=modredundant freq=noraman ub3lyp jul-cc-pvdz pop=cm5
 -----------------------------------------------------------

 -----
 title
 -----
 Symbolic Z-matrix:
 Charge =  0 Multiplicity = 6

 SCF Done:  E(UB3LYP) =  -3531.42148627     A.U. after   22 cycles
 SCF Done:  E(UB3LYP) =  -3531.42139459     A.U. after   16 cycles
 SCF Done:  E(UB3LYP) =  -3531.41755767     A.U. after   19 cycles
 SCF Done:  E(UB3LYP) =  -3531.42149414     A.U. after   15 cycles
 SCF Done:  E(UB3LYP) =  -3531.42185925     A.U. after   10 cycles
 SCF Done:  E(UB3LYP) =  -3531.42200836     A.U. after   15 cycles
 SCF Done:  E(UB3LYP) =  -3531.42199810     A.U. after   15 cycles
 SCF Done:  E(UB3LYP) =  -3531.42202908     A.U. after   15 cycles
 SCF Done:  E(UB3LYP) =  -3531.42204874     A.U. after   14 cycles
 SCF Done:  E(UB3LYP) =  -3531.42205042     A.U. after   12 cycles
 SCF Done:  E(UB3LYP) =  -3531.42205155     A.U. after   12 cycles
 SCF Done:  E(UB3LYP) =  -3531.42205201     A.U. after   10 cycles
 SCF Done:  E(UB3LYP) =  -3531.42205217     A.U. after   11 cycles
 SCF Done:  E(UB3LYP) =  -3531.42205224     A.U. after    9 cycles
 Optimization completed.
    -- Stationary point found.
 Normal termination of Gaussian 16 at Sun Jun 20 02:15:22 2021.

 ----------------------------------------------------------------------
 #P Geom=AllCheck Guess=TCheck SCRF=Check GenChk UB3LYP/Jul-CC-pVDZ Fre
 q
 ----------------------------------------------------------------------

 Structure from the checkpoint file:  "checkpoint.chk"
 -----
 title
 -----
 Charge =  0 Multiplicity = 6

 SCF Done:  E(UB3LYP) =  -3531.42205224     A.U. after    2 cycles

  Exact polarizability: 281.517   1.873 300.757  23.841   6.386 283.360
 Approx polarizability: 412.474   1.416 475.654  44.699   7.302 447.825

 ******    1 imaginary frequencies (negative Signs) ******

                      1                      2                      3
                      A                      A                      A
 Frequencies --   -132.4089                26.3701                29.1059
 Red. masses --      8.6624                 6.5472                 6.4704
 Frc consts  --      0.0895                 0.0027                 0.0032
 IR Inten    --    176.6850                 0.0605                 1.7123

                      4                      5                      6
                      A                      A                      A
 Frequencies --     30.9570                49.4217                55.1542
 Red. masses --      5.9906                 5.6667                 3.7368
 Frc consts  --      0.0034                 0.0082                 0.0067
 IR Inten    --      1.8523                 2.0460                 1.9239

                      7                      8                      9
                      A                      A                      A
 Frequencies --     66.5834                71.0244                78.7610
 Red. masses --      2.5218                 4.9465                 8.4756
 Frc consts  --      0.0066                 0.0147                 0.0310
 IR Inten    --      0.1192                 1.1619                 0.6697

                     10                     11                     12
                      A                      A                      A
 Frequencies --     84.8755                91.5542               102.3697
 Red. masses --      7.1987                13.9334                 5.8668
 Frc consts  --      0.0306                 0.0688                 0.0362
 IR Inten    --      3.0074                 1.0666                 1.4441

                     13                     14                     15
                      A                      A                      A
 Frequencies --    114.2072               118.4675               120.8073
 Red. masses --     12.3587                 4.0384                 8.1326
 Frc consts  --      0.0950                 0.0334                 0.0699
 IR Inten    --      1.1887                 1.7842                10.8067

                     16                     17                     18
                      A                      A                      A
 Frequencies --    130.0422               150.7740               164.8063
 Red. masses --      5.8978                 3.8521                 2.6775
 Frc consts  --      0.0588                 0.0516                 0.0428
 IR Inten    --      4.1184                11.3249                 1.2573

                     19                     20                     21
                      A                      A                      A
 Frequencies --    183.8573               194.2063               202.1902
 Red. masses --      3.1005                 1.9543                 1.9087
 Frc consts  --      0.0618                 0.0434                 0.0460
 IR Inten    --     11.2365                 9.6568                 3.8352

                     22                     23                     24
                      A                      A                      A
 Frequencies --    224.2358               229.4925               249.4729
 Red. masses --      3.3935                 1.3803                 2.1461
 Frc consts  --      0.1005                 0.0428                 0.0787
 IR Inten    --      8.6489                 1.0687                 0.9007

                     25                     26                     27
                      A                      A                      A
 Frequencies --    256.3411               262.0593               292.8528
 Red. masses --      2.3181                 2.0905                 3.5634
 Frc consts  --      0.0897                 0.0846                 0.1801
 IR Inten    --      6.0440                 0.7985                 1.9971

                     28                     29                     30
                      A                      A                      A
 Frequencies --    306.6118               341.4197               343.6658
 Red. masses --      2.8743                 4.3769                16.5352
 Frc consts  --      0.1592                 0.3006                 1.1506
 IR Inten    --      2.8022                 7.9735                27.8698

                     31                     32                     33
                      A                      A                      A
 Frequencies --    376.0131               381.8926               387.1999
 Red. masses --      3.3433                 3.2305                29.4909
 Frc consts  --      0.2785                 0.2776                 2.6050
 IR Inten    --      9.0710                 6.7456                80.0121

                     34                     35                     36
                      A                      A                      A
 Frequencies --    398.1974               402.1144               408.6731
 Red. masses --     26.8392                 4.4281                 4.2919
 Frc consts  --      2.5074                 0.4219                 0.4223
 IR Inten    --     90.4451                 9.3240                20.2812

                     37                     38                     39
                      A                      A                      A
 Frequencies --    412.4644               466.3263               513.9868
 Red. masses --      2.9774                 3.7608                 2.9753
 Frc consts  --      0.2984                 0.4818                 0.4631
 IR Inten    --      2.4150                 1.8129                 5.5634

                     40                     41                     42
                      A                      A                      A
 Frequencies --    544.8506               571.0388               626.8041
 Red. masses --      3.6813                 2.4653                 5.8011
 Frc consts  --      0.6439                 0.4736                 1.3428
 IR Inten    --     21.2749                 0.6205                 2.7500

                     43                     44                     45
                      A                      A                      A
 Frequencies --    636.2083               672.9624               701.0920
 Red. masses --      4.7569                 4.4253                 3.9471
 Frc consts  --      1.1344                 1.1808                 1.1431
 IR Inten    --     19.1613                13.7062                16.2611

                     46                     47                     48
                      A                      A                      A
 Frequencies --    708.0176               755.5531               785.3163
 Red. masses --      1.6347                 2.8492                 2.8940
 Frc consts  --      0.4828                 0.9583                 1.0516
 IR Inten    --     40.6766                18.6564                14.1741

                     49                     50                     51
                      A                      A                      A
 Frequencies --    790.6499               803.0959               813.2576
 Red. masses --      4.0977                 1.6070                 2.2373
 Frc consts  --      1.5092                 0.6107                 0.8718
 IR Inten    --      4.3255                15.0275                16.4324

                     52                     53                     54
                      A                      A                      A
 Frequencies --    841.2687               845.8121               872.1062
 Red. masses --      1.8755                 1.2650                 2.6308
 Frc consts  --      0.7821                 0.5332                 1.1789
 IR Inten    --     18.6153                 0.1795                 8.6572

                     55                     56                     57
                      A                      A                      A
 Frequencies --    896.0131               922.0810               929.5912
 Red. masses --      1.3933                 1.5795                 2.1434
 Frc consts  --      0.6591                 0.7912                 1.0913
 IR Inten    --      8.7597                41.2228                44.7861

                     58                     59                     60
                      A                      A                      A
 Frequencies --    944.8838               954.3940               981.3616
 Red. masses --      2.5552                 2.9523                 1.3692
 Frc consts  --      1.3441                 1.5844                 0.7769
 IR Inten    --     46.1446                40.6030                 0.0858

                     61                     62                     63
                      A                      A                      A
 Frequencies --    982.4478              1001.5439              1002.8925
 Red. masses --      2.3622                 1.5534                 1.4875
 Frc consts  --      1.3433                 0.9181                 0.8815
 IR Inten    --     26.4876                 4.3416                 0.9641

                     64                     65                     66
                      A                      A                      A
 Frequencies --   1004.7086              1008.3952              1027.4930
 Red. masses --      3.0184                 3.1820                 2.8003
 Frc consts  --      1.7952                 1.9064                 1.7419
 IR Inten    --      2.3738                 9.3027                11.0927

                     67                     68                     69
                      A                      A                      A
 Frequencies --   1044.1787              1048.0070              1058.6750
 Red. masses --      2.5086                 2.1847                 2.0008
 Frc consts  --      1.6115                 1.4137                 1.3212
 IR Inten    --     41.2828                12.1901                 1.8817

                     70                     71                     72
                      A                      A                      A
 Frequencies --   1092.4716              1096.0653              1106.0666
 Red. masses --      1.8986                 2.6695                 1.6397
 Frc consts  --      1.3351                 1.8895                 1.1819
 IR Inten    --     27.8883                25.2210                 4.5740

                     73                     74                     75
                      A                      A                      A
 Frequencies --   1132.8529              1150.6428              1169.0901
 Red. masses --      2.1588                 1.6723                 1.5759
 Frc consts  --      1.6323                 1.3045                 1.2691
 IR Inten    --      6.6733                20.7533                 8.1815

                     76                     77                     78
                      A                      A                      A
 Frequencies --   1175.2933              1188.2889              1202.3943
 Red. masses --      1.0881                 2.6889                 1.4206
 Frc consts  --      0.8855                 2.2370                 1.2101
 IR Inten    --      0.2190                46.9323                 4.5069

                     79                     80                     81
                      A                      A                      A
 Frequencies --   1208.4952              1214.1336              1225.3145
 Red. masses --      1.9003                 1.3509                 1.9181
 Frc consts  --      1.6351                 1.1733                 1.6968
 IR Inten    --     97.6748                14.5297               101.5809

                     82                     83                     84
                      A                      A                      A
 Frequencies --   1257.8718              1281.8409              1285.2084
 Red. masses --      1.8147                 1.2564                 1.3404
 Frc consts  --      1.6917                 1.2163                 1.3045
 IR Inten    --     34.6381                 4.5875                 3.8616

                     85                     86                     87
                      A                      A                      A
 Frequencies --   1290.8245              1307.0266              1320.5257
 Red. masses --      1.8194                 1.6907                 1.5496
 Frc consts  --      1.7861                 1.7017                 1.5921
 IR Inten    --     68.1635                 9.8531                24.0344

                     88                     89                     90
                      A                      A                      A
 Frequencies --   1335.8325              1356.4066              1361.5643
 Red. masses --      1.8768                 2.5196                 1.7901
 Frc consts  --      1.9732                 2.7313                 1.9553
 IR Inten    --     15.3768                 9.7175                 2.9224

                     91                     92                     93
                      A                      A                      A
 Frequencies --   1370.0040              1373.7256              1396.6001
 Red. masses --      1.3139                 1.4288                 1.2956
 Frc consts  --      1.4529                 1.5887                 1.4889
 IR Inten    --      9.3354                13.6876                76.8123

                     94                     95                     96
                      A                      A                      A
 Frequencies --   1398.9341              1409.5101              1418.5980
 Red. masses --      1.5522                 1.4858                 1.6009
 Frc consts  --      1.7898                 1.7392                 1.8981
 IR Inten    --     20.7900                28.9945                10.0566

                     97                     98                     99
                      A                      A                      A
 Frequencies --   1446.4730              1468.5671              1471.5623
 Red. masses --      1.0952                 1.1838                 1.9088
 Frc consts  --      1.3501                 1.5042                 2.4354
 IR Inten    --      0.4960                 4.5454                 6.1694

                    100                    101                    102
                      A                      A                      A
 Frequencies --   1473.9631              1478.1102              1488.3589
 Red. masses --      1.0393                 1.1423                 1.0528
 Frc consts  --      1.3303                 1.4704                 1.3741
 IR Inten    --      3.5548                 1.4432                 1.2281

                    103                    104                    105
                      A                      A                      A
 Frequencies --   1489.2413              1500.4730              1507.5290
 Red. masses --      1.0801                 1.0901                 1.0841
 Frc consts  --      1.4113                 1.4460                 1.4517
 IR Inten    --      5.1094                15.1820                 5.9320

                    106                    107                    108
                      A                      A                      A
 Frequencies --   1510.7867              1525.1445              1627.0002
 Red. masses --      1.0861                 2.2319                 5.6955
 Frc consts  --      1.4606                 3.0588                 8.8830
 IR Inten    --      2.3186                 3.7334                 0.6899

                    109                    110                    111
                      A                      A                      A
 Frequencies --   1648.3428              1773.2119              3007.0926
 Red. masses --      5.7465                11.6272                 1.0499
 Frc consts  --      9.1992                21.5400                 5.5936
 IR Inten    --      0.1533               205.9566                 2.3658

                    112                    113                    114
                      A                      A                      A
 Frequencies --   3022.0233              3039.5270              3058.4330
 Red. masses --      1.0484                 1.0355                 1.0585
 Frc consts  --      5.6412                 5.6368                 5.8336
 IR Inten    --      8.0663                20.9681                13.5574

                    115                    116                    117
                      A                      A                      A
 Frequencies --   3063.5089              3069.4475              3081.1102
 Red. masses --      1.0601                 1.0623                 1.0850
 Frc consts  --      5.8620                 5.8966                 6.0687
 IR Inten    --     16.5670                29.5961                 9.0141

                    118                    119                    120
                      A                      A                      A
 Frequencies --   3091.1473              3102.6121              3104.9525
 Red. masses --      1.0916                 1.1064                 1.0992
 Frc consts  --      6.1454                 6.2749                 6.2437
 IR Inten    --      4.9969                 7.7675                 9.0122

                    121                    122                    123
                      A                      A                      A
 Frequencies --   3108.1870              3112.1564              3115.2131
 Red. masses --      1.0830                 1.0843                 1.1025
 Frc consts  --      6.1643                 6.1877                 6.3035
 IR Inten    --      2.2863                 1.1743                20.0784

                    124                    125                    126
                      A                      A                      A
 Frequencies --   3120.7537              3133.7323              3162.1105
 Red. masses --      1.1045                 1.1044                 1.1055
 Frc consts  --      6.3379                 6.3898                 6.5128
 IR Inten    --     24.8907                20.5693                 1.5529

                    127                    128                    129
                      A                      A                      A
 Frequencies --   3164.4613              3167.2892              3176.8430
 Red. masses --      1.1040                 1.0847                 1.0878
 Frc consts  --      6.5136                 6.4110                 6.4684
 IR Inten    --      4.5678                 1.9152                 5.0869

                    130                    131                    132
                      A                      A                      A
 Frequencies --   3185.2732              3193.9066              3200.2889
 Red. masses --      1.0922                 1.0948                 1.0976
 Frc consts  --      6.5290                 6.5800                 6.6234
 IR Inten    --     18.6395                 6.1957                 9.0564

 - Thermochemistry -
 -------------------
 Temperature   298.150 Kelvin.  Pressure   1.00000 Atm.
 Atom     1 has atomic number  6 and mass  12.00000

 Molecular mass:   434.99839 amu.
 Principal axes and moments of inertia in atomic units:
                           1         2         3
     Eigenvalues --  8993.57331********************
           X            0.99694   0.07617   0.01732
           Y           -0.07645   0.99695   0.01580
           Z           -0.01606  -0.01708   0.99973
 This molecule is an asymmetric top.
 Rotational symmetry number  1.
 Warning -- assumption of classical behavior for rotation
           may cause significant error
 Rotational temperatures (Kelvin)      0.00963     0.00754     0.00691
 Rotational constants (GHZ):           0.20067     0.15717     0.14402
    1 imaginary frequencies ignored.
 Zero-point vibrational energy     945693.9 (Joules/Mol)
                                  226.02626 (Kcal/Mol)
 Warning -- explicit consideration of  40 degrees of freedom as
           vibrations may cause significant error
 Vibrational temperatures:     37.94    41.88    44.54    71.11    79.35
          (Kelvin)             95.80   102.19   113.32   122.12   131.73
                              147.29   164.32   170.45   173.81   187.10
                              216.93   237.12   264.53   279.42   290.91
                              322.63   330.19   358.94   368.82   377.04
                              421.35   441.15   491.23   494.46   541.00
                              549.46   557.09   572.92   578.55   587.99
                              593.44   670.94   739.51   783.92   821.60
                              901.83   915.36   968.24  1008.72  1018.68
                             1087.07  1129.90  1137.57  1155.48  1170.10
                             1210.40  1216.93  1254.77  1289.16  1326.67
                             1337.47  1359.48  1373.16  1411.96  1413.52
                             1441.00  1442.94  1445.55  1450.86  1478.33
                             1502.34  1507.85  1523.20  1571.82  1576.99
                             1591.38  1629.92  1655.52  1682.06  1690.98
                             1709.68  1729.98  1738.76  1746.87  1762.95
                             1809.80  1844.28  1849.13  1857.21  1880.52
                             1899.94  1921.97  1951.57  1958.99  1971.13
                             1976.48  2009.40  2012.75  2027.97  2041.05
                             2081.15  2112.94  2117.25  2120.70  2126.67
                             2141.42  2142.69  2158.85  2169.00  2173.69
                             2194.34  2340.89  2371.60  2551.26  4326.54
                             4348.02  4373.20  4400.40  4407.71  4416.25
                             4433.03  4447.47  4463.97  4467.33  4471.99
                             4477.70  4482.10  4490.07  4508.74  4549.57
                             4552.95  4557.02  4570.77  4582.90  4595.32
                             4604.50

 Zero-point correction=                           0.360196 (Hartree/Particle)
 Thermal correction to Energy=                    0.387054
 Thermal correction to Enthalpy=                  0.387998
 Thermal correction to Gibbs Free Energy=         0.299185
 Sum of electronic and zero-point Energies=          -3531.061856
 Sum of electronic and thermal Energies=             -3531.034998
 Sum of electronic and thermal Enthalpies=           -3531.034054
 Sum of electronic and thermal Free Energies=        -3531.122867

                     E (Thermal)             CV                S
                      KCal/Mol        Cal/Mol-Kelvin    Cal/Mol-Kelvin
 Total                  242.880             96.358            186.923
 Electronic               0.000              0.000              3.561
 Translational            0.889              2.981             44.100
 Rotational               0.889              2.981             35.513
 Vibrational            241.103             90.396            103.749
 Vibration     1          0.593              1.985              6.085
 Vibration     2          0.593              1.984              5.889
 Vibration     3          0.594              1.984              5.767
 Vibration     4          0.595              1.978              4.840
 Vibration     5          0.596              1.976              4.623
 Vibration     6          0.598              1.970              4.252
 Vibration     7          0.598              1.968              4.125
 Vibration     8          0.600              1.963              3.922
 Vibration     9          0.601              1.960              3.775
 Vibration    10          0.602              1.955              3.627
 Vibration    11          0.604              1.947              3.409
 Vibration    12          0.607              1.938              3.196
 Vibration    13          0.609              1.934              3.125
 Vibration    14          0.609              1.932              3.087
 Vibration    15          0.612              1.923              2.945
 Vibration    16          0.618              1.902              2.662
 Vibration    17          0.623              1.886              2.494
 Vibration    18          0.631              1.862              2.289
 Vibration    19          0.635              1.848              2.187
 Vibration    20          0.639              1.837              2.113
 Vibration    21          0.649              1.804              1.925
 Vibration    22          0.652              1.796              1.883
 Vibration    23          0.662              1.764              1.734
 Vibration    24          0.666              1.752              1.687
 Vibration    25          0.669              1.742              1.648
 Vibration    26          0.688              1.687              1.457
 Vibration    27          0.697              1.661              1.381
 Vibration    28          0.721              1.593              1.206
 Vibration    29          0.722              1.588              1.195
 Vibration    30          0.747              1.521              1.055
 Vibration    31          0.751              1.509              1.032
 Vibration    32          0.756              1.498              1.011
 Vibration    33          0.764              1.474              0.969
 Vibration    34          0.768              1.466              0.955
 Vibration    35          0.773              1.451              0.931
 Vibration    36          0.776              1.443              0.918
 Vibration    37          0.824              1.325              0.748
 Vibration    38          0.869              1.219              0.624
 Vibration    39          0.900              1.151              0.555
 Vibration    40          0.927              1.094              0.502

                           ! Non-Optimized Parameters !
 Normal termination of Gaussian 16 at Sun Jun 20 06:15:38 2021.

 ----------------------------------------------------------------------
 #p ub3lyp jul-cc-pvdz pop=cm5 scrf=(pcm,solvent=dichloroethane) guess=
 read geom=allcheck
 ----------------------------------------------------------------------

 Structure from the checkpoint file:  "checkpoint.chk"
 -----
 title
 -----
 Charge =  0 Multiplicity = 6

 SCF Done:  E(UB3LYP) =  -3531.44360559     A.U. after   17 cycles
 Normal termination of Gaussian 16 at Sun Jun 20 06:36:23 2021.
 Gaussian 16:  ES64L-G16RevA.03 25-Dec-2016

 ----------------------------------------------------------------------
 #p ub3lyp jul-cc-pvdz pop=cm5 scrf=(pcm,solvent=water) guess=read geom
 =allcheck
 ----------------------------------------------------------------------

 Structure from the checkpoint file:  "checkpoint.chk"
 -----
 title
 -----
 Charge =  0 Multiplicity = 6

                         Standard orientation:
 ---------------------------------------------------------------------
 Center     Atomic      Atomic             Coordinates (Angstroms)
 Number     Number       Type             X           Y           Z
 ---------------------------------------------------------------------
      1          6           0        1.927340   -2.006778    1.664514
      2          6           0        1.261885   -0.945932    1.033839
      3          6           0        1.235255    0.301580    1.674686
      4          6           0        1.830377    0.474172    2.924859
      5          6           0        2.483775   -0.592042    3.549632
      6          6           0        2.536759   -1.832073    2.910973
      7          6           0        0.641001   -1.117023   -0.343952
      8          6           0        1.581506   -0.630097   -1.516020
      9          6           0        2.292665   -1.919997   -1.950769
     10          6           0        1.205553   -3.011225   -1.854234
     11          6           0        0.248972   -2.508377   -0.744517
     12          6           0       -1.212112   -2.192899   -1.109962
     13          6           0       -1.632695   -1.957426   -2.521247
     14          8           0       -0.693013   -0.486131   -0.456148
     15         26           0       -1.975110    0.791704    0.329089
     16         17           0       -3.713721    0.635725   -1.046012
     17          6           0       -2.259235   -2.716839   -0.185893
     18         17           0       -1.180347    2.847263    0.358483
     19         17           0       -2.514160    0.056721    2.339122
     20          1           0        0.746297    1.153372    1.204451
     21          1           0        1.779318    1.448656    3.412041
     22          1           0        2.949619   -0.455999    4.526614
     23          1           0        3.050241   -2.671562    3.381772
     24          1           0        1.992620   -2.985930    1.189504
     25          1           0        0.913756   -0.266784   -2.307162
     26          6           0        2.552938    0.491840   -1.185204
     27          1           0        2.724937   -1.832324   -2.955634
     28          1           0        3.120846   -2.120936   -1.258925
     29          1           0        0.682951   -3.128098   -2.812210
     30          1           0        1.626555   -3.993517   -1.605746
     31          1           0        0.237421   -3.196353    0.107036
     32          1           0       -2.361007   -3.792510   -0.418958
     33          1           0       -1.965139   -2.626184    0.864879
     34          1           0       -3.231119   -2.237308   -0.346556
     35          1           0       -1.886048   -2.938829   -2.958373
     36          1           0       -2.536200   -1.337030   -2.545644
     37          1           0       -0.852940   -1.499052   -3.135988
     38          8           0        2.004561    1.694856   -1.429718
     39          8           0        3.684258    0.325384   -0.780890
     40          6           0        2.834130    2.856291   -1.142607
     41          6           0        2.098759    4.082272   -1.643913
     42          1           0        3.007035    2.889016   -0.058126
     43          1           0        3.804796    2.715815   -1.636288
     44          1           0        2.695561    4.978693   -1.421453
     45          1           0        1.944499    4.031105   -2.730868
     46          1           0        1.121043    4.180841   -1.154811
 ---------------------------------------------------------------------

 SCF Done:  E(UB3LYP) =  -3531.44776366     A.U. after   14 cycles

 The electronic state is 6-A.
 Alpha  occ. eigenvalues -- -256.21289-101.52796-101.52649-101.52581 -30.20673
 Alpha  occ. eigenvalues --  -26.06032 -26.05902 -26.05787 -19.20280 -19.19413
 Alpha  occ. eigenvalues --  -19.15168 -10.32768 -10.31110 -10.28378 -10.24725
 Alpha  occ. eigenvalues --  -10.21819 -10.21766 -10.21443 -10.20794 -10.20772
 Alpha  occ. eigenvalues --  -10.20491 -10.20260 -10.20222 -10.20162 -10.20141
 Alpha  occ. eigenvalues --  -10.20007 -10.19749 -10.18554  -9.44518  -9.44372
 Alpha  occ. eigenvalues --   -9.44307  -7.20384  -7.20245  -7.20180  -7.20073
 Alpha  occ. eigenvalues --   -7.20056  -7.19927  -7.19904  -7.19853  -7.19850
 Alpha  occ. eigenvalues --   -3.68316  -2.45867  -2.45683  -2.45422  -1.11990
 Alpha  occ. eigenvalues --   -1.03977  -1.03548  -0.87970  -0.86598  -0.83897
 Alpha  occ. eigenvalues --   -0.80763  -0.80028  -0.79897  -0.78785  -0.77681
 Alpha  occ. eigenvalues --   -0.76148  -0.75028  -0.73094  -0.72043  -0.66335
 Alpha  occ. eigenvalues --   -0.63881  -0.62167  -0.60892  -0.59589  -0.57051
 Alpha  occ. eigenvalues --   -0.56182  -0.54436  -0.53011  -0.51321  -0.50284
 Alpha  occ. eigenvalues --   -0.50002  -0.49335  -0.48883  -0.48563  -0.48364
 Alpha  occ. eigenvalues --   -0.47995  -0.47514  -0.47247  -0.46357  -0.45952
 Alpha  occ. eigenvalues --   -0.45696  -0.44635  -0.44066  -0.43191  -0.42946
 Alpha  occ. eigenvalues --   -0.42173  -0.41344  -0.40693  -0.40357  -0.39923
 Alpha  occ. eigenvalues --   -0.39406  -0.39005  -0.37926  -0.37558  -0.37268
 Alpha  occ. eigenvalues --   -0.36860  -0.36308  -0.36030  -0.35651  -0.35294
 Alpha  occ. eigenvalues --   -0.34746  -0.34360  -0.34254  -0.33392  -0.31929
 Alpha  occ. eigenvalues --   -0.31462  -0.31359  -0.31209  -0.31083  -0.30707
 Alpha  occ. eigenvalues --   -0.30097  -0.29960  -0.29163  -0.26835  -0.26477
 Alpha virt. eigenvalues --   -0.07540  -0.03570  -0.02905  -0.01482  -0.01355
 Alpha virt. eigenvalues --   -0.00187  -0.00052   0.00103   0.01470   0.01676
 Alpha virt. eigenvalues --    0.01751   0.01827   0.02405   0.03215   0.03783

  Beta  occ. eigenvalues -- -256.21103-101.52607-101.52460-101.52388 -30.11746
  Beta  occ. eigenvalues --  -25.98503 -25.98481 -25.98413 -19.20280 -19.18957
  Beta  occ. eigenvalues --  -19.15166 -10.32768 -10.31099 -10.28348 -10.24725
  Beta  occ. eigenvalues --  -10.21809 -10.21756 -10.21439 -10.20790 -10.20772
  Beta  occ. eigenvalues --  -10.20489 -10.20259 -10.20221 -10.20162 -10.20140
  Beta  occ. eigenvalues --  -10.20003 -10.19747 -10.18552  -9.44332  -9.44186
  Beta  occ. eigenvalues --   -9.44119  -7.20080  -7.19929  -7.19864  -7.19811
  Beta  occ. eigenvalues --   -7.19800  -7.19669  -7.19657  -7.19594  -7.19592
  Beta  occ. eigenvalues --   -3.47495  -2.23801  -2.23677  -2.23661  -1.11988
  Beta  occ. eigenvalues --   -1.03552  -1.03140  -0.87829  -0.86496  -0.83863
  Beta  occ. eigenvalues --   -0.79541  -0.78842  -0.78652  -0.78567  -0.77628
  Beta  occ. eigenvalues --   -0.76139  -0.74999  -0.73078  -0.71898  -0.66295
  Beta  occ. eigenvalues --   -0.63844  -0.62142  -0.60850  -0.59468  -0.57022
  Beta  occ. eigenvalues --   -0.55616  -0.54375  -0.52231  -0.51239  -0.50073
  Beta  occ. eigenvalues --   -0.49567  -0.48994  -0.47516  -0.47253  -0.46418
  Beta  occ. eigenvalues --   -0.45684  -0.44676  -0.44061  -0.43236  -0.42968
  Beta  occ. eigenvalues --   -0.42193  -0.41333  -0.40592  -0.40337  -0.39906
  Beta  occ. eigenvalues --   -0.39398  -0.38585  -0.38011  -0.37613  -0.37256
  Beta  occ. eigenvalues --   -0.36908  -0.36578  -0.36318  -0.36217  -0.35942
  Beta  occ. eigenvalues --   -0.35686  -0.35254  -0.34294  -0.33749  -0.33528
  Beta  occ. eigenvalues --   -0.33295  -0.32826  -0.32379  -0.31738  -0.31053
  Beta  occ. eigenvalues --   -0.30081  -0.29961  -0.29123  -0.26826  -0.26451
  Beta virt. eigenvalues --   -0.15259  -0.14815  -0.13913  -0.13691  -0.13249
  Beta virt. eigenvalues --   -0.06971  -0.03480  -0.02878  -0.01374  -0.01316
  Beta virt. eigenvalues --   -0.00121  -0.00027   0.00128   0.01500   0.01699

 Mulliken charges and spin densities:
               1          2
     1  C   -0.353597   0.003994
     2  C    3.620883  -0.004130
     3  C   -0.440018  -0.012277
     4  C   -0.000597   0.000677
     5  C    0.236140  -0.000498
     6  C   -0.157454   0.001263
     7  C   -2.945233   0.024223
     8  C    0.334948   0.001417
     9  C    0.571106   0.001151
    10  C    0.659868   0.002246
    11  C    1.062220   0.001055
    12  C   -0.951401   0.012195
    13  C    0.401107  -0.004856
    14  O   -0.247944   0.129538
    15  Fe   0.601279   4.059870
    16  Cl  -0.493427   0.258365
    17  C    0.502442   0.002025
    18  Cl  -0.455163   0.262073
    19  Cl  -0.462358   0.255945
    20  H   -0.312558   0.000752
    21  H   -0.166088  -0.000020
    22  H   -0.162353   0.000026
    23  H   -0.157741   0.000044
    24  H   -0.192947  -0.000001
    25  H   -0.214301   0.000130
    26  C    0.986836   0.002839
    27  H   -0.143859   0.000423
    28  H   -0.060485   0.000021
    29  H   -0.088591  -0.000051
    30  H   -0.114385   0.000340
    31  H   -0.205642   0.000925
    32  H    0.034896   0.000094
    33  H    0.059159  -0.000600
    34  H    0.034326  -0.000177
    35  H    0.059168   0.002284
    36  H    0.041477  -0.000353
    37  H    0.047846  -0.000186
    38  O   -0.701753  -0.000742
    39  O   -0.662317   0.000660
    40  C    0.420791  -0.001118
    41  C    0.059227   0.000998
    42  H   -0.040481   0.000012
    43  H   -0.049013  -0.000001
    44  H   -0.004612   0.000061
    45  H    0.021998  -0.000010
    46  H    0.028602  -0.000626
 Sum of Mulliken charges =  -0.00000   5.00000

 Dipole moment (field-independent basis, Debye):
    X=              4.1506    Y=             -9.5151    Z=             -5.2955  Tot=             11.6536
 Quadrupole moment (field-independent basis, Debye-Ang):
   XX=           -202.2847   YY=           -150.2812   ZZ=           -167.1486
   XY=             16.9144   XZ=              8.9994   YZ=              7.5004

 Normal termination of Gaussian 16 at Sun Jun 20 06:53:34 2021.
