 Gaussian 16, Revision A.03,

 -----------------------------------------------------------
 #p opt=modredundant freq=noraman ub3lyp jul-cc-pvdz pop=cm5
 -----------------------------------------------------------

 -----
 title
 -----
 Symbolic Z-matrix:
 Charge =  0 Multiplicity = 6

 SCF Done:  E(UB3LYP) =  -3531.39760105     A.U. after   26 cycles
 SCF Done:  E(UB3LYP) =  -3531.39754262     A.U. after   18 cycles
 SCF Done:  E(UB3LYP) =  -3531.38632584     A.U. after   19 cycles
 SCF Done:  E(UB3LYP) =  -3531.38550189     A.U. after   18 cycles
 SCF Done:  E(UB3LYP) =  -3531.39770721     A.U. after   15 cycles
 SCF Done:  E(UB3LYP) =  -3531.39754033     A.U. after   18 cycles
 SCF Done:  E(UB3LYP) =  -3531.39794793     A.U. after   16 cycles
 SCF Done:  E(UB3LYP) =  -3531.39800182     A.U. after   18 cycles
 SCF Done:  E(UB3LYP) =  -3531.39817863     A.U. after   17 cycles
 SCF Done:  E(UB3LYP) =  -3531.39817332     A.U. after   16 cycles
 SCF Done:  E(UB3LYP) =  -3531.39820285     A.U. after   13 cycles
 SCF Done:  E(UB3LYP) =  -3531.39820506     A.U. after   13 cycles
 SCF Done:  E(UB3LYP) =  -3531.39820562     A.U. after   11 cycles
 SCF Done:  E(UB3LYP) =  -3531.39820612     A.U. after   11 cycles
 SCF Done:  E(UB3LYP) =  -3531.39820646     A.U. after   10 cycles
 SCF Done:  E(UB3LYP) =  -3531.39820655     A.U. after   11 cycles
 SCF Done:  E(UB3LYP) =  -3531.39820641     A.U. after   10 cycles
 Optimization completed.
    -- Stationary point found.
 Normal termination of Gaussian 16 at Sun Jun 20 05:11:05 2021.

 ----------------------------------------------------------------------
 #P Geom=AllCheck Guess=TCheck SCRF=Check GenChk UB3LYP/Jul-CC-pVDZ Fre
 q
 ----------------------------------------------------------------------

 Structure from the checkpoint file:  "checkpoint.chk"
 -----
 title
 -----
 Charge =  0 Multiplicity = 6

 SCF Done:  E(UB3LYP) =  -3531.39820641     A.U. after    1 cycles

  Exact polarizability: 325.176  13.700 293.428  14.886  15.393 299.817
 Approx polarizability: 506.376  37.861 446.165  17.415  31.211 500.455

 ******    1 imaginary frequencies (negative Signs) ******

                      1                      2                      3
                      A                      A                      A
 Frequencies --   -617.5693                12.3958                26.2071
 Red. masses --      9.6849                 5.3089                 6.8181
 Frc consts  --      2.1763                 0.0005                 0.0028
 IR Inten    --    223.0355                 1.4889                 0.2591

                      4                      5                      6
                      A                      A                      A
 Frequencies --     35.8491                44.9067                49.5128
 Red. masses --      7.8119                 5.4953                 3.3999
 Frc consts  --      0.0059                 0.0065                 0.0049
 IR Inten    --      0.2423                 0.6777                 2.2276

                      7                      8                      9
                      A                      A                      A
 Frequencies --     53.1463                63.2676                68.3469
 Red. masses --      3.5425                 7.2536                 4.1399
 Frc consts  --      0.0059                 0.0171                 0.0114
 IR Inten    --      0.6804                 0.8590                 1.4327

                     10                     11                     12
                      A                      A                      A
 Frequencies --     83.9854                92.8270               103.6391
 Red. masses --     10.6796                 7.3603                 7.3355
 Frc consts  --      0.0444                 0.0374                 0.0464
 IR Inten    --      0.9070                 1.0912                 0.6372

                     13                     14                     15
                      A                      A                      A
 Frequencies --    107.3022               110.9785               120.5365
 Red. masses --      6.7971                 4.1425                18.0663
 Frc consts  --      0.0461                 0.0301                 0.1547
 IR Inten    --      5.6338                 2.2252                 0.6701

                     16                     17                     18
                      A                      A                      A
 Frequencies --    130.2185               148.2779               174.1925
 Red. masses --      7.3003                 4.3925                 2.7350
 Frc consts  --      0.0729                 0.0569                 0.0489
 IR Inten    --      2.3044                 1.5229                 3.9227

                     19                     20                     21
                      A                      A                      A
 Frequencies --    184.6070               193.9683               198.3001
 Red. masses --      1.3782                 1.9801                 3.4591
 Frc consts  --      0.0277                 0.0439                 0.0801
 IR Inten    --      4.0995                 2.1221                 1.3151

                     22                     23                     24
                      A                      A                      A
 Frequencies --    212.4032               215.7075               232.4298
 Red. masses --      2.9433                 1.7165                 2.1535
 Frc consts  --      0.0782                 0.0471                 0.0685
 IR Inten    --      0.6755                 0.7244                 6.9870

                     25                     26                     27
                      A                      A                      A
 Frequencies --    246.6910               261.5950               294.1724
 Red. masses --      2.3923                 2.0334                 4.1859
 Frc consts  --      0.0858                 0.0820                 0.2134
 IR Inten    --      7.6069                 4.5953                 4.3549

                     28                     29                     30
                      A                      A                      A
 Frequencies --    316.2817               322.7836               335.0318
 Red. masses --      3.0343                 3.2617                28.3631
 Frc consts  --      0.1788                 0.2002                 1.8758
 IR Inten    --     19.5826                25.1681                53.7903

                     31                     32                     33
                      A                      A                      A
 Frequencies --    353.9800               377.4491               380.1550
 Red. masses --      7.3755                 8.1823                 6.1546
 Frc consts  --      0.5445                 0.6868                 0.5240
 IR Inten    --      3.2563                47.3124                43.8522

                     34                     35                     36
                      A                      A                      A
 Frequencies --    390.9513               404.9839               411.0421
 Red. masses --     29.5908                 2.9610                 2.8879
 Frc consts  --      2.6647                 0.2861                 0.2875
 IR Inten    --     75.3693                10.9205                 5.1335

                     37                     38                     39
                      A                      A                      A
 Frequencies --    430.3330               443.1785               468.1419
 Red. masses --      3.2360                 4.2551                 3.5856
 Frc consts  --      0.3531                 0.4924                 0.4630
 IR Inten    --     17.5622                42.1525                10.4977

                     40                     41                     42
                      A                      A                      A
 Frequencies --    508.4821               514.2387               569.3982
 Red. masses --      2.6096                 3.4178                 3.4292
 Frc consts  --      0.3975                 0.5325                 0.6551
 IR Inten    --      3.6760                 5.2048                55.6819

                     43                     44                     45
                      A                      A                      A
 Frequencies --    604.4512               626.8818               642.3331
 Red. masses --      3.3374                 6.0828                 4.6721
 Frc consts  --      0.7184                 1.4084                 1.1357
 IR Inten    --     20.1212                 2.5300                86.4598

                     46                     47                     48
                      A                      A                      A
 Frequencies --    694.8011               704.0627               759.4736
 Red. masses --      1.7487                 4.3551                 4.3440
 Frc consts  --      0.4974                 1.2720                 1.4763
 IR Inten    --     35.9175                46.2620                 9.1436

                     49                     50                     51
                      A                      A                      A
 Frequencies --    765.0355               794.4799               802.8743
 Red. masses --      2.4713                 2.6505                 1.3207
 Frc consts  --      0.8522                 0.9857                 0.5016
 IR Inten    --      5.5781                 3.5660                 8.0182

                     52                     53                     54
                      A                      A                      A
 Frequencies --    822.6458               840.8874               860.5321
 Red. masses --      3.1809                 1.2596                 2.1314
 Frc consts  --      1.2683                 0.5248                 0.9299
 IR Inten    --     26.1604                 0.8027                11.4414

                     55                     56                     57
                      A                      A                      A
 Frequencies --    866.5660               876.8804               904.8178
 Red. masses --      1.5190                 1.8195                 1.7378
 Frc consts  --      0.6721                 0.8243                 0.8383
 IR Inten    --     16.5712                10.5849                17.1021

                     58                     59                     60
                      A                      A                      A
 Frequencies --    933.5554               938.3843               958.4560
 Red. masses --      1.4838                 1.4670                 3.0550
 Frc consts  --      0.7619                 0.7611                 1.6535
 IR Inten    --     16.1805                 2.8098                28.6570

                     61                     62                     63
                      A                      A                      A
 Frequencies --    984.8323               992.4714               995.7272
 Red. masses --      1.4065                 1.9660                 2.9591
 Frc consts  --      0.8037                 1.1410                 1.7286
 IR Inten    --      1.8422                18.1790                12.1928

                     64                     65                     66
                      A                      A                      A
 Frequencies --   1001.1439              1006.6860              1014.2847
 Red. masses --      1.9832                 2.2001                 1.3832
 Frc consts  --      1.1712                 1.3136                 0.8384
 IR Inten    --      2.6124                 2.9315                 2.6252

                     67                     68                     69
                      A                      A                      A
 Frequencies --   1034.9561              1042.5806              1045.3077
 Red. masses --      2.2825                 2.2751                 2.4297
 Frc consts  --      1.4405                 1.4570                 1.5642
 IR Inten    --     98.8669                23.5695                16.0462

                     70                     71                     72
                      A                      A                      A
 Frequencies --   1064.2379              1086.1846              1106.5474
 Red. masses --      2.2299                 1.9102                 1.6662
 Frc consts  --      1.4880                 1.3278                 1.2020
 IR Inten    --      0.8259                11.6271                27.2675

                     73                     74                     75
                      A                      A                      A
 Frequencies --   1130.1039              1133.8227              1153.7407
 Red. masses --      2.3306                 2.2420                 2.8591
 Frc consts  --      1.7537                 1.6981                 2.2423
 IR Inten    --     17.0854                10.3623                70.4101

                     76                     77                     78
                      A                      A                      A
 Frequencies --   1162.7604              1171.9902              1175.6714
 Red. masses --      1.6472                 1.6354                 1.0908
 Frc consts  --      1.3121                 1.3235                 0.8883
 IR Inten    --     56.4795                 6.2018                 0.7871

                     79                     80                     81
                      A                      A                      A
 Frequencies --   1201.0857              1209.3631              1230.2196
 Red. masses --      1.2632                 1.4947                 2.4119
 Frc consts  --      1.0737                 1.2880                 2.1507
 IR Inten    --     23.7669                41.8910               229.5617

                     82                     83                     84
                      A                      A                      A
 Frequencies --   1254.2920              1256.8763              1287.0342
 Red. masses --      2.0397                 2.2447                 1.1208
 Frc consts  --      1.8906                 2.0893                 1.0938
 IR Inten    --     55.4715               149.0774                 4.0208

                     85                     86                     87
                      A                      A                      A
 Frequencies --   1318.3189              1322.5610              1332.0196
 Red. masses --      1.3925                 1.4539                 1.6702
 Frc consts  --      1.4259                 1.4983                 1.7459
 IR Inten    --     26.1089                34.5310                37.6609

                     88                     89                     90
                      A                      A                      A
 Frequencies --   1338.1535              1357.2247              1360.4240
 Red. masses --      1.4986                 1.5091                 3.1868
 Frc consts  --      1.5811                 1.6378                 3.4750
 IR Inten    --      8.1308                66.4384                 8.5617

                     91                     92                     93
                      A                      A                      A
 Frequencies --   1367.7983              1385.1718              1388.4046
 Red. masses --      1.4347                 1.4253                 1.3411
 Frc consts  --      1.5814                 1.6113                 1.5232
 IR Inten    --     41.5447                35.7029                51.7184

                     94                     95                     96
                      A                      A                      A
 Frequencies --   1398.8759              1416.1957              1440.6174
 Red. masses --      1.3113                 1.4277                 1.1521
 Frc consts  --      1.5119                 1.6870                 1.4088
 IR Inten    --     44.8629                 4.7873                39.9478

                     97                     98                     99
                      A                      A                      A
 Frequencies --   1448.2130              1468.9270              1473.2808
 Red. masses --      1.1249                 2.2414                 1.0384
 Frc consts  --      1.3900                 2.8495                 1.3279
 IR Inten    --      2.9925                14.2942                 5.2207

                    100                    101                    102
                      A                      A                      A
 Frequencies --   1475.8552              1486.7745              1488.7850
 Red. masses --      1.1463                 1.1039                 1.0540
 Frc consts  --      1.4711                 1.4377                 1.3765
 IR Inten    --      3.3517                20.1883                 2.7244

                    103                    104                    105
                      A                      A                      A
 Frequencies --   1499.2836              1504.5167              1507.0664
 Red. masses --      1.1531                 1.2217                 1.0844
 Frc consts  --      1.5271                 1.6294                 1.4511
 IR Inten    --      7.2329                57.6954                 6.4292

                    106                    107                    108
                      A                      A                      A
 Frequencies --   1516.1418              1528.6034              1616.4443
 Red. masses --      1.9390                 2.1056                 5.5080
 Frc consts  --      2.6261                 2.8987                 8.4795
 IR Inten    --      1.8705                97.0394                 0.5114

                    109                    110                    111
                      A                      A                      A
 Frequencies --   1638.9135              1763.4621              3002.4959
 Red. masses --      5.6435                11.5547                 1.0525
 Frc consts  --      8.9312                21.1710                 5.5902
 IR Inten    --     19.6859               239.6852                 2.3793

                    112                    113                    114
                      A                      A                      A
 Frequencies --   3012.2589              3041.2872              3054.9024
 Red. masses --      1.0503                 1.0361                 1.0626
 Frc consts  --      5.6148                 5.6465                 5.8427
 IR Inten    --      5.2826                20.4840                24.4182

                    115                    116                    117
                      A                      A                      A
 Frequencies --   3060.4372              3070.8220              3074.0029
 Red. masses --      1.0595                 1.0631                 1.0847
 Frc consts  --      5.8470                 5.9066                 6.0391
 IR Inten    --     15.0466                28.0785                 1.2574

                    118                    119                    120
                      A                      A                      A
 Frequencies --   3098.2006              3099.9309              3109.5987
 Red. masses --      1.1019                 1.0818                 1.1049
 Frc consts  --      6.2316                 6.1250                 6.2950
 IR Inten    --      5.3012                 3.4820                10.8364

                    121                    122                    123
                      A                      A                      A
 Frequencies --   3117.1887              3118.8296              3122.2464
 Red. masses --      1.1025                 1.0850                 1.0954
 Frc consts  --      6.3118                 6.2183                 6.2917
 IR Inten    --     16.0003                 4.0747                14.9448

                    124                    125                    126
                      A                      A                      A
 Frequencies --   3140.6472              3156.8645              3170.0327
 Red. masses --      1.1043                 1.1065                 1.0886
 Frc consts  --      6.4178                 6.4972                 6.4456
 IR Inten    --     12.6079                 0.7084                 4.7272

                    127                    128                    129
                      A                      A                      A
 Frequencies --   3172.8567              3175.5975              3185.3024
 Red. masses --      1.0859                 1.1047                 1.0911
 Frc consts  --      6.4407                 6.5634                 6.5224
 IR Inten    --      0.3725                 2.6957                 7.5835

                    130                    131                    132
                      A                      A                      A
 Frequencies --   3195.5423              3227.6431              3233.3797
 Red. masses --      1.0970                 1.0918                 1.0918
 Frc consts  --      6.5998                 6.7017                 6.7254
 IR Inten    --     15.0908                 1.9145                 1.8053

 - Thermochemistry -
 -------------------
 Temperature   298.150 Kelvin.  Pressure   1.00000 Atm.
 Atom     1 has atomic number  6 and mass  12.00000

 Molecular mass:   434.99839 amu.
 Principal axes and moments of inertia in atomic units:
                           1         2         3
     Eigenvalues --  8982.23357********************
           X            0.99964   0.01853   0.01949
           Y           -0.01903   0.99949   0.02581
           Z           -0.01901  -0.02617   0.99948
 This molecule is an asymmetric top.
 Rotational symmetry number  1.
 Warning -- assumption of classical behavior for rotation
           may cause significant error
 Rotational temperatures (Kelvin)      0.00964     0.00797     0.00696
 Rotational constants (GHZ):           0.20092     0.16600     0.14503
    1 imaginary frequencies ignored.
 Zero-point vibrational energy     940940.9 (Joules/Mol)
                                  224.89027 (Kcal/Mol)
 Warning -- explicit consideration of  42 degrees of freedom as
           vibrations may cause significant error
 Vibrational temperatures:     17.83    37.71    51.58    64.61    71.24
          (Kelvin)             76.47    91.03    98.34   120.84   133.56
                              149.11   154.38   159.67   173.43   187.36
                              213.34   250.62   265.61   279.08   285.31
                              305.60   310.36   334.41   354.93   376.38
                              423.25   455.06   464.41   482.04   509.30
                              543.07   546.96   562.49   582.68   591.40
                              619.15   637.64   673.55   731.59   739.87
                              819.24   869.67   901.94   924.17   999.66
                             1012.99  1092.71  1100.72  1143.08  1155.16
                             1183.60  1209.85  1238.11  1246.80  1261.64
                             1301.83  1343.18  1350.13  1379.00  1416.95
                             1427.94  1432.63  1440.42  1448.40  1459.33
                             1489.07  1500.04  1503.96  1531.20  1562.78
                             1592.07  1625.97  1631.32  1659.98  1672.95
                             1686.23  1691.53  1728.09  1740.00  1770.01
                             1804.65  1808.36  1851.76  1896.77  1902.87
                             1916.48  1925.30  1952.74  1957.35  1967.96
                             1992.95  1997.60  2012.67  2037.59  2072.73
                             2083.66  2113.46  2119.72  2123.43  2139.14
                             2142.03  2157.13  2164.66  2168.33  2181.39
                             2199.32  2325.70  2358.03  2537.23  4319.92
                             4333.97  4375.73  4395.32  4403.29  4418.23
                             4422.80  4457.62  4460.11  4474.02  4484.94
                             4487.30  4492.22  4518.69  4542.02  4560.97
                             4565.03  4568.98  4582.94  4597.67  4643.86
                             4652.11

 Zero-point correction=                           0.358385 (Hartree/Particle)
 Thermal correction to Energy=                    0.385802
 Thermal correction to Enthalpy=                  0.386746
 Thermal correction to Gibbs Free Energy=         0.295836
 Sum of electronic and zero-point Energies=          -3531.039821
 Sum of electronic and thermal Energies=             -3531.012405
 Sum of electronic and thermal Enthalpies=           -3531.011461
 Sum of electronic and thermal Free Energies=        -3531.102371

                     E (Thermal)             CV                S
                      KCal/Mol        Cal/Mol-Kelvin    Cal/Mol-Kelvin
 Total                  242.094             97.922            191.336
 Electronic               0.000              0.000              3.561
 Translational            0.889              2.981             44.100
 Rotational               0.889              2.981             35.451
 Vibrational            240.317             91.960            108.225
 Vibration     1          0.593              1.987              7.584
 Vibration     2          0.593              1.985              6.098
 Vibration     3          0.594              1.982              5.476
 Vibration     4          0.595              1.979              5.030
 Vibration     5          0.595              1.978              4.837
 Vibration     6          0.596              1.976              4.697
 Vibration     7          0.597              1.972              4.353
 Vibration     8          0.598              1.969              4.200
 Vibration     9          0.601              1.960              3.796
 Vibration    10          0.602              1.954              3.600
 Vibration    11          0.605              1.946              3.385
 Vibration    12          0.606              1.943              3.317
 Vibration    13          0.607              1.940              3.252
 Vibration    14          0.609              1.932              3.092
 Vibration    15          0.612              1.923              2.943
 Vibration    16          0.618              1.905              2.694
 Vibration    17          0.627              1.874              2.390
 Vibration    18          0.631              1.861              2.281
 Vibration    19          0.635              1.848              2.190
 Vibration    20          0.637              1.842              2.149
 Vibration    21          0.643              1.822              2.023
 Vibration    22          0.645              1.817              1.995
 Vibration    23          0.653              1.791              1.860
 Vibration    24          0.661              1.768              1.754
 Vibration    25          0.669              1.743              1.651
 Vibration    26          0.689              1.685              1.450
 Vibration    27          0.703              1.643              1.329
 Vibration    28          0.708              1.630              1.296
 Vibration    29          0.716              1.606              1.236
 Vibration    30          0.730              1.567              1.148
 Vibration    31          0.748              1.518              1.049
 Vibration    32          0.750              1.512              1.039
 Vibration    33          0.759              1.490              0.997
 Vibration    34          0.770              1.459              0.945
 Vibration    35          0.775              1.446              0.923
 Vibration    36          0.792              1.404              0.858
 Vibration    37          0.803              1.376              0.817
 Vibration    38          0.825              1.321              0.743
 Vibration    39          0.864              1.231              0.637
 Vibration    40          0.869              1.218              0.623
 Vibration    41          0.925              1.097              0.505
 Vibration    42          0.963              1.022              0.442

                           ! Non-Optimized Parameters !
 Normal termination of Gaussian 16 at Sun Jun 20 09:09:08 2021.

 ----------------------------------------------------------------------
 #p ub3lyp jul-cc-pvdz pop=cm5 scrf=(pcm,solvent=dichloroethane) guess=
 read geom=allcheck
 ----------------------------------------------------------------------

 Structure from the checkpoint file:  "checkpoint.chk"
 -----
 title
 -----
 Charge =  0 Multiplicity = 6

 SCF Done:  E(UB3LYP) =  -3531.42022836     A.U. after   20 cycles
 Normal termination of Gaussian 16 at Sun Jun 20 09:37:46 2021.
 Gaussian 16:  ES64L-G16RevA.03 25-Dec-2016

 ----------------------------------------------------------------------
 #p ub3lyp jul-cc-pvdz pop=cm5 scrf=(pcm,solvent=water) guess=read geom
 =allcheck
 ----------------------------------------------------------------------

 Structure from the checkpoint file:  "checkpoint.chk"
 -----
 title
 -----
 Charge =  0 Multiplicity = 6

                         Standard orientation:
 ---------------------------------------------------------------------
 Center     Atomic      Atomic             Coordinates (Angstroms)
 Number     Number       Type             X           Y           Z
 ---------------------------------------------------------------------
      1          6           0        3.172566   -0.617628    0.514458
      2          6           0        1.781414   -0.697742    0.735484
      3          6           0        1.313330   -0.761315    2.061870
      4          6           0        2.207969   -0.740444    3.134184
      5          6           0        3.582951   -0.666750    2.901682
      6          6           0        4.061193   -0.603491    1.586151
      7          6           0        0.797857   -0.713748   -0.390143
      8          6           0        1.057502    0.150665   -1.661010
      9          6           0        1.868776   -0.622911   -2.710052
     10          6           0        1.316709   -2.060934   -2.737975
     11          6           0        1.034190   -2.473204   -1.311261
     12          6           0       -0.258651   -2.745952   -0.797980
     13          6           0       -1.489035   -2.672267   -1.635610
     14          8           0       -0.501148   -0.817109   -0.003774
     15         26           0       -2.025831    0.279682    0.411241
     16         17           0       -2.714530    1.156345   -1.511404
     17          6           0       -0.379608   -3.460118    0.503343
     18         17           0       -1.552159    1.758835    1.985183
     19         17           0       -3.471406   -1.234188    1.190593
     20          1           0        0.243942   -0.795323    2.251280
     21          1           0        1.823538   -0.774287    4.154191
     22          1           0        4.281976   -0.651298    3.739363
     23          1           0        5.132886   -0.535198    1.395559
     24          1           0        3.569182   -0.552739   -0.495273
     25          1           0        0.053828    0.363659   -2.051184
     26          6           0        1.698194    1.503271   -1.333119
     27          1           0        1.789887   -0.133508   -3.689933
     28          1           0        2.932653   -0.614594   -2.445065
     29          1           0        0.407745   -2.100100   -3.350856
     30          1           0        2.040243   -2.746505   -3.200763
     31          1           0        1.860291   -2.921095   -0.759016
     32          1           0       -0.444511   -4.535779    0.257688
     33          1           0        0.501081   -3.320414    1.139798
     34          1           0       -1.295172   -3.180554    1.035732
     35          1           0       -1.541244   -3.631308   -2.183788
     36          1           0       -2.389629   -2.578914   -1.020957
     37          1           0       -1.466930   -1.869263   -2.376807
     38          8           0        0.794023    2.345048   -0.823163
     39          8           0        2.864351    1.775610   -1.532654
     40          6           0        1.262410    3.680493   -0.465232
     41          6           0        0.046191    4.555592   -0.245317
     42          1           0        1.876325    3.583335    0.440932
     43          1           0        1.904028    4.044807   -1.277309
     44          1           0        0.378512    5.564685    0.039200
     45          1           0       -0.552134    4.632390   -1.163412
     46          1           0       -0.588835    4.153909    0.553934
 ---------------------------------------------------------------------

 SCF Done:  E(UB3LYP) =  -3531.42449618     A.U. after   17 cycles

 The electronic state is 6-A.
 Alpha  occ. eigenvalues -- -256.19998-101.51910-101.51872-101.51812 -30.19370
 Alpha  occ. eigenvalues --  -26.04677 -26.04606 -26.04533 -19.20507 -19.16609
 Alpha  occ. eigenvalues --  -19.15441 -10.33277 -10.32054 -10.29517 -10.24837
 Alpha  occ. eigenvalues --  -10.22490 -10.22055 -10.22001 -10.20909 -10.20866
 Alpha  occ. eigenvalues --  -10.20782 -10.20568 -10.20505 -10.20503 -10.20471
 Alpha  occ. eigenvalues --  -10.20263 -10.20210 -10.18462  -9.43638  -9.43587
 Alpha  occ. eigenvalues --   -9.43530  -7.19500  -7.19450  -7.19396  -7.19184
 Alpha  occ. eigenvalues --   -7.19180  -7.19134  -7.19127  -7.19074  -7.19066
 Alpha  occ. eigenvalues --   -3.67079  -2.44605  -2.44392  -2.44290  -1.12367
 Alpha  occ. eigenvalues --   -1.05416  -1.03850  -0.87850  -0.86993  -0.83876
 Alpha  occ. eigenvalues --   -0.79886  -0.79192  -0.79086  -0.78735  -0.78177
 Alpha  occ. eigenvalues --   -0.76434  -0.75104  -0.72923  -0.71209  -0.66597
 Alpha  occ. eigenvalues --   -0.64571  -0.62265  -0.61609  -0.59384  -0.57187
 Alpha  occ. eigenvalues --   -0.55985  -0.54340  -0.52819  -0.51473  -0.50730
 Alpha  occ. eigenvalues --   -0.49969  -0.49660  -0.48826  -0.47914  -0.47716
 Alpha  occ. eigenvalues --   -0.47416  -0.47260  -0.46718  -0.46369  -0.46056
 Alpha  occ. eigenvalues --   -0.44644  -0.44592  -0.43612  -0.43398  -0.42843
 Alpha  occ. eigenvalues --   -0.42510  -0.41431  -0.40945  -0.40076  -0.40002
 Alpha  occ. eigenvalues --   -0.39552  -0.38931  -0.38260  -0.37724  -0.37245
 Alpha  occ. eigenvalues --   -0.36863  -0.36797  -0.36109  -0.35987  -0.35766
 Alpha  occ. eigenvalues --   -0.34440  -0.34158  -0.33567  -0.32071  -0.31814
 Alpha  occ. eigenvalues --   -0.30836  -0.30753  -0.30446  -0.30317  -0.29842
 Alpha  occ. eigenvalues --   -0.29407  -0.29043  -0.28365  -0.27170  -0.24980
 Alpha virt. eigenvalues --   -0.11310  -0.03114  -0.02872  -0.01590  -0.01301
 Alpha virt. eigenvalues --   -0.00132  -0.00008   0.00056   0.01460   0.01619
 Alpha virt. eigenvalues --    0.01799   0.01941   0.02550   0.03256   0.03410

  Beta  occ. eigenvalues -- -256.19813-101.51733-101.51701-101.51646 -30.10453
  Beta  occ. eigenvalues --  -25.97222 -25.97150 -25.97145 -19.20506 -19.15977
  Beta  occ. eigenvalues --  -19.15438 -10.33278 -10.32060 -10.29524 -10.24837
  Beta  occ. eigenvalues --  -10.22476 -10.21984 -10.21968 -10.20909 -10.20868
  Beta  occ. eigenvalues --  -10.20786 -10.20566 -10.20503 -10.20500 -10.20470
  Beta  occ. eigenvalues --  -10.20267 -10.20205 -10.18461  -9.43465  -9.43418
  Beta  occ. eigenvalues --   -9.43366  -7.19212  -7.19164  -7.19108  -7.18948
  Beta  occ. eigenvalues --   -7.18939  -7.18906  -7.18900  -7.18854  -7.18851
  Beta  occ. eigenvalues --   -3.46279  -2.22598  -2.22509  -2.22416  -1.12364
  Beta  occ. eigenvalues --   -1.04217  -1.03846  -0.87761  -0.86880  -0.83839
  Beta  occ. eigenvalues --   -0.78779  -0.78751  -0.78124  -0.77933  -0.77901
  Beta  occ. eigenvalues --   -0.76429  -0.75051  -0.72907  -0.71059  -0.66489
  Beta  occ. eigenvalues --   -0.64522  -0.62229  -0.61571  -0.59076  -0.56980
  Beta  occ. eigenvalues --   -0.55601  -0.54264  -0.51935  -0.51459  -0.50272
  Beta  occ. eigenvalues --   -0.49931  -0.48887  -0.48301  -0.47857  -0.47089
  Beta  occ. eigenvalues --   -0.45818  -0.44826  -0.43582  -0.43422  -0.42915
  Beta  occ. eigenvalues --   -0.42452  -0.41443  -0.40918  -0.40064  -0.40006
  Beta  occ. eigenvalues --   -0.39537  -0.38908  -0.38030  -0.37724  -0.37535
  Beta  occ. eigenvalues --   -0.37033  -0.36815  -0.36052  -0.36003  -0.35812
  Beta  occ. eigenvalues --   -0.35492  -0.35441  -0.34396  -0.33020  -0.32715
  Beta  occ. eigenvalues --   -0.32249  -0.32073  -0.31867  -0.30973  -0.30193
  Beta  occ. eigenvalues --   -0.29370  -0.29066  -0.28562  -0.27167  -0.25118
  Beta virt. eigenvalues --   -0.13965  -0.13600  -0.12724  -0.12627  -0.12092
  Beta virt. eigenvalues --   -0.11031  -0.03024  -0.02841  -0.01540  -0.01218
  Beta virt. eigenvalues --   -0.00091   0.00028   0.00084   0.01493   0.01640

 Mulliken charges and spin densities:
               1          2
     1  C    0.196822   0.001224
     2  C    2.773557  -0.004787
     3  C   -0.434591  -0.012047
     4  C    0.052137   0.005183
     5  C    0.266663  -0.000932
     6  C   -0.095517   0.001019
     7  C   -2.197354  -0.004764
     8  C    0.411047   0.012253
     9  C    0.472202   0.004620
    10  C    0.640545  -0.003968
    11  C    0.682660   0.062572
    12  C   -0.576437  -0.011485
    13  C    0.331167   0.001505
    14  O   -0.524244   0.199165
    15  Fe   0.696722   4.051871
    16  Cl  -0.548643   0.226313
    17  C    0.377283  -0.000482
    18  Cl  -0.504605   0.239021
    19  Cl  -0.538336   0.227389
    20  H   -0.255545   0.002064
    21  H   -0.160227  -0.000007
    22  H   -0.157989   0.000023
    23  H   -0.156497   0.000168
    24  H   -0.252558  -0.000100
    25  H   -0.192641  -0.000490
    26  C    0.849845   0.001861
    27  H   -0.133246   0.000301
    28  H   -0.015237  -0.000008
    29  H   -0.079863   0.000217
    30  H   -0.108036   0.001634
    31  H   -0.263989  -0.001504
    32  H    0.039174   0.000450
    33  H    0.045969   0.000010
    34  H    0.051860  -0.000295
    35  H    0.033984  -0.000386
    36  H    0.037092   0.000316
    37  H    0.084645  -0.000608
    38  O   -0.658975   0.002705
    39  O   -0.631217   0.001049
    40  C    0.432574   0.000579
    41  C    0.037837  -0.001441
    42  H   -0.036539   0.000020
    43  H   -0.037282   0.000040
    44  H   -0.008156   0.000041
    45  H    0.025298   0.000059
    46  H    0.028645  -0.000370
 Sum of Mulliken charges =  -0.00000   5.00000

 Dipole moment (field-independent basis, Debye):
    X=              9.2181    Y=             -8.5144    Z=             -3.5289  Tot=             13.0354
 Quadrupole moment (field-independent basis, Debye-Ang):
   XX=           -199.5852   YY=           -152.0051   ZZ=           -170.0694
   XY=             -0.7907   XZ=             11.5268   YZ=              7.8544

 Normal termination of Gaussian 16 at Sun Jun 20 10:02:02 2021.
