 Gaussian 16, Revision A.03,

 -----------------------------------------------------------
 #p opt=modredundant freq=noraman ub3lyp jul-cc-pvdz pop=cm5
 -----------------------------------------------------------

 -----
 title
 -----
 Symbolic Z-matrix:
 Charge =  0 Multiplicity = 6

 SCF Done:  E(UB3LYP) =  -3531.43951373     A.U. after   22 cycles
 SCF Done:  E(UB3LYP) =  -3531.43978522     A.U. after   15 cycles
 SCF Done:  E(UB3LYP) =  -3531.43927829     A.U. after   15 cycles
 SCF Done:  E(UB3LYP) =  -3531.43999350     A.U. after   14 cycles
 SCF Done:  E(UB3LYP) =  -3531.44001204     A.U. after   14 cycles
 SCF Done:  E(UB3LYP) =  -3531.44001927     A.U. after   13 cycles
 SCF Done:  E(UB3LYP) =  -3531.44002093     A.U. after   12 cycles
 SCF Done:  E(UB3LYP) =  -3531.44002032     A.U. after   12 cycles
 SCF Done:  E(UB3LYP) =  -3531.44001969     A.U. after   12 cycles
 SCF Done:  E(UB3LYP) =  -3531.44002084     A.U. after   12 cycles
 SCF Done:  E(UB3LYP) =  -3531.44002021     A.U. after   12 cycles
 SCF Done:  E(UB3LYP) =  -3531.44001995     A.U. after   10 cycles
 SCF Done:  E(UB3LYP) =  -3531.44002097     A.U. after   12 cycles
 SCF Done:  E(UB3LYP) =  -3531.44002000     A.U. after   12 cycles
 Optimization completed.
    -- Stationary point found.
 Normal termination of Gaussian 16 at Sun Jun 20 02:08:47 2021.

 ----------------------------------------------------------------------
 #P Geom=AllCheck Guess=TCheck SCRF=Check GenChk UB3LYP/Jul-CC-pVDZ Fre
 q
 ----------------------------------------------------------------------

 Structure from the checkpoint file:  "checkpoint.chk"
 -----
 title
 -----
 Charge =  0 Multiplicity = 6

 SCF Done:  E(UB3LYP) =  -3531.44002000     A.U. after    2 cycles

  Exact polarizability: 279.048   4.427 288.205  23.246  -1.201 283.848
 Approx polarizability: 408.188   2.728 452.954  43.104  -8.137 449.688

                      1                      2                      3
                      A                      A                      A
 Frequencies --     17.6414                21.7020                30.2632
 Red. masses --      5.4645                 5.6490                 5.7415
 Frc consts  --      0.0010                 0.0016                 0.0031
 IR Inten    --      0.4107                 0.5873                 0.1247

                      4                      5                      6
                      A                      A                      A
 Frequencies --     39.9420                46.7373                62.4026
 Red. masses --      4.7919                 5.0027                 2.7900
 Frc consts  --      0.0045                 0.0064                 0.0064
 IR Inten    --      0.1115                 1.6859                 0.3370

                      7                      8                      9
                      A                      A                      A
 Frequencies --     69.0629                75.5607                79.2468
 Red. masses --      4.0883                 9.9408                 6.0397
 Frc consts  --      0.0115                 0.0334                 0.0223
 IR Inten    --      0.1635                 0.3068                 0.8647

                     10                     11                     12
                      A                      A                      A
 Frequencies --     86.5822                95.1508               113.5597
 Red. masses --     10.9177                 5.4047                14.0700
 Frc consts  --      0.0482                 0.0288                 0.1069
 IR Inten    --      1.2416                 0.4765                 2.6049

                     13                     14                     15
                      A                      A                      A
 Frequencies --    114.9479               117.9191               125.6581
 Red. masses --      9.2561                 5.9090                 4.7596
 Frc consts  --      0.0721                 0.0484                 0.0443
 IR Inten    --      3.1971                 0.2092                 1.8798

                     16                     17                     18
                      A                      A                      A
 Frequencies --    140.6438               161.5998               183.3259
 Red. masses --      4.1520                 2.7576                 5.3061
 Frc consts  --      0.0484                 0.0424                 0.1051
 IR Inten    --      3.2687                 0.5805                12.6298

                     19                     20                     21
                      A                      A                      A
 Frequencies --    192.5333               220.6860               226.3141
 Red. masses --      3.2709                 3.2409                 1.2660
 Frc consts  --      0.0714                 0.0930                 0.0382
 IR Inten    --      2.6445                 4.2112                 1.5748

                     22                     23                     24
                      A                      A                      A
 Frequencies --    242.9323               258.7309               260.5186
 Red. masses --      2.6064                 1.7528                 2.1253
 Frc consts  --      0.0906                 0.0691                 0.0850
 IR Inten    --      0.5827                 0.4897                 0.3865

                     25                     26                     27
                      A                      A                      A
 Frequencies --    272.2798               298.8268               310.0849
 Red. masses --      1.3522                 3.2179                 3.1255
 Frc consts  --      0.0591                 0.1693                 0.1771
 IR Inten    --      1.4765                 2.5579                 1.2780

                     28                     29                     30
                      A                      A                      A
 Frequencies --    338.0890               349.7116               364.7922
 Red. masses --      4.3206                26.5750                 3.0832
 Frc consts  --      0.2910                 1.9149                 0.2417
 IR Inten    --      7.5148                30.0096                 7.5940

                     31                     32                     33
                      A                      A                      A
 Frequencies --    387.0153               400.6281               405.4096
 Red. masses --      3.2042                23.4715                 3.5668
 Frc consts  --      0.2828                 2.2196                 0.3454
 IR Inten    --      7.2330                81.0978                 3.4691

                     34                     35                     36
                      A                      A                      A
 Frequencies --    409.0801               411.7030               448.3917
 Red. masses --     33.3241                 2.9781                 4.1489
 Frc consts  --      3.2857                 0.2974                 0.4915
 IR Inten    --     81.0321                 1.0641                11.1729

                     37                     38                     39
                      A                      A                      A
 Frequencies --    465.8105               515.0243               548.1892
 Red. masses --      3.9285                 3.3093                 3.2873
 Frc consts  --      0.5022                 0.5172                 0.5820
 IR Inten    --      6.2791                14.7189                 9.1403

                     40                     41                     42
                      A                      A                      A
 Frequencies --    566.5317               627.8717               645.6830
 Red. masses --      2.4503                 6.2605                 4.6157
 Frc consts  --      0.4634                 1.4541                 1.1338
 IR Inten    --      0.8386                 0.1468                15.0190

                     43                     44                     45
                      A                      A                      A
 Frequencies --    666.9494               706.2304               710.1914
 Red. masses --      4.8938                 1.6060                 4.1391
 Frc consts  --      1.2826                 0.4719                 1.2300
 IR Inten    --     22.7305                33.3209                 6.3806

                     46                     47                     48
                      A                      A                      A
 Frequencies --    755.0483               762.3928               784.1095
 Red. masses --      2.5544                 5.6941                 3.7011
 Frc consts  --      0.8580                 1.9500                 1.3407
 IR Inten    --     58.0375                56.3254                32.5288

                     49                     50                     51
                      A                      A                      A
 Frequencies --    796.7323               806.0399               831.2862
 Red. masses --      3.6824                 1.1660                 2.3957
 Frc consts  --      1.3772                 0.4463                 0.9754
 IR Inten    --     67.8131                 2.0481                15.4397

                     52                     53                     54
                      A                      A                      A
 Frequencies --    839.6424               846.1628               867.7429
 Red. masses --      4.2786                 1.2735                 2.6147
 Frc consts  --      1.7772                 0.5372                 1.1600
 IR Inten    --     60.9068                 1.5306                12.9273

                     55                     56                     57
                      A                      A                      A
 Frequencies --    888.0815               924.8236               940.6354
 Red. masses --      2.4641                 1.6811                 1.7173
 Frc consts  --      1.1450                 0.8471                 0.8952
 IR Inten    --     48.4045                 5.6856                 4.7278

                     58                     59                     60
                      A                      A                      A
 Frequencies --    946.1292               962.7134               982.6987
 Red. masses --      1.7695                 2.3114                 1.3747
 Frc consts  --      0.9332                 1.2622                 0.7822
 IR Inten    --      2.7159                 1.8681                 0.5307

                     61                     62                     63
                      A                      A                      A
 Frequencies --    984.6600              1001.7303              1004.7522
 Red. masses --      2.0185                 1.6803                 2.4332
 Frc consts  --      1.1531                 0.9934                 1.4473
 IR Inten    --     11.9521                 3.2714                 1.5342

                     64                     65                     66
                      A                      A                      A
 Frequencies --   1008.1210              1009.9745              1028.1644
 Red. masses --      3.8279                 1.3998                 3.0632
 Frc consts  --      2.2921                 0.8412                 1.9079
 IR Inten    --      3.1872                 0.1378                 9.1333

                     67                     68                     69
                      A                      A                      A
 Frequencies --   1042.6311              1055.9067              1063.2526
 Red. masses --      2.3670                 2.0443                 2.1433
 Frc consts  --      1.5160                 1.3429                 1.4276
 IR Inten    --     43.7752                 1.6120                 4.2720

                     70                     71                     72
                      A                      A                      A
 Frequencies --   1088.2410              1104.5560              1132.4348
 Red. masses --      2.8950                 1.6376                 2.1297
 Frc consts  --      2.0200                 1.1771                 1.6092
 IR Inten    --     12.8116                 4.7588                 5.9406

                     73                     74                     75
                      A                      A                      A
 Frequencies --   1139.1477              1155.7763              1168.8282
 Red. masses --      1.6122                 2.1550                 1.5657
 Frc consts  --      1.2327                 1.6961                 1.2603
 IR Inten    --     22.4235                27.7067                 6.0589

                     76                     77                     78
                      A                      A                      A
 Frequencies --   1175.7340              1190.4514              1198.3557
 Red. masses --      1.0897                 2.0818                 1.7905
 Frc consts  --      0.8875                 1.7383                 1.5149
 IR Inten    --      0.8032                64.1420                21.6979

                     79                     80                     81
                      A                      A                      A
 Frequencies --   1205.8056              1210.6092              1219.8004
 Red. masses --      2.3576                 1.2709                 1.6941
 Frc consts  --      2.0196                 1.0974                 1.4852
 IR Inten    --    126.1885                 5.0473                49.3443

                     82                     83                     84
                      A                      A                      A
 Frequencies --   1257.1855              1277.5401              1283.0838
 Red. masses --      1.8286                 2.7704                 1.1062
 Frc consts  --      1.7028                 2.6641                 1.0730
 IR Inten    --     48.8581                39.2073                 1.9145

                     85                     86                     87
                      A                      A                      A
 Frequencies --   1293.7640              1303.4718              1321.0330
 Red. masses --      1.4122                 1.5397                 1.5220
 Frc consts  --      1.3927                 1.5413                 1.5649
 IR Inten    --     13.5176                23.5611                27.2678

                     88                     89                     90
                      A                      A                      A
 Frequencies --   1332.8284              1348.7592              1361.5765
 Red. masses --      1.6304                 2.0436                 2.1480
 Frc consts  --      1.7065                 2.1903                 2.3462
 IR Inten    --     14.4835                 6.3308                 1.4210

                     91                     92                     93
                      A                      A                      A
 Frequencies --   1362.9206              1378.3085              1397.2869
 Red. masses --      1.4767                 1.6968                 1.7668
 Frc consts  --      1.6162                 1.8992                 2.0324
 IR Inten    --     25.5280                 4.4449                66.3892

                     94                     95                     96
                      A                      A                      A
 Frequencies --   1404.2800              1417.0556              1418.2113
 Red. masses --      1.3497                 1.3154                 1.4546
 Frc consts  --      1.5682                 1.5563                 1.7238
 IR Inten    --     23.7465                24.8033                 1.0711

                     97                     98                     99
                      A                      A                      A
 Frequencies --   1470.5320              1472.4515              1473.8582
 Red. masses --      1.0521                 2.3319                 1.0395
 Frc consts  --      1.3405                 2.9788                 1.3304
 IR Inten    --      1.1054                 8.7844                 3.9929

                    100                    101                    102
                      A                      A                      A
 Frequencies --   1483.5684              1487.1436              1488.6518
 Red. masses --      1.0596                 1.0521                 1.0680
 Frc consts  --      1.3740                 1.3709                 1.3945
 IR Inten    --      1.3968                 1.8424                 0.4933

                    103                    104                    105
                      A                      A                      A
 Frequencies --   1493.3876              1501.8470              1507.0836
 Red. masses --      1.0769                 1.0808                 1.0848
 Frc consts  --      1.4151                 1.4363                 1.4517
 IR Inten    --      8.8804                10.7527                 6.0207

                    106                    107                    108
                      A                      A                      A
 Frequencies --   1513.2239              1525.9145              1627.4003
 Red. masses --      1.0700                 2.2589                 5.7055
 Frc consts  --      1.4435                 3.0989                 8.9030
 IR Inten    --      2.2115                 2.3786                 0.3702

                    109                    110                    111
                      A                      A                      A
 Frequencies --   1648.7555              1773.3752              3036.8118
 Red. masses --      5.7219                11.5204                 1.0370
 Frc consts  --      9.1644                21.3462                 5.6347
 IR Inten    --      0.1549               196.7608                 5.9725

                    112                    113                    114
                      A                      A                      A
 Frequencies --   3040.3781              3046.0522              3058.4479
 Red. masses --      1.0355                 1.0384                 1.0583
 Frc consts  --      5.6395                 5.6768                 5.8328
 IR Inten    --     18.5359                10.6773                13.2706

                    115                    116                    117
                      A                      A                      A
 Frequencies --   3061.6022              3071.0755              3089.3884
 Red. masses --      1.0604                 1.0620                 1.0875
 Frc consts  --      5.8563                 5.9012                 6.1156
 IR Inten    --     10.5487                39.9917                 7.6087

                    118                    119                    120
                      A                      A                      A
 Frequencies --   3101.0808              3102.1838              3114.1659
 Red. masses --      1.1000                 1.1070                 1.0944
 Frc consts  --      6.2325                 6.2766                 6.2535
 IR Inten    --      4.3365                 6.2062                 0.7935

                    121                    122                    123
                      A                      A                      A
 Frequencies --   3115.2101              3116.0621              3121.6644
 Red. masses --      1.0987                 1.1019                 1.1005
 Frc consts  --      6.2821                 6.3039                 6.3186
 IR Inten    --     10.2196                20.9057                17.3045

                    124                    125                    126
                      A                      A                      A
 Frequencies --   3124.2239              3132.7826              3137.0573
 Red. masses --      1.0989                 1.1046                 1.1039
 Frc consts  --      6.3195                 6.3871                 6.4008
 IR Inten    --     19.4315                25.5974                 8.8413

                    127                    128                    129
                      A                      A                      A
 Frequencies --   3145.2042              3170.4241              3179.9933
 Red. masses --      1.1024                 1.0848                 1.0880
 Frc consts  --      6.4253                 6.4245                 6.4823
 IR Inten    --      7.4769                 0.1276                 5.9942

                    130                    131                    132
                      A                      A                      A
 Frequencies --   3187.8874              3194.3088              3199.8770
 Red. masses --      1.0915                 1.0943                 1.0990
 Frc consts  --      6.5353                 6.5788                 6.6301
 IR Inten    --     11.6197                 7.7523                10.5633

 - Thermochemistry -
 -------------------
 Temperature   298.150 Kelvin.  Pressure   1.00000 Atm.
 Atom     1 has atomic number  6 and mass  12.00000

 Molecular mass:   434.99839 amu.
 Principal axes and moments of inertia in atomic units:
                           1         2         3
     Eigenvalues --  8893.77456********************
           X            0.99608   0.08645   0.01893
           Y           -0.08702   0.99569   0.03214
           Z           -0.01607  -0.03366   0.99930
 This molecule is an asymmetric top.
 Rotational symmetry number  1.
 Warning -- assumption of classical behavior for rotation
           may cause significant error
 Rotational temperatures (Kelvin)      0.00974     0.00747     0.00691
 Rotational constants (GHZ):           0.20292     0.15572     0.14403
 Zero-point vibrational energy     951783.1 (Joules/Mol)
                                  227.48162 (Kcal/Mol)
 Warning -- explicit consideration of  40 degrees of freedom as
           vibrations may cause significant error
 Vibrational temperatures:     25.38    31.22    43.54    57.47    67.24
          (Kelvin)             89.78    99.37   108.72   114.02   124.57
                              136.90   163.39   165.38   169.66   180.79
                              202.36   232.51   263.77   277.01   317.52
                              325.62   349.53   372.26   374.83   391.75
                              429.95   446.14   486.43   503.16   524.85
                              556.83   576.41   583.29   588.58   592.35
                              645.14   670.20   741.01   788.72   815.11
                              903.37   928.99   959.59  1016.11  1021.81
                             1086.35  1096.91  1128.16  1146.32  1159.71
                             1196.04  1208.06  1217.44  1248.49  1277.75
                             1330.61  1353.36  1361.27  1385.13  1413.88
                             1416.71  1441.27  1445.61  1450.46  1453.13
                             1479.30  1500.11  1519.21  1529.78  1565.74
                             1589.21  1629.32  1638.98  1662.90  1681.68
                             1691.62  1712.79  1724.17  1734.89  1741.80
                             1755.02  1808.81  1838.10  1846.07  1861.44
                             1875.41  1900.67  1917.64  1940.56  1959.00
                             1960.94  1983.08  2010.38  2020.45  2038.83
                             2040.49  2115.77  2118.53  2120.55  2134.52
                             2139.67  2141.84  2148.65  2160.82  2168.36
                             2177.19  2195.45  2341.47  2372.19  2551.49
                             4369.29  4374.43  4382.59  4400.42  4404.96
                             4418.59  4444.94  4461.76  4463.35  4480.59
                             4482.09  4483.32  4491.38  4495.06  4507.38
                             4513.53  4525.25  4561.53  4575.30  4586.66
                             4595.90  4603.91

 Zero-point correction=                           0.362515 (Hartree/Particle)
 Thermal correction to Energy=                    0.389466
 Thermal correction to Enthalpy=                  0.390410
 Thermal correction to Gibbs Free Energy=         0.300324
 Sum of electronic and zero-point Energies=          -3531.077505
 Sum of electronic and thermal Energies=             -3531.050554
 Sum of electronic and thermal Enthalpies=           -3531.049610
 Sum of electronic and thermal Free Energies=        -3531.139696

                     E (Thermal)             CV                S
                      KCal/Mol        Cal/Mol-Kelvin    Cal/Mol-Kelvin
 Total                  244.393             96.747            189.601
 Electronic               0.000              0.000              3.561
 Translational            0.889              2.981             44.100
 Rotational               0.889              2.981             35.511
 Vibrational            242.616             90.785            106.429
 Vibration     1          0.593              1.986              6.883
 Vibration     2          0.593              1.985              6.472
 Vibration     3          0.594              1.984              5.812
 Vibration     4          0.594              1.981              5.262
 Vibration     5          0.595              1.979              4.951
 Vibration     6          0.597              1.972              4.380
 Vibration     7          0.598              1.969              4.180
 Vibration     8          0.599              1.965              4.003
 Vibration     9          0.600              1.963              3.909
 Vibration    10          0.601              1.959              3.736
 Vibration    11          0.603              1.953              3.551
 Vibration    12          0.607              1.938              3.207
 Vibration    13          0.608              1.937              3.184
 Vibration    14          0.608              1.934              3.134
 Vibration    15          0.611              1.927              3.011
 Vibration    16          0.615              1.913              2.795
 Vibration    17          0.622              1.889              2.531
 Vibration    18          0.631              1.863              2.294
 Vibration    19          0.635              1.850              2.203
 Vibration    20          0.647              1.810              1.953
 Vibration    21          0.650              1.801              1.908
 Vibration    22          0.659              1.774              1.781
 Vibration    23          0.668              1.748              1.670
 Vibration    24          0.669              1.745              1.658
 Vibration    25          0.675              1.724              1.582
 Vibration    26          0.692              1.676              1.423
 Vibration    27          0.699              1.654              1.362
 Vibration    28          0.718              1.599              1.221
 Vibration    29          0.727              1.576              1.167
 Vibration    30          0.738              1.545              1.102
 Vibration    31          0.755              1.498              1.012
 Vibration    32          0.766              1.469              0.960
 Vibration    33          0.770              1.458              0.943
 Vibration    34          0.773              1.451              0.930
 Vibration    35          0.776              1.445              0.921
 Vibration    36          0.807              1.364              0.801
 Vibration    37          0.823              1.326              0.749
 Vibration    38          0.870              1.217              0.622
 Vibration    39          0.903              1.144              0.548
 Vibration    40          0.922              1.104              0.511

                           ! Non-Optimized Parameters !
 Normal termination of Gaussian 16 at Sun Jun 20 05:39:53 2021.

 ----------------------------------------------------------------------
 #p ub3lyp jul-cc-pvdz pop=cm5 scrf=(pcm,solvent=dichloroethane) guess=
 read geom=allcheck
 ----------------------------------------------------------------------

 Structure from the checkpoint file:  "checkpoint.chk"
 -----
 title
 -----
 Charge =  0 Multiplicity = 6

 SCF Done:  E(UB3LYP) =  -3531.45682921     A.U. after   17 cycles
 Normal termination of Gaussian 16 at Sun Jun 20 06:00:54 2021.
 Gaussian 16:  ES64L-G16RevA.03 25-Dec-2016

 ----------------------------------------------------------------------
 #p ub3lyp jul-cc-pvdz pop=cm5 scrf=(pcm,solvent=water) guess=read geom
 =allcheck
 ----------------------------------------------------------------------

 Structure from the checkpoint file:  "checkpoint.chk"
 -----
 title
 -----
 Charge =  0 Multiplicity = 6

                         Standard orientation:
 ---------------------------------------------------------------------
 Center     Atomic      Atomic             Coordinates (Angstroms)
 Number     Number       Type             X           Y           Z
 ---------------------------------------------------------------------
      1          6           0        1.617617   -2.322422    1.578168
      2          6           0        1.130662   -1.154574    0.975817
      3          6           0        1.209556    0.052114    1.688546
      4          6           0        1.732457    0.082811    2.980872
      5          6           0        2.211879   -1.088399    3.575437
      6          6           0        2.160601   -2.289602    2.866439
      7          6           0        0.587453   -1.177695   -0.435327
      8          6           0        1.519975   -0.547290   -1.532889
      9          6           0        2.100651   -1.790025   -2.238134
     10          6           0        0.941716   -2.805296   -2.273587
     11          6           0        0.103658   -2.470678   -1.021968
     12          6           0       -1.323668   -1.865765   -1.149630
     13          6           0       -1.861829   -1.597922   -2.543498
     14          8           0       -0.820180   -0.598661   -0.524376
     15         26           0       -1.963579    0.892425    0.320410
     16         17           0       -3.804394    0.955407   -0.886660
     17          6           0       -2.351210   -2.535862   -0.251917
     18         17           0       -0.860408    2.784472    0.158232
     19         17           0       -2.396433    0.293861    2.385264
     20          1           0        0.858930    0.980844    1.239888
     21          1           0        1.764663    1.027543    3.524718
     22          1           0        2.625123   -1.063106    4.584708
     23          1           0        2.539928   -3.209000    3.314374
     24          1           0        1.596008   -3.273006    1.046369
     25          1           0        0.872263    0.017845   -2.213547
     26          6           0        2.625215    0.382405   -1.049537
     27          1           0        2.493333   -1.544336   -3.233206
     28          1           0        2.940376   -2.168825   -1.640508
     29          1           0        0.353729   -2.697767   -3.192990
     30          1           0        1.304872   -3.840482   -2.251344
     31          1           0        0.093026   -3.301849   -0.311914
     32          1           0       -2.573046   -3.533910   -0.657229
     33          1           0       -1.972371   -2.651109    0.770678
     34          1           0       -3.287436   -1.964578   -0.219961
     35          1           0       -2.083869   -2.555484   -3.035837
     36          1           0       -2.790388   -1.018912   -2.486590
     37          1           0       -1.149061   -1.045145   -3.166335
     38          8           0        2.292056    1.672890   -1.222782
     39          8           0        3.687585    0.006826   -0.601006
     40          6           0        3.279903    2.655859   -0.802274
     41          6           0        2.760104    4.025741   -1.187491
     42          1           0        3.421049    2.552920    0.282355
     43          1           0        4.233403    2.415278   -1.291053
     44          1           0        3.484389    4.790078   -0.870710
     45          1           0        2.627586    4.104956   -2.275471
     46          1           0        1.797433    4.232582   -0.702104
 ---------------------------------------------------------------------

 SCF Done:  E(UB3LYP) =  -3531.46005827     A.U. after   14 cycles

 The electronic state is 6-A.
 Alpha  occ. eigenvalues -- -256.22074-101.53366-101.53350-101.53209 -30.21401
 Alpha  occ. eigenvalues --  -26.06850 -26.06579 -26.06499 -19.21701 -19.20363
 Alpha  occ. eigenvalues --  -19.15215 -10.32869 -10.28835 -10.27744 -10.24770
 Alpha  occ. eigenvalues --  -10.22110 -10.21686 -10.20806 -10.20671 -10.20429
 Alpha  occ. eigenvalues --  -10.20405 -10.20360 -10.20322 -10.19798 -10.19519
 Alpha  occ. eigenvalues --  -10.19167 -10.19044 -10.18624  -9.45079  -9.45076
 Alpha  occ. eigenvalues --   -9.44935  -7.20948  -7.20945  -7.20805  -7.20654
 Alpha  occ. eigenvalues --   -7.20647  -7.20610  -7.20602  -7.20495  -7.20475
 Alpha  occ. eigenvalues --   -3.69014  -2.46714  -2.46277  -2.46083  -1.12094
 Alpha  occ. eigenvalues --   -1.09067  -1.03619  -0.88287  -0.86055  -0.81860
 Alpha  occ. eigenvalues --   -0.81430  -0.80637  -0.80557  -0.78815  -0.77858
 Alpha  occ. eigenvalues --   -0.76298  -0.74706  -0.72407  -0.71111  -0.66336
 Alpha  occ. eigenvalues --   -0.64243  -0.62379  -0.61120  -0.59696  -0.57254
 Alpha  occ. eigenvalues --   -0.56280  -0.54366  -0.53691  -0.51523  -0.50654
 Alpha  occ. eigenvalues --   -0.50087  -0.49488  -0.49251  -0.49099  -0.48943
 Alpha  occ. eigenvalues --   -0.48475  -0.47991  -0.47266  -0.46395  -0.46077
 Alpha  occ. eigenvalues --   -0.45001  -0.44838  -0.44115  -0.43345  -0.42965
 Alpha  occ. eigenvalues --   -0.41787  -0.40720  -0.40172  -0.40133  -0.39893
 Alpha  occ. eigenvalues --   -0.39716  -0.38152  -0.37963  -0.37355  -0.36972
 Alpha  occ. eigenvalues --   -0.36918  -0.36479  -0.36006  -0.35612  -0.35307
 Alpha  occ. eigenvalues --   -0.35125  -0.34665  -0.34302  -0.33403  -0.32291
 Alpha  occ. eigenvalues --   -0.32001  -0.31737  -0.31638  -0.31432  -0.31361
 Alpha  occ. eigenvalues --   -0.30553  -0.30533  -0.29392  -0.26991  -0.26754
 Alpha virt. eigenvalues --   -0.04187  -0.03134  -0.01529  -0.01496  -0.00215
 Alpha virt. eigenvalues --   -0.00040   0.00081   0.01133   0.01546   0.01743
 Alpha virt. eigenvalues --    0.01842   0.02324   0.02461   0.03329   0.03870

  Beta  occ. eigenvalues -- -256.21888-101.53160-101.53143-101.53004 -30.12511
  Beta  occ. eigenvalues --  -25.99313 -25.99224 -25.99161 -19.21388 -19.20363
  Beta  occ. eigenvalues --  -19.15214 -10.32868 -10.28814 -10.27731 -10.24770
  Beta  occ. eigenvalues --  -10.22106 -10.21684 -10.20796 -10.20669 -10.20428
  Beta  occ. eigenvalues --  -10.20405 -10.20360 -10.20321 -10.19797 -10.19517
  Beta  occ. eigenvalues --  -10.19164 -10.19040 -10.18622  -9.44876  -9.44875
  Beta  occ. eigenvalues --   -9.44734  -7.20622  -7.20619  -7.20481  -7.20353
  Beta  occ. eigenvalues --   -7.20349  -7.20337  -7.20333  -7.20206  -7.20196
  Beta  occ. eigenvalues --   -3.48265  -2.24536  -2.24533  -2.24396  -1.12092
  Beta  occ. eigenvalues --   -1.08550  -1.03616  -0.88236  -0.85990  -0.81760
  Beta  occ. eigenvalues --   -0.80110  -0.79235  -0.79134  -0.78786  -0.77823
  Beta  occ. eigenvalues --   -0.76291  -0.74676  -0.72307  -0.71078  -0.66318
  Beta  occ. eigenvalues --   -0.64162  -0.62362  -0.61018  -0.59635  -0.57215
  Beta  occ. eigenvalues --   -0.55684  -0.54214  -0.53262  -0.51375  -0.50204
  Beta  occ. eigenvalues --   -0.49654  -0.49238  -0.47683  -0.46509  -0.46329
  Beta  occ. eigenvalues --   -0.45094  -0.44827  -0.44121  -0.43380  -0.42966
  Beta  occ. eigenvalues --   -0.41770  -0.40684  -0.40139  -0.39954  -0.39882
  Beta  occ. eigenvalues --   -0.39271  -0.38268  -0.38085  -0.37523  -0.37212
  Beta  occ. eigenvalues --   -0.36975  -0.36893  -0.36770  -0.36432  -0.35920
  Beta  occ. eigenvalues --   -0.35634  -0.34936  -0.34512  -0.34131  -0.33964
  Beta  occ. eigenvalues --   -0.33438  -0.32953  -0.32705  -0.31930  -0.31489
  Beta  occ. eigenvalues --   -0.30659  -0.30393  -0.29363  -0.26979  -0.26744
  Beta virt. eigenvalues --   -0.16143  -0.15686  -0.14562  -0.14462  -0.14256
  Beta virt. eigenvalues --   -0.04075  -0.03095  -0.01457  -0.01380  -0.00125
  Beta virt. eigenvalues --   -0.00018   0.00106   0.01303   0.01562   0.01759

 Mulliken charges and spin densities:
               1          2
     1  C   -0.318080   0.005891
     2  C    3.259466  -0.005913
     3  C   -0.396491  -0.020032
     4  C    0.005234   0.002400
     5  C    0.278671   0.000978
     6  C   -0.194959   0.001399
     7  C   -2.189369   0.027842
     8  C    0.211629  -0.000991
     9  C    0.519611   0.000787
    10  C    0.619202   0.001418
    11  C    0.743908   0.000586
    12  C   -0.846783   0.008047
    13  C    0.399942  -0.001636
    14  O   -0.237214   0.073858
    15  Fe   0.527290   4.056444
    16  Cl  -0.449570   0.284837
    17  C    0.556079   0.003876
    18  Cl  -0.432451   0.282597
    19  Cl  -0.423047   0.275675
    20  H   -0.315269   0.000498
    21  H   -0.164692   0.000009
    22  H   -0.161834   0.000012
    23  H   -0.157432   0.000016
    24  H   -0.186581  -0.000042
    25  H   -0.222560  -0.000239
    26  C    1.048625   0.000841
    27  H   -0.138611   0.000177
    28  H   -0.062470  -0.000009
    29  H   -0.096011  -0.000006
    30  H   -0.125408   0.000375
    31  H   -0.217025   0.001058
    32  H   -0.005222  -0.000188
    33  H    0.037227  -0.000839
    34  H    0.027238   0.000544
    35  H    0.016205   0.001100
    36  H    0.008096  -0.000103
    37  H    0.027472  -0.000374
    38  O   -0.697870  -0.001272
    39  O   -0.673213   0.000473
    40  C    0.411050  -0.000603
    41  C    0.060817   0.001097
    42  H   -0.040292   0.000029
    43  H   -0.049084   0.000005
    44  H   -0.003307   0.000064
    45  H    0.021282   0.000009
    46  H    0.025802  -0.000695
 Sum of Mulliken charges =  -0.00000   5.00000

 Dipole moment (field-independent basis, Debye):
    X=              4.3063    Y=             -6.6279    Z=             -4.1679  Tot=              8.9356
 Quadrupole moment (field-independent basis, Debye-Ang):
   XX=           -198.6355   YY=           -158.2729   ZZ=           -166.8031
   XY=             16.0034   XZ=              7.0156   YZ=              4.8209

 Normal termination of Gaussian 16 at Sun Jun 20 06:18:21 2021.
