 Gaussian 16, Revision A.03,

 -----------------------------------------------------------
 #p opt=modredundant freq=noraman ub3lyp jul-cc-pvdz pop=cm5
 -----------------------------------------------------------

 -----
 title
 -----
 Symbolic Z-matrix:
 Charge =  0 Multiplicity = 6

 SCF Done:  E(UB3LYP) =  -3531.39793402     A.U. after   25 cycles
 SCF Done:  E(UB3LYP) =  -3531.39827086     A.U. after   15 cycles
 SCF Done:  E(UB3LYP) =  -3531.39758367     A.U. after   16 cycles
 SCF Done:  E(UB3LYP) =  -3531.39853919     A.U. after   14 cycles
 SCF Done:  E(UB3LYP) =  -3531.39851116     A.U. after   14 cycles
 SCF Done:  E(UB3LYP) =  -3531.39866206     A.U. after   15 cycles
 SCF Done:  E(UB3LYP) =  -3531.39864866     A.U. after   15 cycles
 SCF Done:  E(UB3LYP) =  -3531.39866524     A.U. after   15 cycles
 SCF Done:  E(UB3LYP) =  -3531.39868890     A.U. after   14 cycles
 SCF Done:  E(UB3LYP) =  -3531.39869305     A.U. after   13 cycles
 SCF Done:  E(UB3LYP) =  -3531.39869704     A.U. after   12 cycles
 SCF Done:  E(UB3LYP) =  -3531.39869930     A.U. after   12 cycles
 SCF Done:  E(UB3LYP) =  -3531.39870052     A.U. after   11 cycles
 SCF Done:  E(UB3LYP) =  -3531.39870092     A.U. after   11 cycles
 SCF Done:  E(UB3LYP) =  -3531.39870103     A.U. after   10 cycles
 Optimization completed.
    -- Stationary point found.
 Normal termination of Gaussian 16 at Sun Jun 20 04:10:36 2021.

 ----------------------------------------------------------------------
 #P Geom=AllCheck Guess=TCheck SCRF=Check GenChk UB3LYP/Jul-CC-pVDZ Fre
 q
 ----------------------------------------------------------------------

 Structure from the checkpoint file:  "checkpoint.chk"
 -----
 title
 -----
 Charge =  0 Multiplicity = 6

 SCF Done:  E(UB3LYP) =  -3531.39870103     A.U. after    2 cycles

  Exact polarizability: 302.490  -3.727 318.409 -29.477  -5.234 274.623
 Approx polarizability: 444.894 -16.474 507.778 -48.357  -1.866 435.488

                      1                      2                      3
                      A                      A                      A
 Frequencies --     21.5350                24.2385                34.9909
 Red. masses --      4.2601                11.2031                 5.7913
 Frc consts  --      0.0012                 0.0039                 0.0042
 IR Inten    --      1.3463                 1.5017                 1.2488

                      4                      5                      6
                      A                      A                      A
 Frequencies --     42.2365                55.1432                64.3422
 Red. masses --      5.2271                 4.4987                 4.2731
 Frc consts  --      0.0055                 0.0081                 0.0104
 IR Inten    --      0.7459                 1.2067                 0.3974

                      7                      8                      9
                      A                      A                      A
 Frequencies --     74.9893                77.5754                78.7872
 Red. masses --      5.8653                 5.5165                 4.9038
 Frc consts  --      0.0194                 0.0196                 0.0179
 IR Inten    --      0.6908                 1.3061                 1.4844

                     10                     11                     12
                      A                      A                      A
 Frequencies --     87.6529               104.1347               110.7615
 Red. masses --      5.1407                 9.4426                 4.5904
 Frc consts  --      0.0233                 0.0603                 0.0332
 IR Inten    --      0.2194                 1.3509                 0.3804

                     13                     14                     15
                      A                      A                      A
 Frequencies --    114.1589               116.7135               132.2615
 Red. masses --      4.1925                 6.1488                 6.4321
 Frc consts  --      0.0322                 0.0493                 0.0663
 IR Inten    --      1.1297                 6.8379                19.3475

                     16                     17                     18
                      A                      A                      A
 Frequencies --    139.3709               154.2548               160.1652
 Red. masses --      4.0688                 3.2159                 2.4515
 Frc consts  --      0.0466                 0.0451                 0.0371
 IR Inten    --      8.4768                 4.2590                 1.3635

                     19                     20                     21
                      A                      A                      A
 Frequencies --    175.4667               180.9778               202.4070
 Red. masses --      1.4816                 3.2472                 3.5200
 Frc consts  --      0.0269                 0.0627                 0.0850
 IR Inten    --      0.5174                 0.2945                20.7995

                     22                     23                     24
                      A                      A                      A
 Frequencies --    219.3063               243.1866               254.3553
 Red. masses --      2.9010                 3.9496                 1.4549
 Frc consts  --      0.0822                 0.1376                 0.0555
 IR Inten    --      2.3757                 9.7085                 1.7755

                     25                     26                     27
                      A                      A                      A
 Frequencies --    273.6864               297.0803               302.0494
 Red. masses --      2.4563                 1.9373                 4.5631
 Frc consts  --      0.1084                 0.1007                 0.2453
 IR Inten    --      1.7707                 5.9440                 1.4866

                     28                     29                     30
                      A                      A                      A
 Frequencies --    307.4883               325.1190               341.5691
 Red. masses --      2.1865                15.2644                 5.4021
 Frc consts  --      0.1218                 0.9506                 0.3713
 IR Inten    --      1.5742                40.5022                27.4986

                     31                     32                     33
                      A                      A                      A
 Frequencies --    343.0436               375.3866               386.5373
 Red. masses --     16.0891                 5.4549                 6.7890
 Frc consts  --      1.1155                 0.4529                 0.5976
 IR Inten    --     52.1441                17.6087                22.6940

                     34                     35                     36
                      A                      A                      A
 Frequencies --    396.7731               415.2150               420.1238
 Red. masses --     15.2732                 2.9470                 4.1421
 Frc consts  --      1.4167                 0.2993                 0.4308
 IR Inten    --     71.7103                 0.5374                 4.9625

                     37                     38                     39
                      A                      A                      A
 Frequencies --    454.5962               479.3912               499.3598
 Red. masses --      3.3678                 2.7418                 2.4490
 Frc consts  --      0.4101                 0.3712                 0.3598
 IR Inten    --      3.1112                 4.2273                 2.2841

                     40                     41                     42
                      A                      A                      A
 Frequencies --    554.1991               593.7620               628.3239
 Red. masses --      3.7412                 2.8392                 6.3108
 Frc consts  --      0.6770                 0.5898                 1.4679
 IR Inten    --     26.4727                 3.1016                 0.5580

                     43                     44                     45
                      A                      A                      A
 Frequencies --    647.2879               678.1416               703.6610
 Red. masses --      5.2286                 3.5810                 4.6560
 Frc consts  --      1.2907                 0.9703                 1.3583
 IR Inten    --     16.3437                22.8721                49.4348

                     46                     47                     48
                      A                      A                      A
 Frequencies --    707.0959               749.2586               757.1527
 Red. masses --      1.6802                 2.2153                 1.6653
 Frc consts  --      0.4949                 0.7327                 0.5625
 IR Inten    --     20.4488                21.5767                15.4080

                     49                     50                     51
                      A                      A                      A
 Frequencies --    772.3512               778.7335               801.7632
 Red. masses --      2.6355                 2.7809                 5.3915
 Frc consts  --      0.9263                 0.9936                 2.0420
 IR Inten    --     13.6217                36.8617                36.8791

                     52                     53                     54
                      A                      A                      A
 Frequencies --    806.4281               836.9682               842.6398
 Red. masses --      1.1248                 3.5476                 1.2610
 Frc consts  --      0.4310                 1.4642                 0.5275
 IR Inten    --      0.3974                10.9924                 1.7817

                     55                     56                     57
                      A                      A                      A
 Frequencies --    847.6570               874.5710               910.6650
 Red. masses --      2.3773                 2.5722                 1.9702
 Frc consts  --      1.0064                 1.1592                 0.9627
 IR Inten    --      4.8156                15.5041                19.2235

                     58                     59                     60
                      A                      A                      A
 Frequencies --    925.6837               957.5322               980.1677
 Red. masses --      1.5159                 2.1700                 1.3966
 Frc consts  --      0.7653                 1.1722                 0.7905
 IR Inten    --      1.0430                 9.6137                 0.8477

                     61                     62                     63
                      A                      A                      A
 Frequencies --    985.1477               997.0891              1002.2282
 Red. masses --      2.7457                 3.0058                 2.0639
 Frc consts  --      1.5700                 1.7606                 1.2214
 IR Inten    --      3.8638                 2.7311                 0.1711

                     64                     65                     66
                      A                      A                      A
 Frequencies --   1003.8281              1017.8206              1020.3932
 Red. masses --      2.3931                 1.4551                 1.8300
 Frc consts  --      1.4208                 0.8881                 1.1226
 IR Inten    --      4.4815                 0.6302                 1.9410

                     67                     68                     69
                      A                      A                      A
 Frequencies --   1039.8330              1052.6216              1065.9873
 Red. masses --      2.8509                 2.4251                 1.9885
 Frc consts  --      1.8162                 1.5832                 1.3313
 IR Inten    --     50.6448                14.3845                27.2573

                     70                     71                     72
                      A                      A                      A
 Frequencies --   1081.4757              1086.7547              1107.9520
 Red. masses --      3.2353                 2.1466                 1.6250
 Frc consts  --      2.2295                 1.4937                 1.1753
 IR Inten    --    188.5868                20.6990                 8.7812

                     73                     74                     75
                      A                      A                      A
 Frequencies --   1131.8861              1145.1566              1166.6299
 Red. masses --      2.1709                 2.2347                 2.1784
 Frc consts  --      1.6387                 1.7266                 1.7468
 IR Inten    --     10.6962                35.9119                18.1443

                     76                     77                     78
                      A                      A                      A
 Frequencies --   1168.7419              1174.6158              1203.5312
 Red. masses --      1.5522                 1.1145                 1.9253
 Frc consts  --      1.2492                 0.9060                 1.6431
 IR Inten    --      2.9744                 2.1387                80.2624

                     79                     80                     81
                      A                      A                      A
 Frequencies --   1206.9271              1209.9322              1222.7361
 Red. masses --      1.2598                 1.7465                 1.8365
 Frc consts  --      1.0812                 1.5064                 1.6178
 IR Inten    --      5.2700               101.2615                51.0413

                     82                     83                     84
                      A                      A                      A
 Frequencies --   1251.1559              1255.8241              1280.7492
 Red. masses --      1.7508                 1.5393                 1.3031
 Frc consts  --      1.6147                 1.4303                 1.2594
 IR Inten    --    112.6837                37.5633                52.3372

                     85                     86                     87
                      A                      A                      A
 Frequencies --   1282.8988              1293.9640              1311.7788
 Red. masses --      1.2792                 1.3547                 1.2204
 Frc consts  --      1.2405                 1.3364                 1.2373
 IR Inten    --     50.6374                11.0515                76.0454

                     88                     89                     90
                      A                      A                      A
 Frequencies --   1313.2055              1332.9568              1350.0221
 Red. masses --      1.2624                 1.9224                 1.2691
 Frc consts  --      1.2827                 2.0124                 1.3628
 IR Inten    --      4.1921                 4.8162                24.2527

                     91                     92                     93
                      A                      A                      A
 Frequencies --   1356.7015              1365.4911              1373.1952
 Red. masses --      2.7016                 1.2803                 1.4459
 Frc consts  --      2.9298                 1.4066                 1.6064
 IR Inten    --      0.6372                18.0516                45.1388

                     94                     95                     96
                      A                      A                      A
 Frequencies --   1375.5614              1396.3377              1418.0321
 Red. masses --      1.3731                 1.5857                 1.5494
 Frc consts  --      1.5307                 1.8216                 1.8356
 IR Inten    --     32.6288                58.4460                 7.6257

                     97                     98                     99
                      A                      A                      A
 Frequencies --   1430.9283              1460.5308              1468.7721
 Red. masses --      1.1190                 1.6698                 2.1561
 Frc consts  --      1.3499                 2.0987                 2.7405
 IR Inten    --      7.1426                41.1868                 8.7560

                    100                    101                    102
                      A                      A                      A
 Frequencies --   1474.5653              1480.2871              1487.0480
 Red. masses --      1.0398                 1.1169                 1.0517
 Frc consts  --      1.3321                 1.4420                 1.3702
 IR Inten    --      4.8314                 4.6797                 1.6229

                    103                    104                    105
                      A                      A                      A
 Frequencies --   1491.7933              1500.3385              1505.9981
 Red. masses --      1.2063                 1.1373                 1.3606
 Frc consts  --      1.5817                 1.5084                 1.8181
 IR Inten    --     10.4036                15.8963                40.3764

                    106                    107                    108
                      A                      A                      A
 Frequencies --   1507.6999              1518.5522              1624.0621
 Red. masses --      1.0881                 2.0903                 5.7103
 Frc consts  --      1.4573                 2.8401                 8.8740
 IR Inten    --      6.0320                10.5336                 0.5843

                    109                    110                    111
                      A                      A                      A
 Frequencies --   1643.5850              1765.9512              2649.1926
 Red. masses --      5.8291                11.7702                 1.0705
 Frc consts  --      9.2776                21.6267                 4.4265
 IR Inten    --      0.1469               210.2603               812.0693

                    112                    113                    114
                      A                      A                      A
 Frequencies --   2957.7839              3032.2197              3039.5427
 Red. masses --      1.0575                 1.0691                 1.0352
 Frc consts  --      5.4509                 5.7914                 5.6352
 IR Inten    --     37.6276                14.5074                15.2955

                    115                    116                    117
                      A                      A                      A
 Frequencies --   3056.9290              3074.4383              3075.7002
 Red. masses --      1.0583                 1.0774                 1.0671
 Frc consts  --      5.8270                 6.0002                 5.9475
 IR Inten    --     17.1726                11.6850                14.1302

                    118                    119                    120
                      A                      A                      A
 Frequencies --   3092.1682              3098.3482              3100.5956
 Red. masses --      1.0701                 1.0632                 1.1072
 Frc consts  --      6.0286                 6.0136                 6.2716
 IR Inten    --      1.3465                 4.5560                 3.9586

                    121                    122                    123
                      A                      A                      A
 Frequencies --   3102.7501              3113.9356              3116.0597
 Red. masses --      1.0893                 1.0908                 1.1014
 Frc consts  --      6.1785                 6.2320                 6.3007
 IR Inten    --      6.6589                 6.7191                20.9170

                    124                    125                    126
                      A                      A                      A
 Frequencies --   3129.0702              3129.3766              3161.1997
 Red. masses --      1.1051                 1.1045                 1.1068
 Frc consts  --      6.3752                 6.3725                 6.5166
 IR Inten    --     13.7162                28.1339                 6.4726

                    127                    128                    129
                      A                      A                      A
 Frequencies --   3165.8316              3176.2550              3185.3539
 Red. masses --      1.0843                 1.0882                 1.0926
 Frc consts  --      6.4031                 6.4683                 6.5317
 IR Inten    --      1.8361                 5.3822                24.3547

                    130                    131                    132
                      A                      A                      A
 Frequencies --   3188.7839              3194.9912              3221.1031
 Red. masses --      1.1044                 1.0980                 1.0923
 Frc consts  --      6.6164                 6.6038                 6.6775
 IR Inten    --      0.7562                14.8370                 2.5716

 - Thermochemistry -
 -------------------
 Temperature   298.150 Kelvin.  Pressure   1.00000 Atm.
 Atom     1 has atomic number  6 and mass  12.00000

 Molecular mass:   434.99839 amu.
 Principal axes and moments of inertia in atomic units:
                           1         2         3
     Eigenvalues --  9019.50309********************
           X            0.99478   0.10111  -0.01355
           Y           -0.10083   0.99470   0.02012
           Z            0.01551  -0.01865   0.99971
 This molecule is an asymmetric top.
 Rotational symmetry number  1.
 Warning -- assumption of classical behavior for rotation
           may cause significant error
 Rotational temperatures (Kelvin)      0.00960     0.00737     0.00662
 Rotational constants (GHZ):           0.20009     0.15349     0.13796
 Zero-point vibrational energy     940931.0 (Joules/Mol)
                                  224.88790 (Kcal/Mol)
 Warning -- explicit consideration of  41 degrees of freedom as
           vibrations may cause significant error
 Vibrational temperatures:     30.98    34.87    50.34    60.77    79.34
          (Kelvin)             92.57   107.89   111.61   113.36   126.11
                              149.83   159.36   164.25   167.92   190.29
                              200.52   221.94   230.44   252.46   260.39
                              291.22   315.53   349.89   365.96   393.77
                              427.43   434.58   442.41   467.77   491.44
                              493.56   540.10   556.14   570.87   597.40
                              604.46   654.06   689.74   718.47   797.37
                              854.29   904.02   931.30   975.69  1012.41
                             1017.35  1078.02  1089.37  1111.24  1120.42
                             1153.56  1160.27  1204.21  1212.37  1219.59
                             1258.31  1310.24  1331.85  1377.68  1410.24
                             1417.41  1434.59  1441.98  1444.28  1464.42
                             1468.12  1496.09  1514.49  1533.72  1556.00
                             1563.60  1594.10  1628.53  1647.62  1678.52
                             1681.56  1690.01  1731.61  1736.50  1740.82
                             1759.24  1800.13  1806.85  1842.71  1845.81
                             1861.73  1887.36  1889.41  1917.83  1942.38
                             1951.99  1964.64  1975.72  1979.13  2009.02
                             2040.23  2058.79  2101.38  2113.24  2121.57
                             2129.80  2139.53  2146.36  2158.65  2166.80
                             2169.24  2184.86  2336.66  2364.75  2540.81
                             3811.60  4255.59  4362.69  4373.22  4398.24
                             4423.43  4425.25  4448.94  4457.83  4461.07
                             4464.17  4480.26  4483.31  4502.03  4502.47
                             4548.26  4554.93  4569.92  4583.01  4587.95
                             4596.88  4634.45

 Zero-point correction=                           0.358382 (Hartree/Particle)
 Thermal correction to Energy=                    0.385961
 Thermal correction to Enthalpy=                  0.386905
 Thermal correction to Gibbs Free Energy=         0.296190
 Sum of electronic and zero-point Energies=          -3531.040319
 Sum of electronic and thermal Energies=             -3531.012740
 Sum of electronic and thermal Enthalpies=           -3531.011796
 Sum of electronic and thermal Free Energies=        -3531.102511

                     E (Thermal)             CV                S
                      KCal/Mol        Cal/Mol-Kelvin    Cal/Mol-Kelvin
 Total                  242.194             98.639            190.926
 Electronic               0.000              0.000              3.561
 Translational            0.889              2.981             44.100
 Rotational               0.889              2.981             35.582
 Vibrational            240.417             92.677            107.683
 Vibration     1          0.593              1.985              6.487
 Vibration     2          0.593              1.985              6.253
 Vibration     3          0.594              1.982              5.524
 Vibration     4          0.595              1.980              5.151
 Vibration     5          0.596              1.976              4.624
 Vibration     6          0.597              1.971              4.319
 Vibration     7          0.599              1.966              4.018
 Vibration     8          0.599              1.964              3.951
 Vibration     9          0.600              1.963              3.921
 Vibration    10          0.601              1.958              3.712
 Vibration    11          0.605              1.946              3.375
 Vibration    12          0.607              1.941              3.256
 Vibration    13          0.607              1.938              3.197
 Vibration    14          0.608              1.935              3.154
 Vibration    15          0.612              1.921              2.913
 Vibration    16          0.615              1.914              2.812
 Vibration    17          0.620              1.898              2.619
 Vibration    18          0.622              1.891              2.548
 Vibration    19          0.627              1.873              2.376
 Vibration    20          0.630              1.866              2.318
 Vibration    21          0.639              1.836              2.111
 Vibration    22          0.647              1.812              1.965
 Vibration    23          0.659              1.774              1.779
 Vibration    24          0.665              1.755              1.700
 Vibration    25          0.676              1.722              1.573
 Vibration    26          0.691              1.679              1.433
 Vibration    27          0.694              1.670              1.406
 Vibration    28          0.697              1.659              1.376
 Vibration    29          0.709              1.625              1.284
 Vibration    30          0.721              1.592              1.205
 Vibration    31          0.722              1.589              1.198
 Vibration    32          0.746              1.523              1.058
 Vibration    33          0.755              1.499              1.013
 Vibration    34          0.763              1.477              0.975
 Vibration    35          0.779              1.437              0.908
 Vibration    36          0.783              1.427              0.892
 Vibration    37          0.813              1.351              0.782
 Vibration    38          0.836              1.296              0.712
 Vibration    39          0.855              1.251              0.660
 Vibration    40          0.910              1.131              0.536
 Vibration    41          0.951              1.045              0.461

 Optimization completed.
    -- Stationary point found.
 Normal termination of Gaussian 16 at Sun Jun 20 08:40:36 2021.

 ----------------------------------------------------------------------
 #p ub3lyp jul-cc-pvdz pop=cm5 scrf=(pcm,solvent=dichloroethane) guess=
 read geom=allcheck
 ----------------------------------------------------------------------

 Structure from the checkpoint file:  "checkpoint.chk"
 -----
 title
 -----
 Charge =  0 Multiplicity = 6

 SCF Done:  E(UB3LYP) =  -3531.42983263     A.U. after   17 cycles
 Normal termination of Gaussian 16 at Sun Jun 20 09:07:53 2021.
 Gaussian 16:  ES64L-G16RevA.03 25-Dec-2016

 ----------------------------------------------------------------------
 #p ub3lyp jul-cc-pvdz pop=cm5 scrf=(pcm,solvent=water) guess=read geom
 =allcheck
 ----------------------------------------------------------------------

 Structure from the checkpoint file:  "checkpoint.chk"
 -----
 title
 -----
 Charge =  0 Multiplicity = 6

                         Standard orientation:
 ---------------------------------------------------------------------
 Center     Atomic      Atomic             Coordinates (Angstroms)
 Number     Number       Type             X           Y           Z
 ---------------------------------------------------------------------
      1          6           0       -1.694333    1.846291    1.785405
      2          6           0       -1.219543    0.728240    1.081034
      3          6           0       -1.530705   -0.546335    1.579262
      4          6           0       -2.283519   -0.696684    2.745542
      5          6           0       -2.747732    0.423851    3.439390
      6          6           0       -2.449700    1.697761    2.952799
      7          6           0       -0.411126    0.829577   -0.241560
      8          6           0       -1.422279    0.974984   -1.461375
      9          6           0       -1.794433    2.456783   -1.480421
     10          6           0       -0.530894    3.217444   -1.028658
     11          6           0        0.365117    2.113020   -0.256585
     12          6           0        1.609101    2.323489   -1.017607
     13          6           0        1.940749    1.610466   -2.239311
     14          8           0        0.348142   -0.331334   -0.416038
     15         26           0        1.853811   -1.123094    0.328290
     16         17           0        3.333479   -1.336278   -1.384765
     17          6           0        2.585218    3.283808   -0.465572
     18         17           0        1.387250   -3.062198    1.275444
     19         17           0        2.728814    0.415662    1.730860
     20          1           0       -1.162256   -1.427532    1.059163
     21          1           0       -2.497046   -1.699620    3.117809
     22          1           0       -3.331441    0.305828    4.353438
     23          1           0       -2.801070    2.584505    3.482562
     24          1           0       -1.487308    2.861142    1.446697
     25          1           0       -0.853428    0.687596   -2.355342
     26          6           0       -2.639357    0.065554   -1.404053
     27          1           0       -2.133857    2.788831   -2.469157
     28          1           0       -2.617093    2.629993   -0.777028
     29          1           0       -0.008031    3.645646   -1.897774
     30          1           0       -0.725710    4.054198   -0.348410
     31          1           0        0.543803    2.460294    0.765180
     32          1           0        2.116129    4.053012    0.160024
     33          1           0        3.195630    2.661292    0.222536
     34          1           0        3.244776    3.720615   -1.222694
     35          1           0        2.611294    2.168295   -2.902616
     36          1           0        2.522274    0.706088   -1.882438
     37          1           0        1.086700    1.178655   -2.765371
     38          8           0       -2.324226   -1.193876   -1.743513
     39          8           0       -3.758062    0.435615   -1.111228
     40          6           0       -3.400364   -2.170079   -1.678652
     41          6           0       -2.816030   -3.517242   -2.052267
     42          1           0       -3.810645   -2.160277   -0.660004
     43          1           0       -4.195969   -1.852719   -2.366864
     44          1           0       -3.605332   -4.281502   -2.007449
     45          1           0       -2.407366   -3.500948   -3.072105
     46          1           0       -2.013185   -3.803908   -1.359836
 ---------------------------------------------------------------------

 SCF Done:  E(UB3LYP) =  -3531.43578735     A.U. after   14 cycles

 The electronic state is 6-A.
 Alpha  occ. eigenvalues -- -256.19474-101.51804-101.51749-101.51740 -30.18877
 Alpha  occ. eigenvalues --  -26.04264 -26.04116 -26.03943 -19.20167 -19.15469
 Alpha  occ. eigenvalues --  -19.15116 -10.32727 -10.32717 -10.28142 -10.24747
 Alpha  occ. eigenvalues --  -10.23827 -10.23436 -10.22478 -10.22138 -10.21826
 Alpha  occ. eigenvalues --  -10.21063 -10.20557 -10.20250 -10.20028 -10.19919
 Alpha  occ. eigenvalues --  -10.19868 -10.19606 -10.18665  -9.43498  -9.43496
 Alpha  occ. eigenvalues --   -9.43452  -7.19365  -7.19345  -7.19309  -7.19057
 Alpha  occ. eigenvalues --   -7.19049  -7.19030  -7.19020  -7.19016  -7.18962
 Alpha  occ. eigenvalues --   -3.66599  -2.44251  -2.43961  -2.43644  -1.11991
 Alpha  occ. eigenvalues --   -1.03485  -1.02455  -0.90544  -0.86988  -0.84646
 Alpha  occ. eigenvalues --   -0.79716  -0.79135  -0.79041  -0.78922  -0.77250
 Alpha  occ. eigenvalues --   -0.76221  -0.75602  -0.74851  -0.72611  -0.66974
 Alpha  occ. eigenvalues --   -0.64061  -0.62092  -0.61098  -0.59981  -0.57682
 Alpha  occ. eigenvalues --   -0.56531  -0.55014  -0.53239  -0.51347  -0.50859
 Alpha  occ. eigenvalues --   -0.50023  -0.49121  -0.48624  -0.48319  -0.47975
 Alpha  occ. eigenvalues --   -0.47126  -0.46971  -0.46793  -0.46497  -0.45853
 Alpha  occ. eigenvalues --   -0.45007  -0.44700  -0.43790  -0.43212  -0.42974
 Alpha  occ. eigenvalues --   -0.42616  -0.42318  -0.41719  -0.41119  -0.40412
 Alpha  occ. eigenvalues --   -0.40008  -0.39126  -0.37932  -0.37701  -0.37567
 Alpha  occ. eigenvalues --   -0.37088  -0.36483  -0.35948  -0.35857  -0.35336
 Alpha  occ. eigenvalues --   -0.35053  -0.34063  -0.33659  -0.31697  -0.31630
 Alpha  occ. eigenvalues --   -0.30809  -0.30641  -0.30435  -0.30226  -0.29640
 Alpha  occ. eigenvalues --   -0.29439  -0.28655  -0.27828  -0.26531  -0.26134
 Alpha virt. eigenvalues --   -0.12986  -0.02831  -0.02692  -0.01616  -0.01348
 Alpha virt. eigenvalues --   -0.00332  -0.00095   0.00075   0.01454   0.01570
 Alpha virt. eigenvalues --    0.01617   0.01794   0.02316   0.03109   0.03722

  Beta  occ. eigenvalues -- -256.19287-101.51642-101.51597-101.51590 -30.09965
  Beta  occ. eigenvalues --  -25.96773 -25.96703 -25.96563 -19.20166 -19.15113
  Beta  occ. eigenvalues --  -19.14586 -10.32728 -10.32714 -10.28126 -10.24747
  Beta  occ. eigenvalues --  -10.23810 -10.23436 -10.22477 -10.22139 -10.21798
  Beta  occ. eigenvalues --  -10.21042 -10.20553 -10.20248 -10.20026 -10.19920
  Beta  occ. eigenvalues --  -10.19868 -10.19608 -10.18665  -9.43339  -9.43338
  Beta  occ. eigenvalues --   -9.43312  -7.19088  -7.19079  -7.19042  -7.18842
  Beta  occ. eigenvalues --   -7.18841  -7.18827  -7.18824  -7.18817  -7.18788
  Beta  occ. eigenvalues --   -3.45820  -2.22188  -2.22115  -2.21864  -1.11988
  Beta  occ. eigenvalues --   -1.03480  -1.00767  -0.90354  -0.86922  -0.84560
  Beta  occ. eigenvalues --   -0.79062  -0.78702  -0.78006  -0.77925  -0.77123
  Beta  occ. eigenvalues --   -0.76181  -0.75591  -0.74828  -0.72462  -0.66891
  Beta  occ. eigenvalues --   -0.63993  -0.62020  -0.61048  -0.59896  -0.57576
  Beta  occ. eigenvalues --   -0.56183  -0.54931  -0.51824  -0.51271  -0.50793
  Beta  occ. eigenvalues --   -0.49915  -0.48883  -0.48384  -0.48242  -0.47248
  Beta  occ. eigenvalues --   -0.45947  -0.44769  -0.44168  -0.43243  -0.43049
  Beta  occ. eigenvalues --   -0.42758  -0.42332  -0.41838  -0.41122  -0.40465
  Beta  occ. eigenvalues --   -0.40001  -0.38895  -0.37925  -0.37701  -0.37554
  Beta  occ. eigenvalues --   -0.37380  -0.36480  -0.36273  -0.35908  -0.35356
  Beta  occ. eigenvalues --   -0.35246  -0.35195  -0.35121  -0.32829  -0.32556
  Beta  occ. eigenvalues --   -0.32221  -0.31895  -0.31600  -0.31257  -0.29581
  Beta  occ. eigenvalues --   -0.29464  -0.28768  -0.28457  -0.26543  -0.26131
  Beta virt. eigenvalues --   -0.13514  -0.13331  -0.13087  -0.12214  -0.11731
  Beta virt. eigenvalues --   -0.10948  -0.02792  -0.02667  -0.01516  -0.01296
  Beta virt. eigenvalues --   -0.00290  -0.00053   0.00103   0.01481   0.01584

 Mulliken charges and spin densities:
               1          2
     1  C   -0.279032   0.000179
     2  C    2.621578   0.016068
     3  C   -0.644357   0.002685
     4  C    0.065942   0.006126
     5  C    0.227628   0.000978
     6  C   -0.186463   0.001103
     7  C   -1.385879  -0.018995
     8  C    0.413898   0.017365
     9  C    0.607297   0.003193
    10  C    0.462021  -0.000847
    11  C    1.856026   0.002549
    12  C   -1.324711   0.000708
    13  C    0.031317  -0.003794
    14  O   -0.534638   0.304385
    15  Fe   0.569955   4.052304
    16  Cl  -0.574672   0.187509
    17  C    0.462497   0.000602
    18  Cl  -0.511343   0.222799
    19  Cl  -0.558029   0.205959
    20  H   -0.244692  -0.001644
    21  H   -0.167168   0.000001
    22  H   -0.165027  -0.000006
    23  H   -0.161265   0.000148
    24  H   -0.236502   0.000004
    25  H   -0.194970  -0.000470
    26  C    0.908425  -0.002430
    27  H   -0.140478   0.000577
    28  H   -0.054846   0.000068
    29  H   -0.097427   0.000247
    30  H   -0.082091   0.000022
    31  H   -0.207361   0.000016
    32  H    0.043947   0.000114
    33  H    0.121387   0.000267
    34  H    0.008913   0.000007
    35  H    0.005299  -0.000031
    36  H    0.196339   0.001620
    37  H    0.064203   0.000007
    38  O   -0.706969  -0.001267
    39  O   -0.648662   0.001383
    40  C    0.443378   0.000307
    41  C    0.053870   0.000197
    42  H   -0.041589   0.000014
    43  H   -0.051291   0.000006
    44  H   -0.005289   0.000001
    45  H    0.020952  -0.000003
    46  H    0.019879  -0.000031
 Sum of Mulliken charges =  -0.00000   5.00000

 Dipole moment (field-independent basis, Debye):
    X=             -3.0460    Y=             14.0181    Z=             -6.1358  Tot=             15.6024
 Quadrupole moment (field-independent basis, Debye-Ang):
   XX=           -197.1383   YY=           -149.7651   ZZ=           -169.6328
   XY=             33.0253   XZ=            -11.5157   YZ=             -5.8756

 Normal termination of Gaussian 16 at Sun Jun 20 09:30:20 2021.
