 Gaussian 16, Revision A.03,

 -----------------------------------------------------------
 #p opt=modredundant freq=noraman ub3lyp jul-cc-pvdz pop=cm5
 -----------------------------------------------------------

 -----
 title
 -----
 Symbolic Z-matrix:
 Charge =  0 Multiplicity = 6

 SCF Done:  E(UB3LYP) =  -3531.43844785     A.U. after   21 cycles
 SCF Done:  E(UB3LYP) =  -3531.43875243     A.U. after   14 cycles
 SCF Done:  E(UB3LYP) =  -3531.43821549     A.U. after   15 cycles
 SCF Done:  E(UB3LYP) =  -3531.43895928     A.U. after   14 cycles
 SCF Done:  E(UB3LYP) =  -3531.43897625     A.U. after   14 cycles
 SCF Done:  E(UB3LYP) =  -3531.43898418     A.U. after   12 cycles
 SCF Done:  E(UB3LYP) =  -3531.43898625     A.U. after   12 cycles
 SCF Done:  E(UB3LYP) =  -3531.43898708     A.U. after   11 cycles
 SCF Done:  E(UB3LYP) =  -3531.43898767     A.U. after   11 cycles
 SCF Done:  E(UB3LYP) =  -3531.43898793     A.U. after   11 cycles
 SCF Done:  E(UB3LYP) =  -3531.43898803     A.U. after    9 cycles
 Optimization completed.
    -- Stationary point found.
 Normal termination of Gaussian 16 at Sun Jun 20 02:09:22 2021.

 ----------------------------------------------------------------------
 #P Geom=AllCheck Guess=TCheck SCRF=Check GenChk UB3LYP/Jul-CC-pVDZ Fre
 q
 ----------------------------------------------------------------------

 Structure from the checkpoint file:  "checkpoint.chk"
 -----
 title
 -----
 Charge =  0 Multiplicity = 6

 SCF Done:  E(UB3LYP) =  -3531.43898803     A.U. after    1 cycles

  Exact polarizability: 280.251   5.544 290.622  23.217   0.283 284.453
 Approx polarizability: 409.556   5.251 457.629  42.888  -5.379 450.385

                      1                      2                      3
                      A                      A                      A
 Frequencies --     20.0222                28.3618                31.2396
 Red. masses --      6.0922                 6.4234                 4.9203
 Frc consts  --      0.0014                 0.0030                 0.0028
 IR Inten    --      0.4136                 0.4155                 0.1847

                      4                      5                      6
                      A                      A                      A
 Frequencies --     43.5939                47.8222                64.3005
 Red. masses --      4.7566                 4.6977                 2.5664
 Frc consts  --      0.0053                 0.0063                 0.0063
 IR Inten    --      0.4003                 1.5087                 0.4950

                      7                      8                      9
                      A                      A                      A
 Frequencies --     69.8159                77.0702                80.7248
 Red. masses --      5.1504                11.0720                 7.3418
 Frc consts  --      0.0148                 0.0387                 0.0282
 IR Inten    --      0.2194                 0.5183                 0.6113

                     10                     11                     12
                      A                      A                      A
 Frequencies --     86.7734               100.6250               115.1090
 Red. masses --     10.4401                 5.5317                17.5954
 Frc consts  --      0.0463                 0.0330                 0.1374
 IR Inten    --      1.5375                 0.7274                 1.2022

                     13                     14                     15
                      A                      A                      A
 Frequencies --    116.7980               120.1585               128.1348
 Red. masses --      9.9392                 5.5556                 4.0447
 Frc consts  --      0.0799                 0.0473                 0.0391
 IR Inten    --      4.1823                 0.2407                 2.7994

                     16                     17                     18
                      A                      A                      A
 Frequencies --    144.7862               168.3122               185.1186
 Red. masses --      3.8451                 2.5736                 4.9884
 Frc consts  --      0.0475                 0.0430                 0.1007
 IR Inten    --      3.4804                 0.7934                10.0204

                     19                     20                     21
                      A                      A                      A
 Frequencies --    193.2639               222.0959               226.9834
 Red. masses --      3.4046                 2.8297                 1.3901
 Frc consts  --      0.0749                 0.0822                 0.0422
 IR Inten    --      2.7909                 3.9957                 2.4845

                     22                     23                     24
                      A                      A                      A
 Frequencies --    241.8043               257.2240               258.8813
 Red. masses --      2.6906                 2.2422                 1.7439
 Frc consts  --      0.0927                 0.0874                 0.0689
 IR Inten    --      0.5486                 0.6373                 0.9266

                     25                     26                     27
                      A                      A                      A
 Frequencies --    269.2373               298.8824               312.1174
 Red. masses --      1.2848                 3.3209                 2.9280
 Frc consts  --      0.0549                 0.1748                 0.1681
 IR Inten    --      1.1213                 3.5314                 0.5697

                     28                     29                     30
                      A                      A                      A
 Frequencies --    340.0378               348.3130               368.1660
 Red. masses --      4.2959                25.7274                 3.0435
 Frc consts  --      0.2927                 1.8390                 0.2431
 IR Inten    --      7.3219                33.7916                 8.1440

                     31                     32                     33
                      A                      A                      A
 Frequencies --    380.5966               398.0961               402.4414
 Red. masses --      3.3387                22.9286                 3.7080
 Frc consts  --      0.2849                 2.1409                 0.3538
 IR Inten    --      6.6498                75.4976                 3.3826

                     34                     35                     36
                      A                      A                      A
 Frequencies --    407.1374               410.8588               441.8724
 Red. masses --     37.3659                 2.9465                 4.4294
 Frc consts  --      3.6493                 0.2931                 0.5095
 IR Inten    --     82.1283                 0.1619                 9.7605

                     37                     38                     39
                      A                      A                      A
 Frequencies --    465.4530               515.9378               543.9163
 Red. masses --      3.8048                 3.3347                 3.0196
 Frc consts  --      0.4857                 0.5230                 0.5263
 IR Inten    --     10.4173                14.6591                 7.9046

                     40                     41                     42
                      A                      A                      A
 Frequencies --    553.8475               585.7863               627.4804
 Red. masses --      2.7099                 6.1692                 6.1721
 Frc consts  --      0.4898                 1.2473                 1.4318
 IR Inten    --     18.4092               119.8912                 0.2112

                     43                     44                     45
                      A                      A                      A
 Frequencies --    643.2689               666.6596               706.3816
 Red. masses --      4.5478                 5.2473                 1.5569
 Frc consts  --      1.1087                 1.3740                 0.4577
 IR Inten    --     17.4892                18.5163                42.3483

                     46                     47                     48
                      A                      A                      A
 Frequencies --    714.0559               758.2497               779.2295
 Red. masses --      4.5946                 2.7582                 3.0871
 Frc consts  --      1.3803                 0.9343                 1.1044
 IR Inten    --     12.8905                15.5698                24.4949

                     49                     50                     51
                      A                      A                      A
 Frequencies --    788.7086               803.9953               809.4021
 Red. masses --      4.0086                 1.6846                 1.9247
 Frc consts  --      1.4692                 0.6416                 0.7429
 IR Inten    --      9.6487                14.9927                22.4642

                     52                     53                     54
                      A                      A                      A
 Frequencies --    837.8410               845.9679               870.4315
 Red. masses --      2.1853                 1.2703                 2.6845
 Frc consts  --      0.9038                 0.5356                 1.1984
 IR Inten    --     47.3666                 1.7496                 7.9757

                     55                     56                     57
                      A                      A                      A
 Frequencies --    903.2213               922.5651               939.5538
 Red. masses --      2.5359                 1.7316                 1.8428
 Frc consts  --      1.2189                 0.8683                 0.9585
 IR Inten    --     86.6691                 5.2898                 3.3855

                     58                     59                     60
                      A                      A                      A
 Frequencies --    941.2983               958.6543               966.7508
 Red. masses --      1.6847                 2.3213                 4.5098
 Frc consts  --      0.8795                 1.2569                 2.4833
 IR Inten    --     11.6102                 5.1808                 4.7448

                     61                     62                     63
                      A                      A                      A
 Frequencies --    980.7447               982.3608              1002.1195
 Red. masses --      2.0802                 1.3717                 1.3094
 Frc consts  --      1.1789                 0.7799                 0.7747
 IR Inten    --      7.5437                 1.7942                 0.8123

                     64                     65                     66
                      A                      A                      A
 Frequencies --   1006.5935              1010.6723              1022.3741
 Red. masses --      5.2756                 1.4257                 2.6316
 Frc consts  --      3.1494                 0.8580                 1.6207
 IR Inten    --      1.4517                 0.8457                19.2945

                     67                     68                     69
                      A                      A                      A
 Frequencies --   1040.0639              1053.7062              1060.4219
 Red. masses --      2.4451                 2.2225                 2.2250
 Frc consts  --      1.5584                 1.4539                 1.4741
 IR Inten    --     38.5555                 1.5436                13.8678

                     70                     71                     72
                      A                      A                      A
 Frequencies --   1067.4395              1099.8257              1114.7498
 Red. masses --      3.0049                 2.1754                 1.8124
 Frc consts  --      2.0173                 1.5504                 1.3269
 IR Inten    --      1.2640                 5.0245                14.9463

                     73                     74                     75
                      A                      A                      A
 Frequencies --   1128.6418              1132.7411              1155.5610
 Red. masses --      1.6738                 2.1802                 1.7150
 Frc consts  --      1.2562                 1.6482                 1.3493
 IR Inten    --     13.3711                 9.8475                22.1509

                     76                     77                     78
                      A                      A                      A
 Frequencies --   1168.9890              1174.8623              1182.1067
 Red. masses --      1.5585                 1.1302                 1.4913
 Frc consts  --      1.2548                 0.9192                 1.2278
 IR Inten    --      3.9909                 2.6780                 9.1872

                     79                     80                     81
                      A                      A                      A
 Frequencies --   1198.9017              1210.0834              1220.1910
 Red. masses --      1.9782                 1.1856                 1.9004
 Frc consts  --      1.6753                 1.0229                 1.6671
 IR Inten    --    163.5352                 5.6684                70.8621

                     82                     83                     84
                      A                      A                      A
 Frequencies --   1254.5048              1272.0241              1283.3473
 Red. masses --      1.7792                 2.0361                 1.1243
 Frc consts  --      1.6498                 1.9410                 1.0910
 IR Inten    --     45.2442                33.1094                 2.6759

                     85                     86                     87
                      A                      A                      A
 Frequencies --   1290.1829              1301.5842              1317.8783
 Red. masses --      2.0887                 1.8069                 1.4309
 Frc consts  --      2.0484                 1.8035                 1.4642
 IR Inten    --     35.9916                23.6024                 5.8961

                     88                     89                     90
                      A                      A                      A
 Frequencies --   1327.5258              1336.0071              1360.8462
 Red. masses --      1.5266                 2.0966                 2.1827
 Frc consts  --      1.5852                 2.2048                 2.3816
 IR Inten    --     30.1721                 8.6144                 0.7072

                     91                     92                     93
                      A                      A                      A
 Frequencies --   1365.4760              1366.8695              1391.7712
 Red. masses --      1.4005                 1.5537                 1.5687
 Frc consts  --      1.5385                 1.7103                 1.7903
 IR Inten    --     25.7007                 3.0146                66.7538

                     94                     95                     96
                      A                      A                      A
 Frequencies --   1406.6584              1416.3172              1417.2788
 Red. masses --      1.3983                 1.2963                 1.4380
 Frc consts  --      1.6302                 1.5321                 1.7019
 IR Inten    --     24.9363                21.9897                 1.6614

                     97                     98                     99
                      A                      A                      A
 Frequencies --   1467.3262              1469.8222              1473.7309
 Red. masses --      1.0607                 2.2891                 1.0395
 Frc consts  --      1.3455                 2.9137                 1.3301
 IR Inten    --      1.3367                 7.9012                 3.9438

                    100                    101                    102
                      A                      A                      A
 Frequencies --   1481.3490              1487.2487              1487.4053
 Red. masses --      1.0568                 1.0533                 1.0712
 Frc consts  --      1.3663                 1.3727                 1.3963
 IR Inten    --      0.6896                 1.7541                 0.4107

                    103                    104                    105
                      A                      A                      A
 Frequencies --   1490.9102              1500.8159              1507.1965
 Red. masses --      1.0749                 1.0844                 1.0848
 Frc consts  --      1.4078                 1.4391                 1.4519
 IR Inten    --      7.3986                11.2873                 6.0007

                    106                    107                    108
                      A                      A                      A
 Frequencies --   1512.6186              1525.2266              1626.1706
 Red. masses --      1.0686                 2.2544                 5.6689
 Frc consts  --      1.4406                 3.0899                 8.8324
 IR Inten    --      2.8651                 3.0269                 0.4536

                    109                    110                    111
                      A                      A                      A
 Frequencies --   1648.6012              1773.1081              3033.9224
 Red. masses --      5.7367                11.5498                 1.0397
 Frc consts  --      9.1863                21.3942                 5.6386
 IR Inten    --      0.0540               199.4135                 4.3389

                    112                    113                    114
                      A                      A                      A
 Frequencies --   3040.2716              3043.1080              3058.4066
 Red. masses --      1.0355                 1.0409                 1.0583
 Frc consts  --      5.6391                 5.6795                 5.8326
 IR Inten    --     18.7943                11.5472                12.5763

                    115                    116                    117
                      A                      A                      A
 Frequencies --   3060.0027              3068.6542              3086.2100
 Red. masses --      1.0603                 1.0617                 1.0869
 Frc consts  --      5.8498                 5.8903                 6.0992
 IR Inten    --     12.1073                39.9601                 7.5115

                    118                    119                    120
                      A                      A                      A
 Frequencies --   3099.9689              3102.1205              3113.4939
 Red. masses --      1.1026                 1.1070                 1.0959
 Frc consts  --      6.2427                 6.2762                 6.2590
 IR Inten    --      5.7673                 6.3090                 6.0384

                    121                    122                    123
                      A                      A                      A
 Frequencies --   3115.9471              3116.4829              3123.1372
 Red. masses --      1.1020                 1.1023                 1.0947
 Frc consts  --      6.3038                 6.3081                 6.2912
 IR Inten    --     17.3987                16.0550                 6.1913

                    124                    125                    126
                      A                      A                      A
 Frequencies --   3127.7648              3132.8273              3144.7026
 Red. masses --      1.0905                 1.1045                 1.1044
 Frc consts  --      6.2858                 6.3871                 6.4348
 IR Inten    --     16.8024                25.2478                 6.6259

                    127                    128                    129
                      A                      A                      A
 Frequencies --   3152.3956              3170.2611              3179.9912
 Red. masses --      1.1031                 1.0848                 1.0882
 Frc consts  --      6.4590                 6.4240                 6.4836
 IR Inten    --      6.5122                 0.0714                 6.5412

                    130                    131                    132
                      A                      A                      A
 Frequencies --   3188.4118              3194.9687              3199.9619
 Red. masses --      1.0916                 1.0941                 1.0988
 Frc consts  --      6.5385                 6.5801                 6.6290
 IR Inten    --     10.9453                 8.7138                10.5133

 - Thermochemistry -
 -------------------
 Temperature   298.150 Kelvin.  Pressure   1.00000 Atm.
 Atom     1 has atomic number  6 and mass  12.00000

 Molecular mass:   434.99839 amu.
 Principal axes and moments of inertia in atomic units:
                           1         2         3
     Eigenvalues --  8942.42089********************
           X            0.99586   0.08922   0.01712
           Y           -0.08967   0.99559   0.02740
           Z           -0.01460  -0.02882   0.99948
 This molecule is an asymmetric top.
 Rotational symmetry number  1.
 Warning -- assumption of classical behavior for rotation
           may cause significant error
 Rotational temperatures (Kelvin)      0.00969     0.00746     0.00689
 Rotational constants (GHZ):           0.20182     0.15540     0.14354
 Zero-point vibrational energy     949125.5 (Joules/Mol)
                                  226.84644 (Kcal/Mol)
 Warning -- explicit consideration of  41 degrees of freedom as
           vibrations may cause significant error
 Vibrational temperatures:     28.81    40.81    44.95    62.72    68.81
          (Kelvin)             92.51   100.45   110.89   116.14   124.85
                              144.78   165.62   168.05   172.88   184.36
                              208.32   242.16   266.34   278.06   319.55
                              326.58   347.90   370.09   372.47   387.37
                              430.03   449.07   489.24   501.14   529.71
                              547.59   572.77   579.02   585.78   591.13
                              635.76   669.68   742.32   782.57   796.86
                              842.82   902.80   925.52   959.17  1016.33
                             1027.37  1090.95  1121.14  1134.78  1156.77
                             1164.55  1205.47  1217.16  1252.36  1299.53
                             1327.37  1351.81  1354.32  1379.29  1390.94
                             1411.07  1413.40  1441.83  1448.26  1454.13
                             1470.97  1496.42  1516.05  1525.71  1535.81
                             1582.40  1603.88  1623.86  1629.76  1662.59
                             1681.91  1690.36  1700.79  1724.95  1741.04
                             1755.58  1804.95  1830.16  1846.45  1856.29
                             1872.69  1896.13  1910.01  1922.22  1957.95
                             1964.62  1966.62  2002.45  2023.87  2037.76
                             2039.15  2111.16  2114.75  2120.37  2131.33
                             2139.82  2140.04  2145.09  2159.34  2168.52
                             2176.32  2194.46  2339.70  2371.97  2551.11
                             4365.14  4374.27  4378.35  4400.36  4402.66
                             4415.11  4440.37  4460.16  4463.26  4479.62
                             4483.15  4483.92  4493.50  4500.16  4507.44
                             4524.53  4535.59  4561.30  4575.30  4587.41
                             4596.85  4604.03

 Zero-point correction=                           0.361503 (Hartree/Particle)
 Thermal correction to Energy=                    0.388500
 Thermal correction to Enthalpy=                  0.389444
 Thermal correction to Gibbs Free Energy=         0.299922
 Sum of electronic and zero-point Energies=          -3531.077485
 Sum of electronic and thermal Energies=             -3531.050488
 Sum of electronic and thermal Enthalpies=           -3531.049544
 Sum of electronic and thermal Free Energies=        -3531.139066

                     E (Thermal)             CV                S
                      KCal/Mol        Cal/Mol-Kelvin    Cal/Mol-Kelvin
 Total                  243.787             97.377            188.416
 Electronic               0.000              0.000              3.561
 Translational            0.889              2.981             44.100
 Rotational               0.889              2.981             35.522
 Vibrational            242.010             91.415            105.233
 Vibration     1          0.593              1.986              6.632
 Vibration     2          0.593              1.984              5.941
 Vibration     3          0.594              1.983              5.749
 Vibration     4          0.595              1.980              5.089
 Vibration     5          0.595              1.978              4.905
 Vibration     6          0.597              1.971              4.321
 Vibration     7          0.598              1.969              4.159
 Vibration     8          0.599              1.964              3.964
 Vibration     9          0.600              1.962              3.873
 Vibration    10          0.601              1.958              3.732
 Vibration    11          0.604              1.949              3.442
 Vibration    12          0.608              1.937              3.181
 Vibration    13          0.608              1.935              3.153
 Vibration    14          0.609              1.932              3.098
 Vibration    15          0.611              1.925              2.974
 Vibration    16          0.616              1.908              2.740
 Vibration    17          0.625              1.881              2.454
 Vibration    18          0.631              1.860              2.276
 Vibration    19          0.635              1.849              2.196
 Vibration    20          0.648              1.807              1.942
 Vibration    21          0.651              1.800              1.903
 Vibration    22          0.658              1.776              1.790
 Vibration    23          0.667              1.751              1.681
 Vibration    24          0.668              1.748              1.669
 Vibration    25          0.674              1.730              1.601
 Vibration    26          0.692              1.676              1.423
 Vibration    27          0.700              1.651              1.351
 Vibration    28          0.720              1.595              1.212
 Vibration    29          0.726              1.579              1.174
 Vibration    30          0.741              1.538              1.087
 Vibration    31          0.750              1.512              1.037
 Vibration    32          0.764              1.474              0.970
 Vibration    33          0.768              1.465              0.954
 Vibration    34          0.772              1.455              0.937
 Vibration    35          0.775              1.447              0.924
 Vibration    36          0.802              1.379              0.821
 Vibration    37          0.823              1.327              0.750
 Vibration    38          0.871              1.215              0.619
 Vibration    39          0.899              1.153              0.557
 Vibration    40          0.909              1.131              0.536
 Vibration    41          0.943              1.062              0.475

 Optimization completed.
    -- Stationary point found.
 Normal termination of Gaussian 16 at Sun Jun 20 07:29:09 2021.

 ----------------------------------------------------------------------
 #p ub3lyp jul-cc-pvdz pop=cm5 scrf=(pcm,solvent=dichloroethane) guess=
 read geom=allcheck
 ----------------------------------------------------------------------

 Structure from the checkpoint file:  "checkpoint.chk"
 -----
 title
 -----
 Charge =  0 Multiplicity = 6

 SCF Done:  E(UB3LYP) =  -3531.45660551     A.U. after   17 cycles
 Normal termination of Gaussian 16 at Sun Jun 20 07:56:27 2021.
 Gaussian 16:  ES64L-G16RevA.03 25-Dec-2016

 ----------------------------------------------------------------------
 #p ub3lyp jul-cc-pvdz pop=cm5 scrf=(pcm,solvent=water) guess=read geom
 =allcheck
 ----------------------------------------------------------------------

 Structure from the checkpoint file:  "checkpoint.chk"
 -----
 title
 -----
 Charge =  0 Multiplicity = 6

                         Standard orientation:
 ---------------------------------------------------------------------
 Center     Atomic      Atomic             Coordinates (Angstroms)
 Number     Number       Type             X           Y           Z
 ---------------------------------------------------------------------
      1          6           0        1.623335   -2.261096    1.636130
      2          6           0        1.128271   -1.106910    1.013812
      3          6           0        1.208903    0.114110    1.702080
      4          6           0        1.742044    0.171826    2.989674
      5          6           0        2.227742   -0.986045    3.604526
      6          6           0        2.174019   -2.201449    2.920029
      7          6           0        0.578032   -1.154850   -0.391234
      8          6           0        1.514714   -0.608725   -1.521592
      9          6           0        2.077856   -1.888696   -2.172037
     10          6           0        0.897994   -2.879484   -2.218257
     11          6           0        0.057533   -2.551703   -0.972506
     12          6           0       -1.365769   -1.953764   -1.099636
     13          6           0       -1.927046   -1.704787   -2.480152
     14          8           0       -0.810403   -0.577244   -0.502338
     15         26           0       -1.944911    0.922203    0.296751
     16         17           0       -3.781867    0.951794   -0.923626
     17          6           0       -2.371717   -2.541854   -0.134477
     18         17           0       -0.849497    2.817242    0.102595
     19         17           0       -2.400694    0.376262    2.373855
     20          1           0        0.853485    1.033133    1.237481
     21          1           0        1.776879    1.127732    3.513566
     22          1           0        2.647831   -0.939619    4.610229
     23          1           0        2.558101   -3.110962    3.383903
     24          1           0        1.600821   -3.221218    1.122100
     25          1           0        0.875059   -0.065248   -2.227603
     26          6           0        2.634311    0.326363   -1.082785
     27          1           0        2.508088   -1.684138   -3.161176
     28          1           0        2.888948   -2.272015   -1.538439
     29          1           0        0.320141   -2.749584   -3.141526
     30          1           0        1.243352   -3.921171   -2.207286
     31          1           0        0.068576   -3.357501   -0.234462
     32          1           0       -2.620213   -3.557074   -0.480362
     33          1           0       -1.962375   -2.611920    0.879845
     34          1           0       -3.297188   -1.954145   -0.107920
     35          1           0       -2.163535   -2.674647   -2.943135
     36          1           0       -2.850666   -1.119388   -2.417998
     37          1           0       -1.221403   -1.175530   -3.129759
     38          8           0        2.302795    1.613918   -1.279911
     39          8           0        3.702145   -0.043353   -0.642350
     40          6           0        3.299304    2.602957   -0.895780
     41          6           0        2.778343    3.965203   -1.305869
     42          1           0        3.454716    2.524836    0.188971
     43          1           0        4.245386    2.347994   -1.391660
     44          1           0        3.508536    4.734554   -1.015902
     45          1           0        2.632332    4.019681   -2.393661
     46          1           0        1.822286    4.185726   -0.813499
 ---------------------------------------------------------------------

 SCF Done:  E(UB3LYP) =  -3531.45995801     A.U. after   13 cycles

 The electronic state is 6-A.
 Alpha  occ. eigenvalues -- -256.21932-101.53273-101.53218-101.53078 -30.21272
 Alpha  occ. eigenvalues --  -26.06704 -26.06460 -26.06373 -19.21388 -19.20333
 Alpha  occ. eigenvalues --  -19.15194 -10.32838 -10.28977 -10.28579 -10.24756
 Alpha  occ. eigenvalues --  -10.22026 -10.21648 -10.21592 -10.20601 -10.20386
 Alpha  occ. eigenvalues --  -10.20356 -10.20315 -10.20279 -10.19814 -10.19610
 Alpha  occ. eigenvalues --  -10.19530 -10.19398 -10.18613  -9.44986  -9.44946
 Alpha  occ. eigenvalues --   -9.44805  -7.20853  -7.20816  -7.20676  -7.20553
 Alpha  occ. eigenvalues --   -7.20520  -7.20518  -7.20471  -7.20362  -7.20345
 Alpha  occ. eigenvalues --   -3.68890  -2.46560  -2.46171  -2.45967  -1.12060
 Alpha  occ. eigenvalues --   -1.07008  -1.03593  -0.87918  -0.85648  -0.82546
 Alpha  occ. eigenvalues --   -0.81307  -0.80535  -0.80429  -0.78651  -0.77825
 Alpha  occ. eigenvalues --   -0.76225  -0.74495  -0.72024  -0.71299  -0.66369
 Alpha  occ. eigenvalues --   -0.64105  -0.62268  -0.60984  -0.59540  -0.57050
 Alpha  occ. eigenvalues --   -0.56115  -0.54173  -0.53130  -0.51433  -0.50650
 Alpha  occ. eigenvalues --   -0.50062  -0.49363  -0.49127  -0.48992  -0.48875
 Alpha  occ. eigenvalues --   -0.48370  -0.47895  -0.47076  -0.46358  -0.46116
 Alpha  occ. eigenvalues --   -0.45107  -0.44749  -0.43953  -0.43294  -0.42887
 Alpha  occ. eigenvalues --   -0.41874  -0.40787  -0.40259  -0.40064  -0.39856
 Alpha  occ. eigenvalues --   -0.39586  -0.38280  -0.37956  -0.37227  -0.37122
 Alpha  occ. eigenvalues --   -0.36844  -0.36604  -0.36122  -0.35629  -0.35184
 Alpha  occ. eigenvalues --   -0.35117  -0.34629  -0.34067  -0.33108  -0.32218
 Alpha  occ. eigenvalues --   -0.31848  -0.31709  -0.31598  -0.31480  -0.31371
 Alpha  occ. eigenvalues --   -0.30478  -0.30452  -0.29310  -0.26932  -0.26682
 Alpha virt. eigenvalues --   -0.03945  -0.03080  -0.01539  -0.01408  -0.00338
 Alpha virt. eigenvalues --   -0.00040  -0.00006   0.00239   0.01528   0.01741
 Alpha virt. eigenvalues --    0.01786   0.01893   0.02353   0.03237   0.03761

  Beta  occ. eigenvalues -- -256.21746-101.53070-101.53014-101.52875 -30.12374
  Beta  occ. eigenvalues --  -25.99166 -25.99093 -25.99028 -19.21054 -19.20332
  Beta  occ. eigenvalues --  -19.15192 -10.32838 -10.28954 -10.28566 -10.24756
  Beta  occ. eigenvalues --  -10.22021 -10.21646 -10.21581 -10.20599 -10.20385
  Beta  occ. eigenvalues --  -10.20356 -10.20314 -10.20278 -10.19812 -10.19608
  Beta  occ. eigenvalues --  -10.19529 -10.19395 -10.18611  -9.44787  -9.44746
  Beta  occ. eigenvalues --   -9.44606  -7.20534  -7.20489  -7.20353  -7.20262
  Beta  occ. eigenvalues --   -7.20250  -7.20224  -7.20206  -7.20078  -7.20069
  Beta  occ. eigenvalues --   -3.48125  -2.24403  -2.24373  -2.24264  -1.12059
  Beta  occ. eigenvalues --   -1.06425  -1.03591  -0.87877  -0.85563  -0.82469
  Beta  occ. eigenvalues --   -0.80002  -0.79144  -0.79022  -0.78630  -0.77788
  Beta  occ. eigenvalues --   -0.76218  -0.74474  -0.71938  -0.71225  -0.66347
  Beta  occ. eigenvalues --   -0.64047  -0.62252  -0.60910  -0.59450  -0.57011
  Beta  occ. eigenvalues --   -0.55498  -0.54089  -0.52629  -0.51290  -0.50144
  Beta  occ. eigenvalues --   -0.49620  -0.49081  -0.47512  -0.46630  -0.46424
  Beta  occ. eigenvalues --   -0.45163  -0.44749  -0.43966  -0.43333  -0.42888
  Beta  occ. eigenvalues --   -0.41861  -0.40790  -0.40208  -0.40028  -0.39826
  Beta  occ. eigenvalues --   -0.39111  -0.38308  -0.38031  -0.37330  -0.37117
  Beta  occ. eigenvalues --   -0.37059  -0.36848  -0.36713  -0.36573  -0.36024
  Beta  occ. eigenvalues --   -0.35594  -0.34974  -0.34126  -0.34056  -0.33880
  Beta  occ. eigenvalues --   -0.33338  -0.32974  -0.32703  -0.31900  -0.31440
  Beta  occ. eigenvalues --   -0.30709  -0.30324  -0.29275  -0.26919  -0.26662
  Beta virt. eigenvalues --   -0.15972  -0.15516  -0.14434  -0.14306  -0.14097
  Beta virt. eigenvalues --   -0.03850  -0.03043  -0.01390  -0.01357  -0.00162
  Beta virt. eigenvalues --   -0.00018   0.00063   0.00425   0.01545   0.01757

 Mulliken charges and spin densities:
               1          2
     1  C   -0.269789   0.005547
     2  C    3.241489  -0.004682
     3  C   -0.395146  -0.018684
     4  C    0.018184   0.001669
     5  C    0.266590   0.000508
     6  C   -0.188076   0.001502
     7  C   -2.234208   0.027492
     8  C    0.203449  -0.000670
     9  C    0.506269   0.000992
    10  C    0.587208   0.001367
    11  C    0.760673   0.000581
    12  C   -0.817670   0.009726
    13  C    0.415760  -0.002043
    14  O   -0.245475   0.082686
    15  Fe   0.544168   4.056748
    16  Cl  -0.457485   0.280533
    17  C    0.527148   0.002547
    18  Cl  -0.433572   0.279238
    19  Cl  -0.429097   0.272464
    20  H   -0.312996   0.000563
    21  H   -0.164066   0.000012
    22  H   -0.162355   0.000018
    23  H   -0.158275   0.000017
    24  H   -0.189903  -0.000026
    25  H   -0.216483  -0.000138
    26  C    1.044545   0.000827
    27  H   -0.139948   0.000251
    28  H   -0.057129  -0.000012
    29  H   -0.096418  -0.000016
    30  H   -0.125546   0.000353
    31  H   -0.227497   0.001121
    32  H    0.004157  -0.000071
    33  H    0.042403  -0.000784
    34  H    0.029096   0.000387
    35  H    0.025219   0.001446
    36  H    0.013582  -0.000244
    37  H    0.033366  -0.000358
    38  O   -0.697925  -0.001173
    39  O   -0.668544   0.000513
    40  C    0.409775  -0.000702
    41  C    0.060936   0.001091
    42  H   -0.040788   0.000027
    43  H   -0.049304   0.000002
    44  H   -0.003380   0.000065
    45  H    0.021243   0.000006
    46  H    0.025817  -0.000696
 Sum of Mulliken charges =  -0.00000   5.00000

 Dipole moment (field-independent basis, Debye):
    X=              3.9850    Y=             -7.3553    Z=             -4.2377  Tot=              9.3776
 Quadrupole moment (field-independent basis, Debye-Ang):
   XX=           -198.4425   YY=           -157.3172   ZZ=           -166.9832
   XY=             17.7924   XZ=              7.2276   YZ=              5.1663

 Normal termination of Gaussian 16 at Sun Jun 20 08:17:30 2021.
