 Gaussian 16, Revision A.03,

 -----------------------------------------------------------
 #p opt=modredundant freq=noraman ub3lyp jul-cc-pvdz pop=cm5
 -----------------------------------------------------------

 -----
 title
 -----
 Symbolic Z-matrix:
 Charge =  0 Multiplicity = 6

 SCF Done:  E(UB3LYP) =  -3531.39937763     A.U. after   26 cycles
 SCF Done:  E(UB3LYP) =  -3531.39961058     A.U. after   16 cycles
 SCF Done:  E(UB3LYP) =  -3531.39897495     A.U. after   17 cycles
 SCF Done:  E(UB3LYP) =  -3531.39993784     A.U. after   15 cycles
 SCF Done:  E(UB3LYP) =  -3531.40000709     A.U. after   15 cycles
 SCF Done:  E(UB3LYP) =  -3531.40010054     A.U. after   16 cycles
 SCF Done:  E(UB3LYP) =  -3531.40009418     A.U. after   14 cycles
 SCF Done:  E(UB3LYP) =  -3531.40012831     A.U. after   14 cycles
 SCF Done:  E(UB3LYP) =  -3531.40013808     A.U. after   14 cycles
 SCF Done:  E(UB3LYP) =  -3531.40014249     A.U. after   14 cycles
 SCF Done:  E(UB3LYP) =  -3531.40014469     A.U. after   12 cycles
 SCF Done:  E(UB3LYP) =  -3531.40014655     A.U. after   12 cycles
 SCF Done:  E(UB3LYP) =  -3531.40014708     A.U. after   11 cycles
 SCF Done:  E(UB3LYP) =  -3531.40014724     A.U. after   10 cycles
 Optimization completed.
    -- Stationary point found.
 Normal termination of Gaussian 16 at Sun Jun 20 03:56:47 2021.

 ----------------------------------------------------------------------
 #P Geom=AllCheck Guess=TCheck SCRF=Check GenChk UB3LYP/Jul-CC-pVDZ Fre
 q
 ----------------------------------------------------------------------

 Structure from the checkpoint file:  "checkpoint.chk"
 -----
 title
 -----
 Charge =  0 Multiplicity = 6

 SCF Done:  E(UB3LYP) =  -3531.40014724     A.U. after    2 cycles

  Exact polarizability: 301.918  -3.381 317.732 -29.050  -4.088 274.505
 Approx polarizability: 443.459 -16.352 508.135 -48.061   0.866 436.732

                      1                      2                      3
                      A                      A                      A
 Frequencies --     22.3460                25.9017                33.8504
 Red. masses --      4.3721                10.8704                 6.0043
 Frc consts  --      0.0013                 0.0043                 0.0041
 IR Inten    --      1.4199                 1.3464                 0.9916

                      4                      5                      6
                      A                      A                      A
 Frequencies --     42.2187                56.2007                64.8584
 Red. masses --      4.8854                 4.4224                 4.5406
 Frc consts  --      0.0051                 0.0082                 0.0113
 IR Inten    --      0.9539                 1.2314                 0.5086

                      7                      8                      9
                      A                      A                      A
 Frequencies --     73.8041                77.0195                77.7403
 Red. masses --      7.4338                 3.9824                 5.0188
 Frc consts  --      0.0239                 0.0139                 0.0179
 IR Inten    --      0.3515                 1.5988                 1.2110

                     10                     11                     12
                      A                      A                      A
 Frequencies --     86.9775               102.9425               111.1942
 Red. masses --      5.1900                 7.3906                 5.3055
 Frc consts  --      0.0231                 0.0461                 0.0386
 IR Inten    --      0.4107                 1.0133                 0.4311

                     13                     14                     15
                      A                      A                      A
 Frequencies --    112.3009               115.2184               133.5794
 Red. masses --      7.1101                 4.2078                 7.7196
 Frc consts  --      0.0528                 0.0329                 0.0812
 IR Inten    --      1.9470                 3.5344                 8.2995

                     16                     17                     18
                      A                      A                      A
 Frequencies --    138.3472               153.9600               163.4725
 Red. masses --      4.0659                 3.2863                 3.2090
 Frc consts  --      0.0459                 0.0459                 0.0505
 IR Inten    --     21.2509                 4.2660                 1.1415

                     19                     20                     21
                      A                      A                      A
 Frequencies --    178.7311               187.0674               209.6895
 Red. masses --      2.3201                 1.7660                 2.6644
 Frc consts  --      0.0437                 0.0364                 0.0690
 IR Inten    --      1.4624                 2.7315                18.6070

                     22                     23                     24
                      A                      A                      A
 Frequencies --    219.6652               245.4333               255.0367
 Red. masses --      2.7630                 4.0217                 1.4671
 Frc consts  --      0.0786                 0.1427                 0.0562
 IR Inten    --      4.3711                 8.4198                 1.8832

                     25                     26                     27
                      A                      A                      A
 Frequencies --    275.2859               299.4815               301.2348
 Red. masses --      2.9462                 3.4157                 3.9999
 Frc consts  --      0.1315                 0.1805                 0.2138
 IR Inten    --      1.6733                 5.9406                 2.1408

                     28                     29                     30
                      A                      A                      A
 Frequencies --    312.3027               324.9835               340.4288
 Red. masses --      1.4371                13.7603                 4.3538
 Frc consts  --      0.0826                 0.8563                 0.2973
 IR Inten    --      2.4333                41.7507                22.8187

                     31                     32                     33
                      A                      A                      A
 Frequencies --    343.9315               372.6460               388.0510
 Red. masses --     20.4087                 5.3712                 7.6802
 Frc consts  --      1.4224                 0.4395                 0.6814
 IR Inten    --     56.7000                15.7596                30.9762

                     34                     35                     36
                      A                      A                      A
 Frequencies --    397.3522               415.3315               419.8529
 Red. masses --     12.0484                 2.9489                 4.1488
 Frc consts  --      1.1208                 0.2997                 0.4309
 IR Inten    --     61.5340                 0.6648                 5.6257

                     37                     38                     39
                      A                      A                      A
 Frequencies --    454.1820               482.6199               505.1794
 Red. masses --      3.4088                 2.8448                 2.3314
 Frc consts  --      0.4143                 0.3904                 0.3506
 IR Inten    --      3.2918                 3.3233                 1.9014

                     40                     41                     42
                      A                      A                      A
 Frequencies --    554.2797               593.9896               628.1709
 Red. masses --      3.7246                 2.7562                 6.3112
 Frc consts  --      0.6742                 0.5729                 1.4673
 IR Inten    --     27.0235                 3.0578                 0.5306

                     43                     44                     45
                      A                      A                      A
 Frequencies --    648.3386               678.4910               704.1017
 Red. masses --      5.2975                 3.5459                 3.9070
 Frc consts  --      1.3120                 0.9618                 1.1412
 IR Inten    --     16.7853                20.5900                50.1430

                     46                     47                     48
                      A                      A                      A
 Frequencies --    707.7665               745.2595               754.3383
 Red. masses --      1.7893                 1.5679                 2.3527
 Frc consts  --      0.5281                 0.5131                 0.7888
 IR Inten    --     18.2763                21.8673                17.1895

                     49                     50                     51
                      A                      A                      A
 Frequencies --    775.1028               788.7645               806.0456
 Red. masses --      2.9865                 2.3154                 3.4101
 Frc consts  --      1.0571                 0.8487                 1.3054
 IR Inten    --     20.6332                12.3935                40.0396

                     52                     53                     54
                      A                      A                      A
 Frequencies --    806.6731               837.7036               842.9094
 Red. masses --      1.2818                 3.6080                 1.2553
 Frc consts  --      0.4914                 1.4917                 0.5255
 IR Inten    --      8.1408                11.8750                 1.9044

                     55                     56                     57
                      A                      A                      A
 Frequencies --    854.0502               874.8829               913.8598
 Red. masses --      2.6130                 2.5670                 1.9081
 Frc consts  --      1.1229                 1.1576                 0.9389
 IR Inten    --      3.7014                17.0039                21.4164

                     58                     59                     60
                      A                      A                      A
 Frequencies --    926.7891               957.9581               980.1338
 Red. masses --      1.5696                 2.1467                 1.3964
 Frc consts  --      0.7943                 1.1607                 0.7904
 IR Inten    --      1.9619                11.2753                 1.0332

                     61                     62                     63
                      A                      A                      A
 Frequencies --    984.6905               997.2580              1002.5182
 Red. masses --      2.7372                 3.0128                 1.9539
 Frc consts  --      1.5637                 1.7654                 1.1570
 IR Inten    --      3.1638                 2.4627                 0.1767

                     64                     65                     66
                      A                      A                      A
 Frequencies --   1004.2068              1017.6517              1020.3495
 Red. masses --      2.6263                 1.3670                 1.9760
 Frc consts  --      1.5604                 0.8341                 1.2121
 IR Inten    --      4.1735                 0.2541                 2.8208

                     67                     68                     69
                      A                      A                      A
 Frequencies --   1039.8029              1052.3435              1066.4042
 Red. masses --      2.8521                 2.4144                 1.9443
 Frc consts  --      1.8168                 1.5754                 1.3027
 IR Inten    --     48.3121                13.5509                15.6465

                     70                     71                     72
                      A                      A                      A
 Frequencies --   1084.5026              1087.5880              1107.8781
 Red. masses --      2.6587                 2.6411                 1.6441
 Frc consts  --      1.8424                 1.8406                 1.1889
 IR Inten    --    161.9591                51.4800                11.3410

                     73                     74                     75
                      A                      A                      A
 Frequencies --   1131.9487              1146.8542              1168.7939
 Red. masses --      2.1714                 2.1939                 1.5632
 Frc consts  --      1.6393                 1.7001                 1.2582
 IR Inten    --     10.0762                37.6291                 3.2110

                     76                     77                     78
                      A                      A                      A
 Frequencies --   1169.8716              1174.8387              1204.1184
 Red. masses --      1.9954                 1.1589                 1.8029
 Frc consts  --      1.6090                 0.9424                 1.5402
 IR Inten    --     18.2636                 4.4606                83.8957

                     79                     80                     81
                      A                      A                      A
 Frequencies --   1207.0610              1212.3245              1222.1001
 Red. masses --      1.2330                 1.9752                 1.8622
 Frc consts  --      1.0585                 1.7104                 1.6386
 IR Inten    --      8.5380               101.3501                40.3979

                     82                     83                     84
                      A                      A                      A
 Frequencies --   1251.9985              1258.1479              1281.3858
 Red. masses --      1.8313                 1.4202                 1.1859
 Frc consts  --      1.6913                 1.3245                 1.1472
 IR Inten    --    119.1854                25.5982                21.0052

                     85                     86                     87
                      A                      A                      A
 Frequencies --   1283.5751              1295.0791              1309.6117
 Red. masses --      1.3994                 1.3898                 1.1398
 Frc consts  --      1.3584                 1.3734                 1.1518
 IR Inten    --     69.3779                12.9448                65.4472

                     88                     89                     90
                      A                      A                      A
 Frequencies --   1311.6653              1332.6342              1345.3727
 Red. masses --      1.3550                 1.8963                 1.2601
 Frc consts  --      1.3735                 1.9842                 1.3438
 IR Inten    --     16.0938                 6.6358                21.9060

                     91                     92                     93
                      A                      A                      A
 Frequencies --   1356.9434              1361.4643              1369.1359
 Red. masses --      2.6190                 1.2870                 1.4289
 Frc consts  --      2.8413                 1.4055                 1.5781
 IR Inten    --      0.4669                27.0928                33.5874

                     94                     95                     96
                      A                      A                      A
 Frequencies --   1379.0845              1396.2579              1418.0047
 Red. masses --      1.4199                 1.5900                 1.5421
 Frc consts  --      1.5910                 1.8263                 1.8269
 IR Inten    --     42.1811                56.5900                 7.3219

                     97                     98                     99
                      A                      A                      A
 Frequencies --   1428.5324              1459.3270              1468.8418
 Red. masses --      1.1174                 1.6842                 2.1986
 Frc consts  --      1.3435                 2.1132                 2.7948
 IR Inten    --      5.7116                45.9227                 8.3632

                    100                    101                    102
                      A                      A                      A
 Frequencies --   1474.6396              1481.4878              1487.1588
 Red. masses --      1.0398                 1.1124                 1.0517
 Frc consts  --      1.3322                 1.4385                 1.3704
 IR Inten    --      4.7644                 4.6687                 1.6020

                    103                    104                    105
                      A                      A                      A
 Frequencies --   1492.1388              1499.5136              1506.4277
 Red. masses --      1.2122                 1.1453                 1.3548
 Frc consts  --      1.5901                 1.5172                 1.8114
 IR Inten    --     11.4887                16.4169                41.8323

                    106                    107                    108
                      A                      A                      A
 Frequencies --   1507.8519              1519.0221              1624.2955
 Red. masses --      1.0912                 2.0959                 5.7151
 Frc consts  --      1.4617                 2.8494                 8.8839
 IR Inten    --      7.0488                10.2239                 0.5574

                    109                    110                    111
                      A                      A                      A
 Frequencies --   1643.8783              1766.7096              2614.8551
 Red. masses --      5.8210                11.7891                 1.0708
 Frc consts  --      9.2681                21.6802                 4.3139
 IR Inten    --      0.0939               210.5781               889.5766

                    112                    113                    114
                      A                      A                      A
 Frequencies --   2940.7917              3036.7865              3039.4697
 Red. masses --      1.0592                 1.0683                 1.0352
 Frc consts  --      5.3972                 5.8046                 5.6349
 IR Inten    --     50.5018                14.9914                15.1069

                    115                    116                    117
                      A                      A                      A
 Frequencies --   3056.9440              3074.9208              3076.1849
 Red. masses --      1.0583                 1.0666                 1.0780
 Frc consts  --      5.8270                 5.9416                 6.0101
 IR Inten    --     17.1434                12.9924                12.8060

                    118                    119                    120
                      A                      A                      A
 Frequencies --   3087.8842              3095.4305              3100.5714
 Red. masses --      1.0695                 1.0632                 1.1072
 Frc consts  --      6.0083                 6.0021                 6.2715
 IR Inten    --      0.9598                 3.9927                 3.9514

                    121                    122                    123
                      A                      A                      A
 Frequencies --   3101.1663              3112.6360              3116.0115
 Red. masses --      1.0901                 1.0914                 1.1014
 Frc consts  --      6.1767                 6.2302                 6.3005
 IR Inten    --      5.9338                 6.8377                20.8070

                    124                    125                    126
                      A                      A                      A
 Frequencies --   3128.8733              3129.0856              3161.7896
 Red. masses --      1.1047                 1.1049                 1.1063
 Frc consts  --      6.3718                 6.3740                 6.5158
 IR Inten    --      0.7437                41.6812                 7.7773

                    127                    128                    129
                      A                      A                      A
 Frequencies --   3165.5763              3175.9100              3184.6775
 Red. masses --      1.0843                 1.0881                 1.0929
 Frc consts  --      6.4021                 6.4660                 6.5305
 IR Inten    --      2.2388                 5.2093                23.2383

                    130                    131                    132
                      A                      A                      A
 Frequencies --   3194.7076              3194.9645              3220.3420
 Red. masses --      1.1030                 1.0981                 1.0924
 Frc consts  --      6.6329                 6.6040                 6.6746
 IR Inten    --      0.6340                14.8880                 2.5034

 - Thermochemistry -
 -------------------
 Temperature   298.150 Kelvin.  Pressure   1.00000 Atm.
 Atom     1 has atomic number  6 and mass  12.00000

 Molecular mass:   434.99839 amu.
 Principal axes and moments of inertia in atomic units:
                           1         2         3
     Eigenvalues --  8950.56885********************
           X            0.99501   0.09910  -0.01196
           Y           -0.09884   0.99489   0.02050
           Z            0.01393  -0.01922   0.99972
 This molecule is an asymmetric top.
 Rotational symmetry number  1.
 Warning -- assumption of classical behavior for rotation
           may cause significant error
 Rotational temperatures (Kelvin)      0.00968     0.00739     0.00666
 Rotational constants (GHZ):           0.20163     0.15400     0.13878
 Zero-point vibrational energy     940999.9 (Joules/Mol)
                                  224.90437 (Kcal/Mol)
 Warning -- explicit consideration of  41 degrees of freedom as
           vibrations may cause significant error
 Vibrational temperatures:     32.15    37.27    48.70    60.74    80.86
          (Kelvin)             93.32   106.19   110.81   111.85   125.14
                              148.11   159.98   161.58   165.77   192.19
                              199.05   221.51   235.20   257.15   269.15
                              301.70   316.05   353.12   366.94   396.08
                              430.89   433.41   449.33   467.58   489.80
                              494.84   536.15   558.32   571.70   597.57
                              604.07   653.47   694.38   726.84   797.48
                              854.62   903.80   932.81   976.20  1013.05
                             1018.32  1072.26  1085.32  1115.20  1134.86
                             1159.72  1160.62  1205.27  1212.76  1228.79
                             1258.76  1314.84  1333.44  1378.29  1410.19
                             1416.75  1434.83  1442.40  1444.83  1464.17
                             1468.06  1496.04  1514.09  1534.32  1560.36
                             1564.80  1593.99  1628.62  1650.07  1681.63
                             1683.18  1690.33  1732.46  1736.69  1744.26
                             1758.33  1801.35  1810.19  1843.63  1846.78
                             1863.33  1884.24  1887.19  1917.36  1935.69
                             1952.34  1958.84  1969.88  1984.20  2008.90
                             2040.19  2055.34  2099.65  2113.34  2121.68
                             2131.53  2139.69  2146.85  2157.47  2167.41
                             2169.46  2185.53  2337.00  2365.17  2541.90
                             3762.19  4231.14  4369.26  4373.12  4398.26
                             4424.13  4425.94  4442.78  4453.63  4461.03
                             4461.89  4478.39  4483.25  4501.75  4502.06
                             4549.11  4554.56  4569.43  4582.04  4596.47
                             4596.84  4633.35

 Zero-point correction=                           0.358408 (Hartree/Particle)
 Thermal correction to Energy=                    0.385936
 Thermal correction to Enthalpy=                  0.386880
 Thermal correction to Gibbs Free Energy=         0.296334
 Sum of electronic and zero-point Energies=          -3531.041739
 Sum of electronic and thermal Energies=             -3531.014211
 Sum of electronic and thermal Enthalpies=           -3531.013267
 Sum of electronic and thermal Free Energies=        -3531.103813

                     E (Thermal)             CV                S
                      KCal/Mol        Cal/Mol-Kelvin    Cal/Mol-Kelvin
 Total                  242.178             98.534            190.569
 Electronic               0.000              0.000              3.561
 Translational            0.889              2.981             44.100
 Rotational               0.889              2.981             35.566
 Vibrational            240.401             92.572            107.343
 Vibration     1          0.593              1.985              6.414
 Vibration     2          0.593              1.985              6.121
 Vibration     3          0.594              1.983              5.590
 Vibration     4          0.595              1.980              5.152
 Vibration     5          0.596              1.975              4.586
 Vibration     6          0.597              1.971              4.304
 Vibration     7          0.599              1.966              4.049
 Vibration     8          0.599              1.964              3.965
 Vibration     9          0.599              1.964              3.947
 Vibration    10          0.601              1.958              3.727
 Vibration    11          0.605              1.947              3.398
 Vibration    12          0.607              1.940              3.248
 Vibration    13          0.607              1.939              3.229
 Vibration    14          0.608              1.937              3.179
 Vibration    15          0.613              1.920              2.894
 Vibration    16          0.614              1.915              2.827
 Vibration    17          0.619              1.898              2.623
 Vibration    18          0.623              1.887              2.509
 Vibration    19          0.629              1.868              2.342
 Vibration    20          0.632              1.858              2.257
 Vibration    21          0.642              1.826              2.046
 Vibration    22          0.647              1.811              1.962
 Vibration    23          0.660              1.770              1.763
 Vibration    24          0.665              1.754              1.696
 Vibration    25          0.677              1.719              1.563
 Vibration    26          0.692              1.675              1.420
 Vibration    27          0.693              1.671              1.410
 Vibration    28          0.701              1.650              1.350
 Vibration    29          0.709              1.626              1.285
 Vibration    30          0.720              1.595              1.210
 Vibration    31          0.723              1.588              1.194
 Vibration    32          0.744              1.528              1.069
 Vibration    33          0.756              1.496              1.008
 Vibration    34          0.764              1.476              0.972
 Vibration    35          0.779              1.437              0.908
 Vibration    36          0.783              1.427              0.892
 Vibration    37          0.813              1.352              0.783
 Vibration    38          0.839              1.289              0.703
 Vibration    39          0.860              1.239              0.645
 Vibration    40          0.910              1.130              0.535
 Vibration    41          0.952              1.045              0.460

                           ! Non-Optimized Parameters !
 Normal termination of Gaussian 16 at Sun Jun 20 08:36:18 2021.

 ----------------------------------------------------------------------
 #p ub3lyp jul-cc-pvdz pop=cm5 scrf=(pcm,solvent=dichloroethane) guess=
 read geom=allcheck
 ----------------------------------------------------------------------

 Structure from the checkpoint file:  "checkpoint.chk"
 -----
 title
 -----
 Charge =  0 Multiplicity = 6

 SCF Done:  E(UB3LYP) =  -3531.43063900     A.U. after   17 cycles
 Normal termination of Gaussian 16 at Sun Jun 20 09:03:41 2021.
 Gaussian 16:  ES64L-G16RevA.03 25-Dec-2016

 ----------------------------------------------------------------------
 #p ub3lyp jul-cc-pvdz pop=cm5 scrf=(pcm,solvent=water) guess=read geom
 =allcheck
 ----------------------------------------------------------------------

 Structure from the checkpoint file:  "checkpoint.chk"
 -----
 title
 -----
 Charge =  0 Multiplicity = 6

                         Standard orientation:
 ---------------------------------------------------------------------
 Center     Atomic      Atomic             Coordinates (Angstroms)
 Number     Number       Type             X           Y           Z
 ---------------------------------------------------------------------
      1          6           0       -1.671123    1.793366    1.836690
      2          6           0       -1.199313    0.702430    1.089468
      3          6           0       -1.495306   -0.590334    1.547762
      4          6           0       -2.229869   -0.784828    2.719156
      5          6           0       -2.690893    0.308875    3.456636
      6          6           0       -2.408724    1.600623    3.008841
      7          6           0       -0.414431    0.858754   -0.238231
      8          6           0       -1.444906    1.027958   -1.439017
      9          6           0       -1.818648    2.509761   -1.418513
     10          6           0       -0.545730    3.260972   -0.974463
     11          6           0        0.352656    2.147765   -0.232469
     12          6           0        1.603831    2.313821   -0.992458
     13          6           0        1.901339    1.632880   -2.237686
     14          8           0        0.384243   -0.263879   -0.465147
     15         26           0        1.848301   -1.113760    0.297503
     16         17           0        3.372703   -1.254048   -1.387690
     17          6           0        2.628535    3.200991   -0.409988
     18         17           0        1.346956   -3.101459    1.119064
     19         17           0        2.690300    0.334926    1.807764
     20          1           0       -1.130967   -1.451702    0.992603
     21          1           0       -2.431651   -1.801027    3.060673
     22          1           0       -3.260249    0.156253    4.374595
     23          1           0       -2.758372    2.466485    3.573114
     24          1           0       -1.474822    2.819955    1.527684
     25          1           0       -0.890282    0.763020   -2.348564
     26          6           0       -2.657931    0.113422   -1.383870
     27          1           0       -2.177431    2.862506   -2.393210
     28          1           0       -2.628610    2.666619   -0.696734
     29          1           0       -0.030512    3.696830   -1.843728
     30          1           0       -0.733103    4.089728   -0.282154
     31          1           0        0.545019    2.472410    0.794440
     32          1           0        2.194003    4.001740    0.201882
     33          1           0        3.164279    2.536685    0.303000
     34          1           0        3.344756    3.589124   -1.141281
     35          1           0        2.571680    2.201653   -2.892646
     36          1           0        2.490170    0.718675   -1.910936
     37          1           0        1.037425    1.221932   -2.762672
     38          8           0       -2.339763   -1.139628   -1.745171
     39          8           0       -3.775393    0.473273   -1.074674
     40          6           0       -3.410190   -2.122320   -1.683974
     41          6           0       -2.822750   -3.461033   -2.082341
     42          1           0       -3.810679   -2.129129   -0.661400
     43          1           0       -4.213985   -1.799338   -2.359932
     44          1           0       -3.607711   -4.229911   -2.040388
     45          1           0       -2.424582   -3.428309   -3.105931
     46          1           0       -2.011469   -3.753310   -1.402173
 ---------------------------------------------------------------------

 SCF Done:  E(UB3LYP) =  -3531.43645997     A.U. after   14 cycles

 The electronic state is 6-A.
 Alpha  occ. eigenvalues -- -256.19503-101.51815-101.51801-101.51767 -30.18902
 Alpha  occ. eigenvalues --  -26.04287 -26.04147 -26.03969 -19.20161 -19.15461
 Alpha  occ. eigenvalues --  -19.15120 -10.32722 -10.32589 -10.28048 -10.24745
 Alpha  occ. eigenvalues --  -10.23615 -10.23173 -10.22431 -10.22072 -10.21790
 Alpha  occ. eigenvalues --  -10.21063 -10.20469 -10.20257 -10.20040 -10.19933
 Alpha  occ. eigenvalues --  -10.19883 -10.19631 -10.18664  -9.43512  -9.43511
 Alpha  occ. eigenvalues --   -9.43509  -7.19376  -7.19367  -7.19361  -7.19074
 Alpha  occ. eigenvalues --   -7.19073  -7.19059  -7.19041  -7.19036  -7.19024
 Alpha  occ. eigenvalues --   -3.66627  -2.44273  -2.43994  -2.43675  -1.11982
 Alpha  occ. eigenvalues --   -1.03487  -1.02584  -0.90390  -0.87020  -0.84647
 Alpha  occ. eigenvalues --   -0.79747  -0.79160  -0.79052  -0.78940  -0.77254
 Alpha  occ. eigenvalues --   -0.76202  -0.75614  -0.74788  -0.72530  -0.66903
 Alpha  occ. eigenvalues --   -0.64042  -0.62076  -0.61074  -0.59964  -0.57623
 Alpha  occ. eigenvalues --   -0.56543  -0.55004  -0.53233  -0.51359  -0.50823
 Alpha  occ. eigenvalues --   -0.49984  -0.49174  -0.48556  -0.48306  -0.48043
 Alpha  occ. eigenvalues --   -0.47153  -0.46984  -0.46790  -0.46498  -0.45886
 Alpha  occ. eigenvalues --   -0.44988  -0.44708  -0.43795  -0.43194  -0.42896
 Alpha  occ. eigenvalues --   -0.42638  -0.42296  -0.41669  -0.41059  -0.40383
 Alpha  occ. eigenvalues --   -0.39993  -0.39112  -0.37834  -0.37633  -0.37579
 Alpha  occ. eigenvalues --   -0.37117  -0.36466  -0.35944  -0.35840  -0.35332
 Alpha  occ. eigenvalues --   -0.35105  -0.34088  -0.33685  -0.31695  -0.31594
 Alpha  occ. eigenvalues --   -0.30827  -0.30625  -0.30425  -0.30304  -0.29662
 Alpha  occ. eigenvalues --   -0.29445  -0.28680  -0.27847  -0.26546  -0.26123
 Alpha virt. eigenvalues --   -0.13126  -0.02833  -0.02699  -0.01596  -0.01341
 Alpha virt. eigenvalues --   -0.00310  -0.00093   0.00088   0.01456   0.01585
 Alpha virt. eigenvalues --    0.01648   0.01797   0.02315   0.03146   0.03739

  Beta  occ. eigenvalues -- -256.19317-101.51659-101.51652-101.51607 -30.09994
  Beta  occ. eigenvalues --  -25.96800 -25.96732 -25.96592 -19.20161 -19.15116
  Beta  occ. eigenvalues --  -19.14575 -10.32723 -10.32586 -10.28032 -10.24745
  Beta  occ. eigenvalues --  -10.23597 -10.23173 -10.22430 -10.22073 -10.21762
  Beta  occ. eigenvalues --  -10.21042 -10.20465 -10.20256 -10.20038 -10.19933
  Beta  occ. eigenvalues --  -10.19883 -10.19634 -10.18664  -9.43371  -9.43355
  Beta  occ. eigenvalues --   -9.43348  -7.19104  -7.19100  -7.19089  -7.18904
  Beta  occ. eigenvalues --   -7.18850  -7.18847  -7.18843  -7.18834  -7.18833
  Beta  occ. eigenvalues --   -3.45853  -2.22222  -2.22147  -2.21901  -1.11978
  Beta  occ. eigenvalues --   -1.03481  -1.00898  -0.90189  -0.86956  -0.84561
  Beta  occ. eigenvalues --   -0.79061  -0.78729  -0.78052  -0.77937  -0.77130
  Beta  occ. eigenvalues --   -0.76164  -0.75601  -0.74764  -0.72373  -0.66816
  Beta  occ. eigenvalues --   -0.63976  -0.62011  -0.61023  -0.59865  -0.57519
  Beta  occ. eigenvalues --   -0.56180  -0.54920  -0.51829  -0.51274  -0.50761
  Beta  occ. eigenvalues --   -0.49876  -0.48903  -0.48278  -0.48225  -0.47323
  Beta  occ. eigenvalues --   -0.45961  -0.44765  -0.44192  -0.43226  -0.43000
  Beta  occ. eigenvalues --   -0.42761  -0.42308  -0.41761  -0.41076  -0.40420
  Beta  occ. eigenvalues --   -0.39983  -0.38891  -0.37824  -0.37639  -0.37572
  Beta  occ. eigenvalues --   -0.37388  -0.36443  -0.36306  -0.35901  -0.35386
  Beta  occ. eigenvalues --   -0.35272  -0.35197  -0.35151  -0.32823  -0.32584
  Beta  occ. eigenvalues --   -0.32217  -0.31872  -0.31616  -0.31254  -0.29569
  Beta  occ. eigenvalues --   -0.29473  -0.28657  -0.28618  -0.26555  -0.26114
  Beta virt. eigenvalues --   -0.13608  -0.13373  -0.13134  -0.12307  -0.11751
  Beta virt. eigenvalues --   -0.10976  -0.02792  -0.02671  -0.01495  -0.01288
  Beta virt. eigenvalues --   -0.00267  -0.00052   0.00116   0.01483   0.01599

 Mulliken charges and spin densities:
               1          2
     1  C   -0.307019  -0.000175
     2  C    2.637630   0.015464
     3  C   -0.649298   0.001616
     4  C    0.072626   0.006906
     5  C    0.217193   0.001065
     6  C   -0.181517   0.001141
     7  C   -1.392553  -0.018953
     8  C    0.446094   0.016919
     9  C    0.606863   0.003080
    10  C    0.468009  -0.001224
    11  C    1.797113   0.003663
    12  C   -1.241503   0.003736
    13  C    0.029575  -0.004235
    14  O   -0.549155   0.305927
    15  Fe   0.587923   4.050371
    16  Cl  -0.576418   0.186791
    17  C    0.417097  -0.000523
    18  Cl  -0.510517   0.222788
    19  Cl  -0.562875   0.206819
    20  H   -0.245591  -0.001315
    21  H   -0.167884  -0.000023
    22  H   -0.164693  -0.000003
    23  H   -0.161148   0.000139
    24  H   -0.233642   0.000012
    25  H   -0.198188  -0.000423
    26  C    0.915630  -0.002599
    27  H   -0.141247   0.000608
    28  H   -0.055116   0.000067
    29  H   -0.098824   0.000246
    30  H   -0.086132   0.000009
    31  H   -0.207867   0.000031
    32  H    0.047362   0.000136
    33  H    0.124751   0.000339
    34  H    0.005475   0.000013
    35  H    0.010696  -0.000049
    36  H    0.209685   0.001483
    37  H    0.057861   0.000047
    38  O   -0.709873  -0.001726
    39  O   -0.650800   0.001413
    40  C    0.442888   0.000203
    41  C    0.052655   0.000245
    42  H   -0.040855   0.000014
    43  H   -0.051060   0.000007
    44  H   -0.004968   0.000001
    45  H    0.020843  -0.000004
    46  H    0.020772  -0.000045
 Sum of Mulliken charges =  -0.00000   5.00000

 Dipole moment (field-independent basis, Debye):
    X=             -2.9478    Y=             13.8724    Z=             -5.8152  Tot=             15.3281
 Quadrupole moment (field-independent basis, Debye-Ang):
   XX=           -197.0711   YY=           -150.4621   ZZ=           -169.5553
   XY=             32.8760   XZ=            -10.8354   YZ=             -5.6487

 Normal termination of Gaussian 16 at Sun Jun 20 09:26:15 2021.
