 Gaussian 16, Revision A.03,

 -----------------------------------------------------------
 #p opt=modredundant freq=noraman ub3lyp jul-cc-pvdz pop=cm5
 -----------------------------------------------------------

 -----
 title
 -----
 Symbolic Z-matrix:
 Charge =  0 Multiplicity = 6

 SCF Done:  E(UB3LYP) =  -3531.42094102     A.U. after   26 cycles
 SCF Done:  E(UB3LYP) =  -3531.41751385     A.U. after   24 cycles
 SCF Done:  E(UB3LYP) =  -3531.41835267     A.U. after   18 cycles
 SCF Done:  E(UB3LYP) =  -3531.42136823     A.U. after   14 cycles
 SCF Done:  E(UB3LYP) =  -3531.42111786     A.U. after   17 cycles
 SCF Done:  E(UB3LYP) =  -3531.42147154     A.U. after   17 cycles
 SCF Done:  E(UB3LYP) =  -3531.42183038     A.U. after   15 cycles
 SCF Done:  E(UB3LYP) =  -3531.42186354     A.U. after   15 cycles
 SCF Done:  E(UB3LYP) =  -3531.42184322     A.U. after   16 cycles
 SCF Done:  E(UB3LYP) =  -3531.42196609     A.U. after   15 cycles
 SCF Done:  E(UB3LYP) =  -3531.42208553     A.U. after   11 cycles
 SCF Done:  E(UB3LYP) =  -3531.42208669     A.U. after   11 cycles
 SCF Done:  E(UB3LYP) =  -3531.42208722     A.U. after   11 cycles
 SCF Done:  E(UB3LYP) =  -3531.42208752     A.U. after   11 cycles
 SCF Done:  E(UB3LYP) =  -3531.42208766     A.U. after   11 cycles
 SCF Done:  E(UB3LYP) =  -3531.42208771     A.U. after   10 cycles
 SCF Done:  E(UB3LYP) =  -3531.42208775     A.U. after   10 cycles
 Optimization completed.
    -- Stationary point found.
 Normal termination of Gaussian 16 at Sun Jun 20 05:28:04 2021.

 ----------------------------------------------------------------------
 #P Geom=AllCheck Guess=TCheck SCRF=Check GenChk UB3LYP/Jul-CC-pVDZ Fre
 q
 ----------------------------------------------------------------------

 Structure from the checkpoint file:  "checkpoint.chk"
 -----
 title
 -----
 Charge =  0 Multiplicity = 6

 SCF Done:  E(UB3LYP) =  -3531.42208775     A.U. after    2 cycles

  Exact polarizability: 322.090  -2.932 295.654 -14.253  -1.474 296.971
 Approx polarizability: 467.601  -2.181 466.471  -4.498 -10.136 496.076

 ******    1 imaginary frequencies (negative Signs) ******

                      1                      2                      3
                      A                      A                      A
 Frequencies --   -174.5140                11.5209                25.0553
 Red. masses --      7.7293                14.8639                 3.8563
 Frc consts  --      0.1387                 0.0012                 0.0014
 IR Inten    --    294.2503                 0.0204                 0.7771

                      4                      5                      6
                      A                      A                      A
 Frequencies --     31.9256                37.0749                48.4918
 Red. masses --      5.3368                 6.8788                 3.6760
 Frc consts  --      0.0032                 0.0056                 0.0051
 IR Inten    --      1.9376                 0.7512                 2.3257

                      7                      8                      9
                      A                      A                      A
 Frequencies --     56.5456                64.9273                71.9551
 Red. masses --      5.6131                 2.7797                 2.7012
 Frc consts  --      0.0106                 0.0069                 0.0082
 IR Inten    --      0.3633                 0.1671                 1.7958

                     10                     11                     12
                      A                      A                      A
 Frequencies --     85.6988                88.4970                93.3259
 Red. masses --      9.0646                12.8681                 3.7490
 Frc consts  --      0.0392                 0.0594                 0.0192
 IR Inten    --      2.6825                 0.1834                10.2089

                     13                     14                     15
                      A                      A                      A
 Frequencies --     99.8631               111.5917               116.3573
 Red. masses --      5.3530                 3.3166                 4.9865
 Frc consts  --      0.0315                 0.0243                 0.0398
 IR Inten    --      7.8777                 0.1643                 1.2645

                     16                     17                     18
                      A                      A                      A
 Frequencies --    121.0232               126.5932               133.0265
 Red. masses --     11.9846                 2.5676                 1.9939
 Frc consts  --      0.1034                 0.0242                 0.0208
 IR Inten    --      0.6825                 1.3757                14.4359

                     19                     20                     21
                      A                      A                      A
 Frequencies --    150.5617               155.0094               164.5968
 Red. masses --      3.1051                 1.9446                 3.1215
 Frc consts  --      0.0415                 0.0275                 0.0498
 IR Inten    --      1.3013                 1.5436                 2.7341

                     22                     23                     24
                      A                      A                      A
 Frequencies --    186.9784               202.5600               234.7571
 Red. masses --      1.7706                 2.8290                 3.1794
 Frc consts  --      0.0365                 0.0684                 0.1032
 IR Inten    --      2.9187                 3.3323                 2.8271

                     25                     26                     27
                      A                      A                      A
 Frequencies --    246.9540               262.2899               278.8375
 Red. masses --      2.5479                 2.0772                 3.1972
 Frc consts  --      0.0916                 0.0842                 0.1465
 IR Inten    --      6.9166                 5.5769                10.2154

                     28                     29                     30
                      A                      A                      A
 Frequencies --    293.8292               314.1957               341.1552
 Red. masses --      5.8305                 4.8922                27.3041
 Frc consts  --      0.2966                 0.2845                 1.8723
 IR Inten    --      5.0817                 9.4104                55.6888

                     31                     32                     33
                      A                      A                      A
 Frequencies --    346.5429               353.9785               388.7564
 Red. masses --      4.0724                 7.2894                39.9141
 Frc consts  --      0.2881                 0.5381                 3.5541
 IR Inten    --      8.8908                 1.8315                83.2832

                     34                     35                     36
                      A                      A                      A
 Frequencies --    394.0707               403.6758               407.7992
 Red. masses --     34.3393                 3.0922                 4.0882
 Frc consts  --      3.1419                 0.2969                 0.4006
 IR Inten    --     83.3953                 3.3243                16.2194

                     37                     38                     39
                      A                      A                      A
 Frequencies --    418.1636               452.7222               499.3589
 Red. masses --      3.0287                 4.4254                 2.2552
 Frc consts  --      0.3120                 0.5344                 0.3313
 IR Inten    --      1.1118                42.1655                 3.5239

                     40                     41                     42
                      A                      A                      A
 Frequencies --    508.3879               544.3564               578.3587
 Red. masses --      2.9368                 3.7532                 5.9909
 Frc consts  --      0.4472                 0.6553                 1.1807
 IR Inten    --      0.9328                42.9576                41.0802

                     43                     44                     45
                      A                      A                      A
 Frequencies --    624.1354               627.7085               685.3603
 Red. masses --      3.7265                 6.2524                 5.7959
 Frc consts  --      0.8553                 1.4515                 1.6040
 IR Inten    --     64.7930                 1.4920                11.0971

                     46                     47                     48
                      A                      A                      A
 Frequencies --    709.5710               722.6055               760.4344
 Red. masses --      2.0658                 2.0607                 2.5662
 Frc consts  --      0.6128                 0.6340                 0.8743
 IR Inten    --     27.1120                36.6338                16.8046

                     49                     50                     51
                      A                      A                      A
 Frequencies --    787.0043               805.9454               824.7781
 Red. masses --      3.0384                 1.2007                 4.0554
 Frc consts  --      1.1088                 0.4595                 1.6254
 IR Inten    --     18.2759                 8.7769                80.6196

                     52                     53                     54
                      A                      A                      A
 Frequencies --    837.9128               842.7438               862.5723
 Red. masses --      2.2190                 2.7521                 1.2457
 Frc consts  --      0.9179                 1.1516                 0.5461
 IR Inten    --     23.0173                 3.8034                 1.2952

                     55                     56                     57
                      A                      A                      A
 Frequencies --    869.5352               884.3100               905.3201
 Red. masses --      1.3611                 2.6371                 2.7948
 Frc consts  --      0.6063                 1.2150                 1.3496
 IR Inten    --      0.8926                11.5027                 4.3616

                     58                     59                     60
                      A                      A                      A
 Frequencies --    945.3463               969.9259               971.2400
 Red. masses --      1.5729                 2.1310                 3.1667
 Frc consts  --      0.8282                 1.1812                 1.7600
 IR Inten    --      7.8659                 2.7178                 3.1782

                     61                     62                     63
                      A                      A                      A
 Frequencies --    997.1674               997.8521               999.5138
 Red. masses --      1.4226                 1.5521                 2.4047
 Frc consts  --      0.8334                 0.9105                 1.4154
 IR Inten    --      9.4162                15.7876                41.3684

                     64                     65                     66
                      A                      A                      A
 Frequencies --   1004.8812              1010.3657              1034.8276
 Red. masses --      3.6442                 1.4381                 1.8166
 Frc consts  --      2.1681                 0.8650                 1.1462
 IR Inten    --      6.2521                 3.7267                32.9526

                     67                     68                     69
                      A                      A                      A
 Frequencies --   1040.9508              1055.4186              1068.7542
 Red. masses --      2.3463                 2.1233                 2.1998
 Frc consts  --      1.4979                 1.3935                 1.4805
 IR Inten    --     40.4103                 4.3830                28.1315

                     70                     71                     72
                      A                      A                      A
 Frequencies --   1075.6652              1101.1989              1110.3978
 Red. masses --      2.1106                 1.6858                 1.7445
 Frc consts  --      1.4388                 1.2044                 1.2673
 IR Inten    --     12.3662                34.9751                16.8620

                     73                     74                     75
                      A                      A                      A
 Frequencies --   1112.8531              1132.1686              1167.7319
 Red. masses --      1.9169                 2.1969                 1.5542
 Frc consts  --      1.3987                 1.6591                 1.2487
 IR Inten    --     25.0071                 7.9484                 6.7066

                     76                     77                     78
                      A                      A                      A
 Frequencies --   1175.0050              1189.0346              1201.2122
 Red. masses --      1.0854                 1.8288                 1.6520
 Frc consts  --      0.8829                 1.5234                 1.4045
 IR Inten    --      0.9887                72.1680               100.7831

                     79                     80                     81
                      A                      A                      A
 Frequencies --   1208.4609              1211.4987              1232.7695
 Red. masses --      1.3184                 2.5703                 1.4710
 Frc consts  --      1.1344                 2.2227                 1.3171
 IR Inten    --     40.8757               288.8394                37.3868

                     82                     83                     84
                      A                      A                      A
 Frequencies --   1257.3738              1263.2948              1282.6240
 Red. masses --      1.2605                 1.5657                 1.1022
 Frc consts  --      1.1741                 1.4722                 1.0684
 IR Inten    --     30.8852                31.5489                 3.2454

                     85                     86                     87
                      A                      A                      A
 Frequencies --   1311.9161              1324.1243              1332.1600
 Red. masses --      3.4332                 1.3920                 1.7974
 Frc consts  --      3.4815                 1.4380                 1.8794
 IR Inten    --    371.2877                22.2731                 4.5882

                     88                     89                     90
                      A                      A                      A
 Frequencies --   1337.7456              1349.9086              1359.3517
 Red. masses --      1.5708                 1.2678                 2.4191
 Frc consts  --      1.6563                 1.3612                 2.6337
 IR Inten    --     82.4743                11.8643                 2.0077

                     91                     92                     93
                      A                      A                      A
 Frequencies --   1363.1170              1371.6449              1390.6151
 Red. masses --      1.4546                 1.2270                 1.5312
 Frc consts  --      1.5924                 1.3601                 1.7446
 IR Inten    --     93.2097                26.0652                31.3828

                     94                     95                     96
                      A                      A                      A
 Frequencies --   1396.4806              1417.9210              1439.5650
 Red. masses --      1.6393                 1.5452                 1.0858
 Frc consts  --      1.8835                 1.8304                 1.3258
 IR Inten    --    117.3886                17.9093                 4.7778

                     97                     98                     99
                      A                      A                      A
 Frequencies --   1451.3536              1465.9786              1469.9117
 Red. masses --      1.0840                 1.3398                 1.7696
 Frc consts  --      1.3453                 1.6965                 2.2527
 IR Inten    --     32.4380                 6.9591                38.0610

                    100                    101                    102
                      A                      A                      A
 Frequencies --   1474.8232              1479.6477              1485.3738
 Red. masses --      1.0400                 1.0789                 1.0531
 Frc consts  --      1.3327                 1.3917                 1.3690
 IR Inten    --      5.4992                 5.0097                 0.9055

                    103                    104                    105
                      A                      A                      A
 Frequencies --   1489.7493              1502.7751              1504.6627
 Red. masses --      1.1667                 1.1007                 1.0846
 Frc consts  --      1.5255                 1.4645                 1.4468
 IR Inten    --      3.7825                14.1007                 4.6367

                    106                    107                    108
                      A                      A                      A
 Frequencies --   1517.5876              1557.1266              1621.2066
 Red. masses --      2.1438                 3.5611                 5.6388
 Frc consts  --      2.9090                 5.0873                 8.7320
 IR Inten    --      4.1631                87.1084                 0.3891

                    109                    110                    111
                      A                      A                      A
 Frequencies --   1640.7228              1749.0425              2976.5581
 Red. masses --      5.6432                10.7796                 1.0532
 Frc consts  --      8.9505                19.4292                 5.4976
 IR Inten    --      2.3013               152.7302                20.0398

                    112                    113                    114
                      A                      A                      A
 Frequencies --   3008.4148              3041.0623              3057.6186
 Red. masses --      1.0446                 1.0351                 1.0662
 Frc consts  --      5.5701                 5.6403                 5.8732
 IR Inten    --      0.7947                15.1106                13.8406

                    115                    116                    117
                      A                      A                      A
 Frequencies --   3057.7567              3065.5236              3076.4137
 Red. masses --      1.0592                 1.0924                 1.0783
 Frc consts  --      5.8352                 6.0486                 6.0129
 IR Inten    --     18.4175                 1.5645                 0.7099

                    118                    119                    120
                      A                      A                      A
 Frequencies --   3084.6003              3088.9100              3102.1508
 Red. masses --      1.0646                 1.0820                 1.1072
 Frc consts  --      5.9679                 6.0827                 6.2777
 IR Inten    --     19.8211                 7.6340                 3.4593

                    121                    122                    123
                      A                      A                      A
 Frequencies --   3118.1719              3121.2847              3130.0043
 Red. masses --      1.1012                 1.0988                 1.1054
 Frc consts  --      6.3086                 6.3075                 6.3806
 IR Inten    --     19.8367                 1.6543                27.3161

                    124                    125                    126
                      A                      A                      A
 Frequencies --   3133.3388              3140.3722              3143.7938
 Red. masses --      1.0980                 1.0977                 1.0993
 Frc consts  --      6.3516                 6.3783                 6.4012
 IR Inten    --      9.7627                 5.4634                 9.2419

                    127                    128                    129
                      A                      A                      A
 Frequencies --   3160.6879              3168.9696              3180.3424
 Red. masses --      1.0987                 1.0857                 1.0905
 Frc consts  --      6.4667                 6.4239                 6.4986
 IR Inten    --      8.7203                 0.8056                10.4173

                    130                    131                    132
                      A                      A                      A
 Frequencies --   3193.0248              3211.0708              3212.7529
 Red. masses --      1.0962                 1.0924                 1.0936
 Frc consts  --      6.5849                 6.6364                 6.6508
 IR Inten    --     11.9907                 1.5006                 9.9652

 - Thermochemistry -
 -------------------
 Temperature   298.150 Kelvin.  Pressure   1.00000 Atm.
 Atom     1 has atomic number  6 and mass  12.00000

 Molecular mass:   434.99839 amu.
 Principal axes and moments of inertia in atomic units:
                           1         2         3
     Eigenvalues --  8440.36390********************
           X            0.99904   0.03546  -0.02573
           Y           -0.03639   0.99866  -0.03670
           Z            0.02439   0.03760   0.99900
 This molecule is an asymmetric top.
 Rotational symmetry number  1.
 Warning -- assumption of classical behavior for rotation
           may cause significant error
 Rotational temperatures (Kelvin)      0.01026     0.00636     0.00594
 Rotational constants (GHZ):           0.21382     0.13248     0.12370
    1 imaginary frequencies ignored.
 Zero-point vibrational energy     940840.1 (Joules/Mol)
                                  224.86617 (Kcal/Mol)
 Warning -- explicit consideration of  41 degrees of freedom as
           vibrations may cause significant error
 Vibrational temperatures:     16.58    36.05    45.93    53.34    69.77
          (Kelvin)             81.36    93.42   103.53   123.30   127.33
                              134.28   143.68   160.56   167.41   174.13
                              182.14   191.40   216.62   223.02   236.82
                              269.02   291.44   337.76   355.31   377.38
                              401.18   422.75   452.06   490.85   498.60
                              509.30   559.33   566.98   580.80   586.73
                              601.64   651.37   718.47   731.46   783.21
                              832.13   897.99   903.13   986.08  1020.91
                             1039.67  1094.10  1132.32  1159.58  1186.67
                             1205.57  1212.52  1241.05  1251.07  1272.32
                             1302.55  1360.14  1395.51  1397.40  1434.70
                             1435.69  1438.08  1445.80  1453.69  1488.89
                             1497.70  1518.51  1537.70  1547.64  1584.38
                             1597.61  1601.15  1628.94  1680.11  1690.57
                             1710.76  1728.28  1738.71  1743.08  1773.68
                             1809.08  1817.60  1845.41  1887.55  1905.12
                             1916.68  1924.72  1942.22  1955.80  1961.22
                             1973.49  2000.78  2009.22  2040.07  2071.21
                             2088.17  2109.22  2114.88  2121.94  2128.88
                             2137.12  2143.42  2162.16  2164.87  2183.47
                             2240.36  2332.55  2360.63  2516.48  4282.60
                             4328.44  4375.41  4399.23  4399.43  4410.60
                             4426.27  4438.05  4444.25  4463.30  4486.35
                             4490.83  4503.38  4508.18  4518.30  4523.22
                             4547.52  4559.44  4575.80  4594.05  4620.01
                             4622.43

 Zero-point correction=                           0.358347 (Hartree/Particle)
 Thermal correction to Energy=                    0.386116
 Thermal correction to Enthalpy=                  0.387060
 Thermal correction to Gibbs Free Energy=         0.294380
 Sum of electronic and zero-point Energies=          -3531.063741
 Sum of electronic and thermal Energies=             -3531.035972
 Sum of electronic and thermal Enthalpies=           -3531.035028
 Sum of electronic and thermal Free Energies=        -3531.127708

                     E (Thermal)             CV                S
                      KCal/Mol        Cal/Mol-Kelvin    Cal/Mol-Kelvin
 Total                  242.291             97.626            195.062
 Electronic               0.000              0.000              3.561
 Translational            0.889              2.981             44.100
 Rotational               0.889              2.981             35.771
 Vibrational            240.514             91.664            111.630
 Vibration     1          0.593              1.987              7.730
 Vibration     2          0.593              1.985              6.187
 Vibration     3          0.594              1.983              5.706
 Vibration     4          0.594              1.982              5.410
 Vibration     5          0.595              1.978              4.878
 Vibration     6          0.596              1.975              4.574
 Vibration     7          0.597              1.971              4.302
 Vibration     8          0.598              1.967              4.099
 Vibration     9          0.601              1.959              3.756
 Vibration    10          0.601              1.957              3.693
 Vibration    11          0.602              1.954              3.589
 Vibration    12          0.604              1.949              3.457
 Vibration    13          0.607              1.940              3.241
 Vibration    14          0.608              1.936              3.160
 Vibration    15          0.609              1.932              3.084
 Vibration    16          0.611              1.927              2.997
 Vibration    17          0.613              1.920              2.902
 Vibration    18          0.618              1.902              2.665
 Vibration    19          0.620              1.897              2.610
 Vibration    20          0.623              1.886              2.496
 Vibration    21          0.632              1.858              2.258
 Vibration    22          0.639              1.836              2.110
 Vibration    23          0.655              1.788              1.842
 Vibration    24          0.661              1.768              1.752
 Vibration    25          0.670              1.742              1.646
 Vibration    26          0.679              1.713              1.541
 Vibration    27          0.689              1.685              1.452
 Vibration    28          0.702              1.647              1.340
 Vibration    29          0.721              1.593              1.207
 Vibration    30          0.725              1.582              1.182
 Vibration    31          0.730              1.567              1.148
 Vibration    32          0.757              1.494              1.005
 Vibration    33          0.761              1.483              0.985
 Vibration    34          0.769              1.462              0.949
 Vibration    35          0.772              1.453              0.934
 Vibration    36          0.781              1.431              0.898
 Vibration    37          0.811              1.355              0.788
 Vibration    38          0.855              1.251              0.660
 Vibration    39          0.864              1.231              0.637
 Vibration    40          0.899              1.152              0.556
 Vibration    41          0.935              1.078              0.488

                           ! Non-Optimized Parameters !
 Normal termination of Gaussian 16 at Sun Jun 20 10:37:49 2021.

 ----------------------------------------------------------------------
 #p ub3lyp jul-cc-pvdz pop=cm5 scrf=(pcm,solvent=dichloroethane) guess=
 read geom=allcheck
 ----------------------------------------------------------------------

 Structure from the checkpoint file:  "checkpoint.chk"
 -----
 title
 -----
 Charge =  0 Multiplicity = 6

 SCF Done:  E(UB3LYP) =  -3531.44413397     A.U. after   17 cycles
 Normal termination of Gaussian 16 at Sun Jun 20 10:56:26 2021.
 Gaussian 16:  ES64L-G16RevA.03 25-Dec-2016

 ----------------------------------------------------------------------
 #p ub3lyp jul-cc-pvdz pop=cm5 scrf=(pcm,solvent=water) guess=read geom
 =allcheck
 ----------------------------------------------------------------------

 Structure from the checkpoint file:  "checkpoint.chk"
 -----
 title
 -----
 Charge =  0 Multiplicity = 6

                         Standard orientation:
 ---------------------------------------------------------------------
 Center     Atomic      Atomic             Coordinates (Angstroms)
 Number     Number       Type             X           Y           Z
 ---------------------------------------------------------------------
      1          6           0       -2.609974    1.351797    0.452554
      2          6           0       -1.259060    1.046046    0.700472
      3          6           0       -0.718837    1.366668    1.958046
      4          6           0       -1.511171    1.961721    2.944027
      5          6           0       -2.853680    2.252542    2.691034
      6          6           0       -3.398252    1.946536    1.439203
      7          6           0       -0.356239    0.358254   -0.309561
      8          6           0       -0.802863   -1.009971   -0.937980
      9          6           0       -0.039714   -1.170625   -2.273145
     10          6           0        0.359428    0.240431   -2.770433
     11          6           0       -0.442500    1.263514   -1.977812
     12          6           0        0.011925    2.565415   -1.728374
     13          6           0        1.462163    2.864312   -1.652179
     14          8           0        0.904122    0.321786    0.052110
     15         26           0        2.486894   -0.666156    0.516292
     16         17           0        3.873562   -0.412190   -1.199930
     17          6           0       -0.932423    3.656005   -1.365685
     18         17           0        1.900300   -2.776547    0.830086
     19         17           0        3.227224    0.307948    2.359044
     20          1           0        0.323619    1.135332    2.168947
     21          1           0       -1.072107    2.191262    3.915882
     22          1           0       -3.472606    2.714897    3.461497
     23          1           0       -4.443631    2.175321    1.226190
     24          1           0       -3.060856    1.137036   -0.513822
     25          1           0       -0.474213   -1.747988   -0.196022
     26          6           0       -2.299935   -1.193077   -1.128632
     27          1           0        0.849790   -1.792035   -2.123185
     28          1           0       -0.674584   -1.681396   -3.005236
     29          1           0        1.435072    0.393276   -2.638784
     30          1           0        0.134119    0.366396   -3.838717
     31          1           0       -1.518168    1.192321   -2.159349
     32          1           0       -1.983107    3.379853   -1.489762
     33          1           0       -0.756997    3.953311   -0.316537
     34          1           0       -0.710077    4.547820   -1.973212
     35          1           0        1.665962    3.906556   -1.383022
     36          1           0        1.899483    2.189902   -0.889768
     37          1           0        1.984648    2.615525   -2.586587
     38          8           0       -2.824973   -1.958472   -0.160665
     39          8           0       -2.947013   -0.735606   -2.054157
     40          6           0       -4.251496   -2.231204   -0.243183
     41          6           0       -4.607302   -3.150999    0.906783
     42          1           0       -4.787171   -1.273349   -0.191706
     43          1           0       -4.458594   -2.683310   -1.222302
     44          1           0       -5.682893   -3.376473    0.873267
     45          1           0       -4.052334   -4.096645    0.840287
     46          1           0       -4.380577   -2.680000    1.872850
 ---------------------------------------------------------------------

 SCF Done:  E(UB3LYP) =  -3531.44800306     A.U. after   16 cycles

 The electronic state is 6-A.
 Alpha  occ. eigenvalues -- -256.20685-101.52434-101.52159-101.52152 -30.20110
 Alpha  occ. eigenvalues --  -26.05459 -26.05291 -26.05263 -19.20818 -19.17224
 Alpha  occ. eigenvalues --  -19.15615 -10.33326 -10.31821 -10.27711 -10.25014
 Alpha  occ. eigenvalues --  -10.22458 -10.22261 -10.21767 -10.20905 -10.20636
 Alpha  occ. eigenvalues --  -10.20589 -10.20488 -10.20405 -10.20368 -10.20293
 Alpha  occ. eigenvalues --  -10.20083 -10.19934 -10.18804  -9.44159  -9.43885
 Alpha  occ. eigenvalues --   -9.43883  -7.20022  -7.19752  -7.19752  -7.19714
 Alpha  occ. eigenvalues --   -7.19698  -7.19436  -7.19430  -7.19421  -7.19415
 Alpha  occ. eigenvalues --   -3.67795  -2.45375  -2.45045  -2.44990  -1.12563
 Alpha  occ. eigenvalues --   -1.06462  -1.03926  -0.87813  -0.86906  -0.83476
 Alpha  occ. eigenvalues --   -0.80303  -0.79592  -0.79426  -0.78882  -0.77949
 Alpha  occ. eigenvalues --   -0.76151  -0.75017  -0.72839  -0.71155  -0.66763
 Alpha  occ. eigenvalues --   -0.64305  -0.62271  -0.61212  -0.59723  -0.57599
 Alpha  occ. eigenvalues --   -0.55851  -0.54538  -0.53291  -0.51668  -0.50569
 Alpha  occ. eigenvalues --   -0.50239  -0.49357  -0.49117  -0.48042  -0.47993
 Alpha  occ. eigenvalues --   -0.47753  -0.47318  -0.47025  -0.46210  -0.45884
 Alpha  occ. eigenvalues --   -0.44983  -0.44913  -0.44041  -0.43747  -0.43056
 Alpha  occ. eigenvalues --   -0.42095  -0.41604  -0.40830  -0.40073  -0.40027
 Alpha  occ. eigenvalues --   -0.39519  -0.38942  -0.37709  -0.37486  -0.37109
 Alpha  occ. eigenvalues --   -0.36914  -0.36790  -0.36311  -0.35922  -0.35539
 Alpha  occ. eigenvalues --   -0.34811  -0.34457  -0.33964  -0.32205  -0.32040
 Alpha  occ. eigenvalues --   -0.31145  -0.31065  -0.30896  -0.30401  -0.29999
 Alpha  occ. eigenvalues --   -0.29858  -0.29073  -0.28901  -0.26980  -0.26302
 Alpha virt. eigenvalues --   -0.11692  -0.04087  -0.02872  -0.01712  -0.01540
 Alpha virt. eigenvalues --   -0.00344  -0.00032   0.00160   0.01380   0.01497
 Alpha virt. eigenvalues --    0.01684   0.01931   0.02672   0.03253   0.03792

  Beta  occ. eigenvalues -- -256.20500-101.52251-101.51981-101.51976 -30.11152
  Beta  occ. eigenvalues --  -25.97898 -25.97867 -25.97849 -19.20817 -19.16666
  Beta  occ. eigenvalues --  -19.15613 -10.33325 -10.31815 -10.27676 -10.25014
  Beta  occ. eigenvalues --  -10.22444 -10.22240 -10.21746 -10.20907 -10.20636
  Beta  occ. eigenvalues --  -10.20591 -10.20489 -10.20402 -10.20370 -10.20293
  Beta  occ. eigenvalues --  -10.20083 -10.19934 -10.18804  -9.43979  -9.43712
  Beta  occ. eigenvalues --   -9.43708  -7.19721  -7.19465  -7.19458  -7.19453
  Beta  occ. eigenvalues --   -7.19452  -7.19193  -7.19192  -7.19190  -7.19189
  Beta  occ. eigenvalues --   -3.46914  -2.23194  -2.23128  -2.23075  -1.12560
  Beta  occ. eigenvalues --   -1.05386  -1.03921  -0.87712  -0.86868  -0.83407
  Beta  occ. eigenvalues --   -0.79143  -0.78883  -0.78345  -0.78194  -0.77857
  Beta  occ. eigenvalues --   -0.76144  -0.74993  -0.72829  -0.71078  -0.66585
  Beta  occ. eigenvalues --   -0.64197  -0.62232  -0.61173  -0.59384  -0.57176
  Beta  occ. eigenvalues --   -0.55730  -0.54377  -0.52505  -0.51379  -0.50301
  Beta  occ. eigenvalues --   -0.49981  -0.48975  -0.48800  -0.46902  -0.46186
  Beta  occ. eigenvalues --   -0.45586  -0.45009  -0.44080  -0.43795  -0.43069
  Beta  occ. eigenvalues --   -0.42097  -0.41594  -0.40810  -0.40068  -0.40026
  Beta  occ. eigenvalues --   -0.39440  -0.38911  -0.38083  -0.37541  -0.37073
  Beta  occ. eigenvalues --   -0.36898  -0.36727  -0.36319  -0.35969  -0.35950
  Beta  occ. eigenvalues --   -0.35834  -0.35681  -0.34541  -0.33249  -0.33209
  Beta  occ. eigenvalues --   -0.32466  -0.32389  -0.32146  -0.31696  -0.30091
  Beta  occ. eigenvalues --   -0.29720  -0.29158  -0.28894  -0.26988  -0.26262
  Beta virt. eigenvalues --   -0.14577  -0.14294  -0.13398  -0.13131  -0.12604
  Beta virt. eigenvalues --   -0.10710  -0.04036  -0.02856  -0.01684  -0.01421
  Beta virt. eigenvalues --   -0.00303  -0.00007   0.00187   0.01409   0.01507

 Mulliken charges and spin densities:
               1          2
     1  C   -0.013337  -0.000980
     2  C    2.583019   0.015428
     3  C   -0.745317  -0.007379
     4  C    0.059450   0.003202
     5  C    0.283831  -0.002136
     6  C   -0.043925   0.002531
     7  C   -1.838273  -0.006008
     8  C    1.190041  -0.000599
     9  C    0.491670   0.000266
    10  C    0.441245   0.001586
    11  C    0.472532   0.005554
    12  C   -0.544202   0.025497
    13  C    0.184863  -0.001996
    14  O   -0.550688   0.172448
    15  Fe   0.730854   4.058679
    16  Cl  -0.492420   0.239867
    17  C    0.398883  -0.001486
    18  Cl  -0.486767   0.242488
    19  Cl  -0.489479   0.241059
    20  H   -0.246008   0.002269
    21  H   -0.161376  -0.000022
    22  H   -0.158597   0.000025
    23  H   -0.163773   0.000152
    24  H   -0.212601  -0.000021
    25  H   -0.203502  -0.001176
    26  C    0.563508   0.004902
    27  H   -0.073986   0.000133
    28  H   -0.116019   0.000184
    29  H   -0.041978  -0.000383
    30  H   -0.119731  -0.000060
    31  H   -0.203353  -0.000550
    32  H    0.010269   0.000022
    33  H    0.095148   0.002111
    34  H    0.011651   0.001155
    35  H   -0.022202   0.000053
    36  H    0.152883   0.001482
    37  H    0.066244   0.001068
    38  O   -0.683665   0.000070
    39  O   -0.600109   0.000489
    40  C    0.426220  -0.000002
    41  C    0.086484   0.000028
    42  H   -0.038706   0.000024
    43  H   -0.039751   0.000006
    44  H   -0.003336   0.000011
    45  H    0.022623   0.000010
    46  H    0.021684   0.000001
 Sum of Mulliken charges =  -0.00000   5.00000

 Dipole moment (field-independent basis, Debye):
    X=            -11.5552    Y=              8.2503    Z=             -4.5920  Tot=             14.9223
 Quadrupole moment (field-independent basis, Debye-Ang):
   XX=           -191.9399   YY=           -157.7586   ZZ=           -175.7867
   XY=              9.6223   XZ=            -15.2024   YZ=             -4.7531

 Normal termination of Gaussian 16 at Sun Jun 20 11:13:40 2021.
