 Gaussian 16, Revision A.03,

 -----------------------------------------------------------
 #p opt=modredundant freq=noraman ub3lyp jul-cc-pvdz pop=cm5
 -----------------------------------------------------------

 -----
 title
 -----
 Symbolic Z-matrix:
 Charge =  0 Multiplicity = 6

 SCF Done:  E(UB3LYP) =  -3531.40061446     A.U. after   25 cycles
 SCF Done:  E(UB3LYP) =  -3531.40044025     A.U. after   15 cycles
 SCF Done:  E(UB3LYP) =  -3531.40033051     A.U. after   17 cycles
 SCF Done:  E(UB3LYP) =  -3531.40002559     A.U. after   16 cycles
 SCF Done:  E(UB3LYP) =  -3531.40082146     A.U. after   11 cycles
 SCF Done:  E(UB3LYP) =  -3531.40109421     A.U. after   15 cycles
 SCF Done:  E(UB3LYP) =  -3531.40124214     A.U. after   14 cycles
 SCF Done:  E(UB3LYP) =  -3531.40123658     A.U. after   14 cycles
 SCF Done:  E(UB3LYP) =  -3531.40120073     A.U. after   14 cycles
 SCF Done:  E(UB3LYP) =  -3531.40125632     A.U. after   15 cycles
 SCF Done:  E(UB3LYP) =  -3531.40140341     A.U. after   15 cycles
 SCF Done:  E(UB3LYP) =  -3531.40140840     A.U. after   14 cycles
 SCF Done:  E(UB3LYP) =  -3531.40140874     A.U. after   12 cycles
 SCF Done:  E(UB3LYP) =  -3531.40140882     A.U. after   11 cycles
 SCF Done:  E(UB3LYP) =  -3531.40140892     A.U. after    9 cycles
 SCF Done:  E(UB3LYP) =  -3531.40140896     A.U. after    9 cycles
 SCF Done:  E(UB3LYP) =  -3531.40140904     A.U. after    9 cycles
 Optimization completed.
    -- Stationary point found.
 Normal termination of Gaussian 16 at Sun Jun 20 08:12:52 2021.

 ----------------------------------------------------------------------
 #P Geom=AllCheck Guess=TCheck SCRF=Check GenChk UB3LYP/Jul-CC-pVDZ Fre
 q
 ----------------------------------------------------------------------

 Structure from the checkpoint file:  "checkpoint.chk"
 -----
 title
 -----
 Charge =  0 Multiplicity = 6

 SCF Done:  E(UB3LYP) =  -3531.40140904     A.U. after    2 cycles

  Exact polarizability: 298.818  -6.713 311.782  22.160  12.444 279.865
 Approx polarizability: 438.818 -15.943 491.812  37.596  21.721 449.419

 ******    1 imaginary frequencies (negative Signs) ******

                      1                      2                      3
                      A                      A                      A
 Frequencies --   -179.2082                20.5216                28.5810
 Red. masses --      4.2254                 8.6570                 4.5149
 Frc consts  --      0.0800                 0.0021                 0.0022
 IR Inten    --     31.0091                 0.5163                 1.6094

                      4                      5                      6
                      A                      A                      A
 Frequencies --     34.4738                48.2331                54.7147
 Red. masses --      7.6926                 4.7059                 4.4935
 Frc consts  --      0.0054                 0.0065                 0.0079
 IR Inten    --      0.4069                 2.7403                 0.7086

                      7                      8                      9
                      A                      A                      A
 Frequencies --     66.3632                69.5047                76.8679
 Red. masses --      4.2911                 3.7571                 4.3844
 Frc consts  --      0.0111                 0.0107                 0.0153
 IR Inten    --      0.2344                 0.5776                 0.8961

                     10                     11                     12
                      A                      A                      A
 Frequencies --     86.7941                92.0987               103.9184
 Red. masses --     11.4708                 5.8952                10.6956
 Frc consts  --      0.0509                 0.0295                 0.0681
 IR Inten    --      0.2079                 2.0879                 0.3903

                     13                     14                     15
                      A                      A                      A
 Frequencies --    110.0614               117.5447               126.4040
 Red. masses --      7.8483                 3.1796                 5.8160
 Frc consts  --      0.0560                 0.0259                 0.0548
 IR Inten    --      0.5402                 1.7561                12.7217

                     16                     17                     18
                      A                      A                      A
 Frequencies --    135.1958               146.5224               162.1780
 Red. masses --      7.3593                 3.6666                 2.8196
 Frc consts  --      0.0793                 0.0464                 0.0437
 IR Inten    --     18.2465                 2.3787                 3.4292

                     19                     20                     21
                      A                      A                      A
 Frequencies --    176.0660               190.6082               197.7639
 Red. masses --      4.3534                 2.0505                 1.4910
 Frc consts  --      0.0795                 0.0439                 0.0344
 IR Inten    --      3.5384                 1.2396                 2.7476

                     22                     23                     24
                      A                      A                      A
 Frequencies --    219.9166               230.7843               251.4796
 Red. masses --      5.4014                 2.1454                 2.4317
 Frc consts  --      0.1539                 0.0673                 0.0906
 IR Inten    --      2.0233                27.9384                 1.3790

                     25                     26                     27
                      A                      A                      A
 Frequencies --    262.1424               266.3336               289.3821
 Red. masses --      1.8724                 2.0838                 3.0523
 Frc consts  --      0.0758                 0.0871                 0.1506
 IR Inten    --      8.1785                11.7051                 2.6480

                     28                     29                     30
                      A                      A                      A
 Frequencies --    302.1450               327.2554               345.1834
 Red. masses --      3.2642                14.1063                 3.6857
 Frc consts  --      0.1756                 0.8901                 0.2587
 IR Inten    --      1.3263                36.2555                13.5770

                     31                     32                     33
                      A                      A                      A
 Frequencies --    353.5241               365.5342               375.5862
 Red. masses --     25.9751                 4.8735                 3.6772
 Frc consts  --      1.9127                 0.3837                 0.3056
 IR Inten    --     65.7705                20.7018                 7.1149

                     34                     35                     36
                      A                      A                      A
 Frequencies --    389.8680               403.1282               412.8466
 Red. masses --     27.3835                 3.4595                 2.9563
 Frc consts  --      2.4523                 0.3312                 0.2969
 IR Inten    --     86.6687                 7.5820                 0.1938

                     37                     38                     39
                      A                      A                      A
 Frequencies --    417.9250               465.2346               501.0594
 Red. masses --      3.4310                 3.5328                 2.6624
 Frc consts  --      0.3531                 0.4505                 0.3938
 IR Inten    --      6.5879                 2.0734                 1.4109

                     40                     41                     42
                      A                      A                      A
 Frequencies --    549.6249               584.6799               627.3196
 Red. masses --      3.7046                 2.5316                 6.2181
 Frc consts  --      0.6594                 0.5099                 1.4417
 IR Inten    --     24.3261                 0.5845                 0.6757

                     43                     44                     45
                      A                      A                      A
 Frequencies --    644.1475               679.4344               705.6040
 Red. masses --      4.8272                 3.2468                 2.6779
 Frc consts  --      1.1801                 0.8831                 0.7855
 IR Inten    --     17.8492                 8.7231                34.7616

                     46                     47                     48
                      A                      A                      A
 Frequencies --    709.6652               754.4805               779.8402
 Red. masses --      2.0505                 3.1127                 3.3259
 Frc consts  --      0.6084                 1.0440                 1.1917
 IR Inten    --     27.3033                24.0594                14.9084

                     49                     50                     51
                      A                      A                      A
 Frequencies --    794.3215               805.8823               812.1051
 Red. masses --      3.2751                 1.3943                 1.9563
 Frc consts  --      1.2175                 0.5335                 0.7602
 IR Inten    --     10.9690                 3.5482                 5.2465

                     52                     53                     54
                      A                      A                      A
 Frequencies --    826.6280               839.0830               844.5884
 Red. masses --      1.4264                 2.0021                 1.2867
 Frc consts  --      0.5743                 0.8305                 0.5408
 IR Inten    --     10.3974                14.1712                 0.1796

                     55                     56                     57
                      A                      A                      A
 Frequencies --    872.6960               907.7200               918.9243
 Red. masses --      2.6446                 2.5062                 1.7143
 Frc consts  --      1.1867                 1.2166                 0.8529
 IR Inten    --     10.3309                 2.5043                11.1019

                     58                     59                     60
                      A                      A                      A
 Frequencies --    936.4254               977.8980               980.9078
 Red. masses --      1.9000                 2.0318                 1.3565
 Frc consts  --      0.9816                 1.1448                 0.7690
 IR Inten    --      3.3709                15.7857                 1.3198

                     61                     62                     63
                      A                      A                      A
 Frequencies --    995.3695               997.6453              1003.0654
 Red. masses --      1.5334                 3.7381                 3.5209
 Frc consts  --      0.8951                 2.1921                 2.0872
 IR Inten    --     10.7153                 1.1908                10.7180

                     64                     65                     66
                      A                      A                      A
 Frequencies --   1003.7251              1013.0488              1032.6578
 Red. masses --      1.4892                 2.2931                 2.1881
 Frc consts  --      0.8840                 1.3866                 1.3748
 IR Inten    --      1.3582                 9.2870                 7.2973

                     67                     68                     69
                      A                      A                      A
 Frequencies --   1036.6032              1041.9286              1050.4771
 Red. masses --      2.7254                 3.2872                 3.0775
 Frc consts  --      1.7255                 2.1026                 2.0009
 IR Inten    --     20.2897                97.1307                83.1411

                     70                     71                     72
                      A                      A                      A
 Frequencies --   1065.9775              1096.8556              1107.1861
 Red. masses --      2.5543                 2.2298                 1.6363
 Frc consts  --      1.7101                 1.5806                 1.1819
 IR Inten    --    107.3012                14.1057                 7.8397

                     73                     74                     75
                      A                      A                      A
 Frequencies --   1133.5797              1154.6304              1169.0010
 Red. masses --      2.1733                 1.9534                 1.5576
 Frc consts  --      1.6454                 1.5344                 1.2541
 IR Inten    --      6.8771                29.9064                 3.9173

                     76                     77                     78
                      A                      A                      A
 Frequencies --   1174.3420              1179.8299              1206.0417
 Red. masses --      1.1109                 2.5527                 1.3546
 Frc consts  --      0.9026                 2.0936                 1.1609
 IR Inten    --      0.5852                27.6118                10.5338

                     79                     80                     81
                      A                      A                      A
 Frequencies --   1209.5723              1213.0623              1221.4323
 Red. masses --      1.5327                 1.6171                 2.4126
 Frc consts  --      1.3212                 1.4020                 2.1206
 IR Inten    --     37.8551                 4.5618               186.0616

                     82                     83                     84
                      A                      A                      A
 Frequencies --   1261.3451              1274.6096              1281.6240
 Red. masses --      1.6482                 1.5458                 1.1954
 Frc consts  --      1.5450                 1.4797                 1.1569
 IR Inten    --     44.3439                35.2491                21.1505

                     85                     86                     87
                      A                      A                      A
 Frequencies --   1283.5801              1296.2531              1314.9064
 Red. masses --      1.6189                 1.2750                 1.4418
 Frc consts  --      1.5715                 1.2622                 1.4688
 IR Inten    --     86.9237                 7.0478                24.4433

                     88                     89                     90
                      A                      A                      A
 Frequencies --   1326.9189              1333.6747              1335.3720
 Red. masses --      1.5094                 1.7139                 1.2909
 Frc consts  --      1.5658                 1.7961                 1.3562
 IR Inten    --      8.7727                14.3887                72.8628

                     91                     92                     93
                      A                      A                      A
 Frequencies --   1347.6166              1358.5843              1370.0465
 Red. masses --      1.5916                 2.3557                 1.3480
 Frc consts  --      1.7030                 2.5618                 1.4907
 IR Inten    --     44.1773                 0.8273                 7.5282

                     94                     95                     96
                      A                      A                      A
 Frequencies --   1396.4917              1411.4740              1418.5200
 Red. masses --      1.6400                 1.1437                 1.5275
 Frc consts  --      1.8844                 1.3425                 1.8109
 IR Inten    --     57.3302                20.6516                 7.9299

                     97                     98                     99
                      A                      A                      A
 Frequencies --   1425.4292              1437.5988              1468.4899
 Red. masses --      1.2238                 1.0882                 2.2738
 Frc consts  --      1.4651                 1.3251                 2.8890
 IR Inten    --     11.1233                 8.1333                 7.0133

                    100                    101                    102
                      A                      A                      A
 Frequencies --   1474.8269              1485.9951              1488.6278
 Red. masses --      1.0387                 1.1588                 1.0536
 Frc consts  --      1.3312                 1.5076                 1.3757
 IR Inten    --      4.1317                 3.1484                 1.3575

                    103                    104                    105
                      A                      A                      A
 Frequencies --   1489.5964              1493.9789              1506.0186
 Red. masses --      1.1312                 1.4084                 1.1334
 Frc consts  --      1.4788                 1.8521                 1.5145
 IR Inten    --      8.3693                19.9749                 8.5153

                    106                    107                    108
                      A                      A                      A
 Frequencies --   1507.7812              1521.3751              1625.1559
 Red. masses --      1.0877                 2.1533                 5.6810
 Frc consts  --      1.4570                 2.9364                 8.8402
 IR Inten    --      5.6590                 5.9754                 0.6087

                    109                    110                    111
                      A                      A                      A
 Frequencies --   1644.8544              1770.2737              2812.9923
 Red. masses --      5.7875                11.7544                 1.0669
 Frc consts  --      9.2256                21.7035                 4.9740
 IR Inten    --      0.1952               219.8663               272.4409

                    112                    113                    114
                      A                      A                      A
 Frequencies --   2911.4762              3035.3546              3038.2125
 Red. masses --      1.0625                 1.0749                 1.0353
 Frc consts  --      5.3066                 5.8347                 5.6308
 IR Inten    --    165.6291                 3.9284                19.4487

                    115                    116                    117
                      A                      A                      A
 Frequencies --   3047.6853              3057.1033              3059.3183
 Red. masses --      1.0663                 1.0581                 1.0621
 Frc consts  --      5.8356                 5.8265                 5.8570
 IR Inten    --      5.2538                16.8136                22.2878

                    118                    119                    120
                      A                      A                      A
 Frequencies --   3073.9934              3077.6163              3090.0291
 Red. masses --      1.0620                 1.0842                 1.0904
 Frc consts  --      5.9126                 6.0507                 6.1341
 IR Inten    --     21.2532                 9.1488                 2.9878

                    121                    122                    123
                      A                      A                      A
 Frequencies --   3100.4776              3104.0145              3114.7686
 Red. masses --      1.1072                 1.0987                 1.1019
 Frc consts  --      6.2710                 6.2369                 6.2985
 IR Inten    --      7.5136                 9.5424                19.8226

                    124                    125                    126
                      A                      A                      A
 Frequencies --   3124.9465              3130.4504              3160.3259
 Red. masses --      1.1043                 1.1050                 1.1012
 Frc consts  --      6.3536                 6.3803                 6.4800
 IR Inten    --     19.6757                20.4725                 6.8399

                    127                    128                    129
                      A                      A                      A
 Frequencies --   3164.3291              3174.7603              3183.7659
 Red. masses --      1.0847                 1.0879                 1.0929
 Frc consts  --      6.3992                 6.4604                 6.5273
 IR Inten    --      3.8185                 4.6559                19.3373

                    130                    131                    132
                      A                      A                      A
 Frequencies --   3185.5490              3195.0547              3211.7196
 Red. masses --      1.0964                 1.0977                 1.0931
 Frc consts  --      6.5553                 6.6022                 6.6433
 IR Inten    --      5.4884                13.4664                 5.1050

 - Thermochemistry -
 -------------------
 Temperature   298.150 Kelvin.  Pressure   1.00000 Atm.
 Atom     1 has atomic number  6 and mass  12.00000

 Molecular mass:   434.99839 amu.
 Principal axes and moments of inertia in atomic units:
                           1         2         3
     Eigenvalues --  8902.71445********************
           X            0.99738   0.07008   0.01769
           Y           -0.07005   0.99754  -0.00217
           Z           -0.01780   0.00093   0.99984
 This molecule is an asymmetric top.
 Rotational symmetry number  1.
 Warning -- assumption of classical behavior for rotation
           may cause significant error
 Rotational temperatures (Kelvin)      0.00973     0.00758     0.00683
 Rotational constants (GHZ):           0.20272     0.15784     0.14235
    1 imaginary frequencies ignored.
 Zero-point vibrational energy     940783.5 (Joules/Mol)
                                  224.85265 (Kcal/Mol)
 Warning -- explicit consideration of  40 degrees of freedom as
           vibrations may cause significant error
 Vibrational temperatures:     29.53    41.12    49.60    69.40    78.72
          (Kelvin)             95.48   100.00   110.60   124.88   132.51
                              149.52   158.35   169.12   181.87   194.52
                              210.81   233.34   253.32   274.24   284.54
                              316.41   332.05   361.82   377.16   383.19
                              416.36   434.72   470.85   496.64   508.64
                              525.92   540.38   560.93   580.01   593.99
                              601.30   669.37   720.91   790.79   841.22
                              902.57   926.78   977.55  1015.21  1021.05
                             1085.53  1122.02  1142.85  1159.48  1168.44
                             1189.33  1207.25  1215.17  1255.61  1306.01
                             1322.13  1347.31  1406.98  1411.31  1432.11
                             1435.39  1443.19  1444.14  1457.55  1485.76
                             1491.44  1499.10  1511.40  1533.70  1578.13
                             1592.99  1630.97  1661.26  1681.93  1689.62
                             1697.51  1735.23  1740.30  1745.33  1757.37
                             1814.79  1833.88  1843.97  1846.79  1865.02
                             1891.86  1909.14  1918.86  1921.30  1938.92
                             1954.70  1971.19  2009.24  2030.80  2040.93
                             2050.87  2068.38  2112.83  2121.95  2138.02
                             2141.80  2143.20  2149.50  2166.82  2169.36
                             2188.92  2338.24  2366.58  2547.03  4047.27
                             4188.96  4367.20  4371.31  4384.94  4398.49
                             4401.68  4422.79  4428.00  4445.86  4460.90
                             4465.98  4481.46  4496.10  4504.02  4547.00
                             4552.76  4567.77  4580.73  4583.29  4596.97
                             4620.95

 Zero-point correction=                           0.358326 (Hartree/Particle)
 Thermal correction to Energy=                    0.385304
 Thermal correction to Enthalpy=                  0.386248
 Thermal correction to Gibbs Free Energy=         0.297024
 Sum of electronic and zero-point Energies=          -3531.043084
 Sum of electronic and thermal Energies=             -3531.016105
 Sum of electronic and thermal Enthalpies=           -3531.015161
 Sum of electronic and thermal Free Energies=        -3531.104385

                     E (Thermal)             CV                S
                      KCal/Mol        Cal/Mol-Kelvin    Cal/Mol-Kelvin
 Total                  241.782             96.693            187.787
 Electronic               0.000              0.000              3.561
 Translational            0.889              2.981             44.100
 Rotational               0.889              2.981             35.511
 Vibrational            240.004             90.731            104.616
 Vibration     1          0.593              1.986              6.583
 Vibration     2          0.593              1.984              5.926
 Vibration     3          0.594              1.983              5.554
 Vibration     4          0.595              1.978              4.889
 Vibration     5          0.596              1.976              4.639
 Vibration     6          0.598              1.970              4.258
 Vibration     7          0.598              1.969              4.167
 Vibration     8          0.599              1.965              3.969
 Vibration     9          0.601              1.958              3.731
 Vibration    10          0.602              1.955              3.615
 Vibration    11          0.605              1.946              3.379
 Vibration    12          0.606              1.941              3.268
 Vibration    13          0.608              1.935              3.140
 Vibration    14          0.611              1.927              3.000
 Vibration    15          0.613              1.918              2.871
 Vibration    16          0.617              1.906              2.717
 Vibration    17          0.622              1.889              2.524
 Vibration    18          0.628              1.872              2.370
 Vibration    19          0.634              1.853              2.222
 Vibration    20          0.637              1.843              2.154
 Vibration    21          0.647              1.811              1.960
 Vibration    22          0.652              1.794              1.873
 Vibration    23          0.663              1.760              1.720
 Vibration    24          0.669              1.742              1.647
 Vibration    25          0.672              1.735              1.620
 Vibration    26          0.686              1.693              1.478
 Vibration    27          0.694              1.670              1.405
 Vibration    28          0.711              1.621              1.274
 Vibration    29          0.724              1.585              1.188
 Vibration    30          0.730              1.568              1.150
 Vibration    31          0.739              1.543              1.098
 Vibration    32          0.746              1.522              1.057
 Vibration    33          0.758              1.492              1.001
 Vibration    34          0.769              1.463              0.951
 Vibration    35          0.777              1.442              0.917
 Vibration    36          0.781              1.431              0.899
 Vibration    37          0.823              1.327              0.751
 Vibration    38          0.856              1.248              0.655
 Vibration    39          0.905              1.141              0.545
 Vibration    40          0.942              1.064              0.477

                           ! Non-Optimized Parameters !
 Normal termination of Gaussian 16 at Sun Jun 20 12:59:30 2021.

 ----------------------------------------------------------------------
 #p ub3lyp jul-cc-pvdz pop=cm5 scrf=(pcm,solvent=dichloroethane) guess=
 read geom=allcheck
 ----------------------------------------------------------------------

 Structure from the checkpoint file:  "checkpoint.chk"
 -----
 title
 -----
 Charge =  0 Multiplicity = 6

 SCF Done:  E(UB3LYP) =  -3531.42988322     A.U. after   19 cycles
 Normal termination of Gaussian 16 at Sun Jun 20 13:26:56 2021.
 Gaussian 16:  ES64L-G16RevA.03 25-Dec-2016

 ----------------------------------------------------------------------
 #p ub3lyp jul-cc-pvdz pop=cm5 scrf=(pcm,solvent=water) guess=read geom
 =allcheck
 ----------------------------------------------------------------------

 Structure from the checkpoint file:  "checkpoint.chk"
 -----
 title
 -----
 Charge =  0 Multiplicity = 6

                         Standard orientation:
 ---------------------------------------------------------------------
 Center     Atomic      Atomic             Coordinates (Angstroms)
 Number     Number       Type             X           Y           Z
 ---------------------------------------------------------------------
      1          6           0        2.138685   -1.744319    1.656098
      2          6           0        1.371924   -0.747933    1.032739
      3          6           0        1.359635    0.534395    1.600200
      4          6           0        2.080767    0.806933    2.764505
      5          6           0        2.836162   -0.194086    3.380972
      6          6           0        2.864843   -1.472027    2.819347
      7          6           0        0.606148   -1.008210   -0.273551
      8          6           0        1.544683   -0.762556   -1.531733
      9          6           0        2.253372   -2.102225   -1.737064
     10          6           0        1.197873   -3.170380   -1.368462
     11          6           0        0.183537   -2.439689   -0.422797
     12          6           0       -1.224293   -2.444846   -0.957513
     13          6           0       -1.575824   -2.095759   -2.337220
     14          8           0       -0.563084   -0.211314   -0.379470
     15         26           0       -1.951589    0.803824    0.337819
     16         17           0       -3.583118    0.573837   -1.203753
     17          6           0       -2.290643   -2.903187   -0.070879
     18         17           0       -1.445218    2.926773    0.698282
     19         17           0       -2.604016   -0.263051    2.210999
     20          1           0        0.778581    1.330380    1.139285
     21          1           0        2.042088    1.808969    3.193871
     22          1           0        3.395419    0.019115    4.293021
     23          1           0        3.450642   -2.264944    3.286644
     24          1           0        2.188633   -2.753913    1.246839
     25          1           0        0.865280   -0.536864   -2.363634
     26          6           0        2.497069    0.415385   -1.407355
     27          1           0        2.626485   -2.221184   -2.761978
     28          1           0        3.122418   -2.158085   -1.070717
     29          1           0        0.696764   -3.556772   -2.266042
     30          1           0        1.637448   -4.038431   -0.861963
     31          1           0        0.150860   -2.923323    0.558932
     32          1           0       -1.982903   -3.824443    0.449191
     33          1           0       -2.379231   -2.148668    0.750633
     34          1           0       -3.264045   -3.012633   -0.558231
     35          1           0       -2.119339   -2.944261   -2.787861
     36          1           0       -2.325653   -1.277755   -2.274681
     37          1           0       -0.738630   -1.794627   -2.968646
     38          8           0        1.858083    1.575361   -1.631791
     39          8           0        3.680686    0.321754   -1.157228
     40          6           0        2.649302    2.789927   -1.499454
     41          6           0        1.744871    3.961089   -1.824519
     42          1           0        3.036198    2.833439   -0.472302
     43          1           0        3.507256    2.717342   -2.181643
     44          1           0        2.310529    4.897649   -1.714243
     45          1           0        1.377373    3.899300   -2.858363
     46          1           0        0.880968    3.990305   -1.147362
 ---------------------------------------------------------------------

 SCF Done:  E(UB3LYP) =  -3531.43531672     A.U. after   14 cycles

 The electronic state is 6-A.
 Alpha  occ. eigenvalues -- -256.19845-101.51971-101.51951-101.51810 -30.19247
 Alpha  occ. eigenvalues --  -26.04574 -26.04486 -26.04373 -19.20185 -19.16190
 Alpha  occ. eigenvalues --  -19.15135 -10.33222 -10.32719 -10.28406 -10.24725
 Alpha  occ. eigenvalues --  -10.22877 -10.22257 -10.22205 -10.21658 -10.21210
 Alpha  occ. eigenvalues --  -10.21191 -10.20345 -10.20129 -10.20038 -10.19984
 Alpha  occ. eigenvalues --  -10.19881 -10.19833 -10.18543  -9.43702  -9.43654
 Alpha  occ. eigenvalues --   -9.43517  -7.19555  -7.19520  -7.19382  -7.19256
 Alpha  occ. eigenvalues --   -7.19237  -7.19214  -7.19174  -7.19062  -7.19049
 Alpha  occ. eigenvalues --   -3.66976  -2.44517  -2.44328  -2.44141  -1.11956
 Alpha  occ. eigenvalues --   -1.03501  -1.02809  -0.89405  -0.87197  -0.84760
 Alpha  occ. eigenvalues --   -0.79892  -0.79250  -0.79104  -0.78929  -0.77405
 Alpha  occ. eigenvalues --   -0.76092  -0.75580  -0.74832  -0.72284  -0.66563
 Alpha  occ. eigenvalues --   -0.64016  -0.62013  -0.61038  -0.59856  -0.57253
 Alpha  occ. eigenvalues --   -0.56634  -0.55024  -0.53469  -0.51421  -0.50629
 Alpha  occ. eigenvalues --   -0.49943  -0.49509  -0.48624  -0.48005  -0.47692
 Alpha  occ. eigenvalues --   -0.47363  -0.47237  -0.46867  -0.46686  -0.46117
 Alpha  occ. eigenvalues --   -0.45076  -0.44559  -0.44109  -0.43348  -0.42959
 Alpha  occ. eigenvalues --   -0.42645  -0.42015  -0.41403  -0.41025  -0.40602
 Alpha  occ. eigenvalues --   -0.39888  -0.38740  -0.37833  -0.37500  -0.37200
 Alpha  occ. eigenvalues --   -0.36952  -0.36119  -0.35840  -0.35751  -0.35518
 Alpha  occ. eigenvalues --   -0.34869  -0.34173  -0.33827  -0.31862  -0.31365
 Alpha  occ. eigenvalues --   -0.30889  -0.30705  -0.30569  -0.30558  -0.29824
 Alpha  occ. eigenvalues --   -0.29476  -0.29058  -0.28321  -0.26661  -0.26218
 Alpha virt. eigenvalues --   -0.13920  -0.03035  -0.02738  -0.01502  -0.01318
 Alpha virt. eigenvalues --   -0.00216  -0.00068   0.00088   0.01415   0.01677
 Alpha virt. eigenvalues --    0.01725   0.01825   0.02449   0.03256   0.03805

  Beta  occ. eigenvalues -- -256.19661-101.51805-101.51790-101.51653 -30.10316
  Beta  occ. eigenvalues --  -25.97101 -25.97048 -25.96952 -19.20185 -19.15350
  Beta  occ. eigenvalues --  -19.15131 -10.33228 -10.32720 -10.28377 -10.24725
  Beta  occ. eigenvalues --  -10.22857 -10.22253 -10.22206 -10.21632 -10.21194
  Beta  occ. eigenvalues --  -10.21189 -10.20342 -10.20128 -10.20037 -10.19984
  Beta  occ. eigenvalues --  -10.19878 -10.19836 -10.18542  -9.43539  -9.43496
  Beta  occ. eigenvalues --   -9.43362  -7.19287  -7.19230  -7.19101  -7.19024
  Beta  occ. eigenvalues --   -7.19021  -7.19013  -7.18973  -7.18866  -7.18848
  Beta  occ. eigenvalues --   -3.46159  -2.22484  -2.22432  -2.22264  -1.11953
  Beta  occ. eigenvalues --   -1.03496  -1.01230  -0.89131  -0.87156  -0.84686
  Beta  occ. eigenvalues --   -0.79001  -0.78815  -0.78108  -0.77992  -0.77296
  Beta  occ. eigenvalues --   -0.76070  -0.75557  -0.74815  -0.72092  -0.66474
  Beta  occ. eigenvalues --   -0.63964  -0.61969  -0.60998  -0.59688  -0.57197
  Beta  occ. eigenvalues --   -0.56115  -0.54934  -0.52306  -0.51283  -0.50592
  Beta  occ. eigenvalues --   -0.49782  -0.49146  -0.48054  -0.47674  -0.47328
  Beta  occ. eigenvalues --   -0.46117  -0.44664  -0.44346  -0.43396  -0.43026
  Beta  occ. eigenvalues --   -0.42855  -0.41986  -0.41407  -0.41067  -0.40611
  Beta  occ. eigenvalues --   -0.39880  -0.38630  -0.37749  -0.37507  -0.37447
  Beta  occ. eigenvalues --   -0.36939  -0.36299  -0.36016  -0.35806  -0.35566
  Beta  occ. eigenvalues --   -0.35414  -0.35289  -0.34832  -0.32839  -0.32832
  Beta  occ. eigenvalues --   -0.32370  -0.31914  -0.31641  -0.31525  -0.29689
  Beta  occ. eigenvalues --   -0.29549  -0.29328  -0.28423  -0.26661  -0.26180
  Beta virt. eigenvalues --   -0.14411  -0.13468  -0.13322  -0.12582  -0.12189
  Beta virt. eigenvalues --   -0.11424  -0.02967  -0.02713  -0.01402  -0.01274
  Beta virt. eigenvalues --   -0.00162  -0.00039   0.00117   0.01443   0.01692

 Mulliken charges and spin densities:
               1          2
     1  C   -0.365802   0.002418
     2  C    3.373466   0.003879
     3  C   -0.580118  -0.008075
     4  C    0.060938   0.004700
     5  C    0.174017   0.000823
     6  C   -0.127844   0.001301
     7  C   -2.779824  -0.004685
     8  C    0.565559   0.008410
     9  C    0.609928   0.002156
    10  C    0.603970   0.001126
    11  C    1.115916   0.020208
    12  C   -0.604248  -0.005440
    13  C    0.169904  -0.004326
    14  O   -0.370828   0.288169
    15  Fe   0.685195   4.041083
    16  Cl  -0.562516   0.210843
    17  C    0.339033  -0.001204
    18  Cl  -0.493071   0.229646
    19  Cl  -0.552266   0.205986
    20  H   -0.282198   0.000298
    21  H   -0.168095  -0.000062
    22  H   -0.162692   0.000011
    23  H   -0.160585   0.000142
    24  H   -0.214671   0.000005
    25  H   -0.198138  -0.000149
    26  C    0.887877   0.002521
    27  H   -0.149190   0.000726
    28  H   -0.062920   0.000046
    29  H   -0.090555   0.000037
    30  H   -0.099191   0.000244
    31  H   -0.187411   0.000199
    32  H    0.064904  -0.000520
    33  H    0.187741   0.000934
    34  H    0.010907  -0.000031
    35  H    0.074363   0.000299
    36  H    0.145746  -0.001041
    37  H    0.076827   0.000054
    38  O   -0.723247  -0.001122
    39  O   -0.653389   0.001225
    40  C    0.429090  -0.001007
    41  C    0.052652   0.000539
    42  H   -0.035851   0.000007
    43  H   -0.049164   0.000009
    44  H   -0.005054   0.000030
    45  H    0.020816  -0.000016
    46  H    0.030018  -0.000400
 Sum of Mulliken charges =  -0.00000   5.00000

 Dipole moment (field-independent basis, Debye):
    X=              4.2554    Y=            -12.6893    Z=             -5.6845  Tot=             14.5410
 Quadrupole moment (field-independent basis, Debye-Ang):
   XX=           -204.9149   YY=           -144.5177   ZZ=           -169.3653
   XY=             21.1549   XZ=             11.8246   YZ=              7.9460

 Normal termination of Gaussian 16 at Sun Jun 20 13:47:24 2021.
