 Gaussian 16, Revision A.03,

 -----------------------------------------------------------
 #p opt=modredundant freq=noraman ub3lyp jul-cc-pvdz pop=cm5
 -----------------------------------------------------------

 -----
 title
 -----
 Symbolic Z-matrix:
 Charge =  0 Multiplicity = 6

 SCF Done:  E(UB3LYP) =  -3531.40911893     A.U. after   26 cycles
 SCF Done:  E(UB3LYP) =  -3531.40904606     A.U. after   18 cycles
 SCF Done:  E(UB3LYP) =  -3531.40254948     A.U. after   21 cycles
 SCF Done:  E(UB3LYP) =  -3531.40234274     A.U. after   20 cycles
 SCF Done:  E(UB3LYP) =  -3531.40922420     A.U. after   15 cycles
 SCF Done:  E(UB3LYP) =  -3531.40885065     A.U. after   19 cycles
 SCF Done:  E(UB3LYP) =  -3531.40947759     A.U. after   18 cycles
 SCF Done:  E(UB3LYP) =  -3531.40949739     A.U. after   17 cycles
 SCF Done:  E(UB3LYP) =  -3531.40971918     A.U. after   17 cycles
 SCF Done:  E(UB3LYP) =  -3531.40971143     A.U. after   16 cycles
 SCF Done:  E(UB3LYP) =  -3531.40975243     A.U. after   11 cycles
 SCF Done:  E(UB3LYP) =  -3531.40975294     A.U. after   11 cycles
 SCF Done:  E(UB3LYP) =  -3531.40975318     A.U. after    9 cycles
 SCF Done:  E(UB3LYP) =  -3531.40975329     A.U. after   10 cycles
 SCF Done:  E(UB3LYP) =  -3531.40975325     A.U. after    9 cycles
 SCF Done:  E(UB3LYP) =  -3531.40975322     A.U. after    9 cycles
 SCF Done:  E(UB3LYP) =  -3531.40975320     A.U. after    8 cycles
 Optimization completed.
    -- Stationary point found.
 Normal termination of Gaussian 16 at Sun Jun 20 05:44:46 2021.

 ----------------------------------------------------------------------
 #P Geom=AllCheck Guess=TCheck SCRF=Check GenChk UB3LYP/Jul-CC-pVDZ Fre
 q
 ----------------------------------------------------------------------

 Structure from the checkpoint file:  "checkpoint.chk"
 -----
 title
 -----
 Charge =  0 Multiplicity = 6

 SCF Done:  E(UB3LYP) =  -3531.40975320     A.U. after    2 cycles

  Exact polarizability: 319.341  14.471 297.423  12.395  13.980 296.681
 Approx polarizability: 495.720  40.834 451.645  10.675  25.298 492.830

 ******    2 imaginary frequencies (negative Signs) ******

                      1                      2                      3
                      A                      A                      A
 Frequencies --   -318.4162               -19.6324                21.1973
 Red. masses --      7.8158                 5.4047                 5.9828
 Frc consts  --      0.4669                 0.0012                 0.0016
 IR Inten    --    324.1811                 1.4505                 0.3622

                      4                      5                      6
                      A                      A                      A
 Frequencies --     28.6665                35.6666                47.1191
 Red. masses --      7.3400                 5.0947                 5.1611
 Frc consts  --      0.0036                 0.0038                 0.0068
 IR Inten    --      0.9139                 0.6875                 2.3189

                      7                      8                      9
                      A                      A                      A
 Frequencies --     51.4439                62.5992                67.6344
 Red. masses --      3.1700                 5.5779                 4.1225
 Frc consts  --      0.0049                 0.0129                 0.0111
 IR Inten    --      0.2311                 0.7349                 1.2430

                     10                     11                     12
                      A                      A                      A
 Frequencies --     83.4156                90.1939               102.2586
 Red. masses --     10.4035                 7.5171                 5.1438
 Frc consts  --      0.0427                 0.0360                 0.0317
 IR Inten    --      0.6454                 1.5078                 2.4830

                     13                     14                     15
                      A                      A                      A
 Frequencies --    104.0155               106.5212               120.9138
 Red. masses --      7.9924                 4.7039                18.6950
 Frc consts  --      0.0509                 0.0314                 0.1610
 IR Inten    --      4.3106                 4.0788                 0.9192

                     16                     17                     18
                      A                      A                      A
 Frequencies --    129.4380               146.8907               152.9345
 Red. masses --      7.9819                 3.5982                 1.1752
 Frc consts  --      0.0788                 0.0457                 0.0162
 IR Inten    --      1.7734                 3.2274                 3.4623

                     19                     20                     21
                      A                      A                      A
 Frequencies --    163.3375               175.9402               184.0209
 Red. masses --      2.1894                 1.5831                 2.9284
 Frc consts  --      0.0344                 0.0289                 0.0584
 IR Inten    --      3.7880                 0.7488                 2.4526

                     22                     23                     24
                      A                      A                      A
 Frequencies --    194.0604               209.8393               226.6763
 Red. masses --      2.5727                 2.7481                 4.7303
 Frc consts  --      0.0571                 0.0713                 0.1432
 IR Inten    --      1.1658                 2.3573                13.4867

                     25                     26                     27
                      A                      A                      A
 Frequencies --    245.3570               261.5323               293.4455
 Red. masses --      2.9324                 1.9393                 4.0202
 Frc consts  --      0.1040                 0.0782                 0.2040
 IR Inten    --      4.7078                 3.1703                 4.9214

                     28                     29                     30
                      A                      A                      A
 Frequencies --    318.3986               326.9424               345.2075
 Red. masses --      2.2611                 8.0240                10.6924
 Frc consts  --      0.1351                 0.5053                 0.7507
 IR Inten    --      0.4512                 5.0979                46.7403

                     31                     32                     33
                      A                      A                      A
 Frequencies --    352.3241               375.5985               379.2048
 Red. masses --      8.0939                 4.1062                24.5564
 Frc consts  --      0.5920                 0.3413                 2.0805
 IR Inten    --     16.4301                10.9982                79.3271

                     34                     35                     36
                      A                      A                      A
 Frequencies --    391.0288               405.3761               410.2012
 Red. masses --     32.5764                 2.8028                 2.8694
 Frc consts  --      2.9347                 0.2714                 0.2845
 IR Inten    --     75.9765                11.9783                 0.7615

                     37                     38                     39
                      A                      A                      A
 Frequencies --    434.4404               451.0329               476.7849
 Red. masses --      3.4557                 4.2684                 2.8101
 Frc consts  --      0.3843                 0.5116                 0.3764
 IR Inten    --     11.0929                13.7906                12.8191

                     40                     41                     42
                      A                      A                      A
 Frequencies --    509.2127               527.3971               561.6669
 Red. masses --      2.7433                 3.3341                 3.1229
 Frc consts  --      0.4191                 0.5464                 0.5804
 IR Inten    --      7.2589                 4.5071                45.3981

                     43                     44                     45
                      A                      A                      A
 Frequencies --    613.2347               627.1305               639.7748
 Red. masses --      4.2353                 5.9908                 4.3266
 Frc consts  --      0.9384                 1.3882                 1.0434
 IR Inten    --     20.7091                12.9166               112.0925

                     46                     47                     48
                      A                      A                      A
 Frequencies --    695.0675               706.1970               758.0752
 Red. masses --      1.6374                 5.6025                 4.5357
 Frc consts  --      0.4661                 1.6462                 1.5358
 IR Inten    --     46.9627                34.1776                 3.3311

                     49                     50                     51
                      A                      A                      A
 Frequencies --    764.1482               801.3530               804.2929
 Red. masses --      2.3978                 1.5300                 2.1503
 Frc consts  --      0.8249                 0.5789                 0.8195
 IR Inten    --     12.6198                16.1023                 3.1779

                     52                     53                     54
                      A                      A                      A
 Frequencies --    820.5212               840.4005               862.1981
 Red. masses --      2.9000                 1.2613                 2.1352
 Frc consts  --      1.1503                 0.5248                 0.9352
 IR Inten    --     32.1232                 1.2759                11.4936

                     55                     56                     57
                      A                      A                      A
 Frequencies --    869.3239               884.3130               917.2405
 Red. masses --      1.6414                 1.7441                 2.1252
 Frc consts  --      0.7308                 0.8036                 1.0535
 IR Inten    --     20.9520                 4.1559                13.7185

                     58                     59                     60
                      A                      A                      A
 Frequencies --    935.3147               959.7585               967.0082
 Red. masses --      1.4215                 2.9856                 1.3274
 Frc consts  --      0.7327                 1.6203                 0.7313
 IR Inten    --      4.9693                26.1168                40.3938

                     61                     62                     63
                      A                      A                      A
 Frequencies --    984.2934               992.3950              1000.9586
 Red. masses --      1.4558                 2.7441                 1.8264
 Frc consts  --      0.8310                 1.5923                 1.0782
 IR Inten    --      4.3917                23.8998                 0.9973

                     64                     65                     66
                      A                      A                      A
 Frequencies --   1002.0137              1003.1431              1007.4129
 Red. masses --      2.0513                 1.3295                 2.3984
 Frc consts  --      1.2134                 0.7883                 1.4341
 IR Inten    --      3.6297                 6.9859                 2.9306

                     67                     68                     69
                      A                      A                      A
 Frequencies --   1037.2961              1046.6323              1063.5171
 Red. masses --      2.7937                 2.4828                 2.1745
 Frc consts  --      1.7711                 1.6025                 1.4491
 IR Inten    --     39.9678                 6.1505                16.8154

                     70                     71                     72
                      A                      A                      A
 Frequencies --   1068.5657              1095.5242              1109.9798
 Red. masses --      1.8711                 1.7316                 1.5793
 Frc consts  --      1.2588                 1.2245                 1.1464
 IR Inten    --     27.1734                12.8246                11.8040

                     73                     74                     75
                      A                      A                      A
 Frequencies --   1131.6278              1134.4833              1161.5697
 Red. masses --      2.2058                 2.3187                 1.7213
 Frc consts  --      1.6642                 1.7583                 1.3683
 IR Inten    --     10.9942                 7.5507                49.0573

                     76                     77                     78
                      A                      A                      A
 Frequencies --   1169.7819              1175.6036              1190.1912
 Red. masses --      1.5758                 1.0896                 1.8998
 Frc consts  --      1.2705                 0.8873                 1.5856
 IR Inten    --     11.2616                 1.0276                48.7077

                     79                     80                     81
                      A                      A                      A
 Frequencies --   1200.5471              1209.7851              1230.3912
 Red. masses --      1.4892                 1.9665                 2.0333
 Frc consts  --      1.2646                 1.6958                 1.8136
 IR Inten    --     29.1960                34.7298               166.8877

                     82                     83                     84
                      A                      A                      A
 Frequencies --   1258.4270              1265.8187              1286.4063
 Red. masses --      1.8663                 2.4576                 1.1375
 Frc consts  --      1.7414                 2.3200                 1.1091
 IR Inten    --     52.4525               362.8204                16.1343

                     85                     86                     87
                      A                      A                      A
 Frequencies --   1321.1249              1323.9856              1331.4146
 Red. masses --      1.4473                 1.4534                 1.6765
 Frc consts  --      1.4883                 1.5010                 1.7510
 IR Inten    --     53.5456                29.8309                32.7802

                     88                     89                     90
                      A                      A                      A
 Frequencies --   1345.9267              1359.6801              1361.2628
 Red. masses --      1.5514                 3.4903                 1.3931
 Frc consts  --      1.6559                 3.8017                 1.5209
 IR Inten    --     67.3100                 1.5538                44.1383

                     91                     92                     93
                      A                      A                      A
 Frequencies --   1371.9088              1384.8744              1388.4411
 Red. masses --      1.3213                 1.4129                 1.2645
 Frc consts  --      1.4652                 1.5966                 1.4362
 IR Inten    --     61.2146                26.6674                55.8984

                     94                     95                     96
                      A                      A                      A
 Frequencies --   1402.8353              1415.8937              1443.1306
 Red. masses --      1.5641                 1.4308                 1.0889
 Frc consts  --      1.8136                 1.6900                 1.3361
 IR Inten    --     65.2920                 2.3335                19.8169

                     97                     98                     99
                      A                      A                      A
 Frequencies --   1455.8647              1469.1332              1472.3484
 Red. masses --      1.0950                 1.7169                 1.3364
 Frc consts  --      1.3674                 2.1833                 1.7069
 IR Inten    --      5.7496                 7.4323                25.6341

                    100                    101                    102
                      A                      A                      A
 Frequencies --   1473.2412              1483.0915              1488.7517
 Red. masses --      1.0404                 1.1119                 1.0543
 Frc consts  --      1.3304                 1.4409                 1.3767
 IR Inten    --      4.5658                22.4480                 2.2162

                    103                    104                    105
                      A                      A                      A
 Frequencies --   1499.9699              1506.7052              1506.8673
 Red. masses --      1.1709                 1.0840                 1.1243
 Frc consts  --      1.5522                 1.4499                 1.5041
 IR Inten    --      8.0949                 4.9622                21.3655

                    106                    107                    108
                      A                      A                      A
 Frequencies --   1516.3852              1593.2650              1619.4316
 Red. masses --      1.8496                 4.1582                 5.5687
 Frc consts  --      2.5058                 6.2192                 8.6046
 IR Inten    --      2.7182               152.0775                 3.1104

                    109                    110                    111
                      A                      A                      A
 Frequencies --   1639.2883              1764.1023              3005.1669
 Red. masses --      5.6786                11.5148                 1.0527
 Frc consts  --      8.9909                21.1132                 5.6015
 IR Inten    --     16.8392               235.3422                 3.2422

                    112                    113                    114
                      A                      A                      A
 Frequencies --   3020.1893              3041.2073              3053.3166
 Red. masses --      1.0447                 1.0361                 1.0637
 Frc consts  --      5.6143                 5.6459                 5.8426
 IR Inten    --      3.2120                20.6942                22.6653

                    115                    116                    117
                      A                      A                      A
 Frequencies --   3060.6331              3072.0587              3076.9340
 Red. masses --      1.0595                 1.0625                 1.0857
 Frc consts  --      5.8473                 5.9079                 6.0563
 IR Inten    --     14.5695                25.2539                 0.8039

                    118                    119                    120
                      A                      A                      A
 Frequencies --   3088.1946              3100.6496              3109.4778
 Red. masses --      1.0893                 1.1006                 1.1048
 Frc consts  --      6.1207                 6.2345                 6.2939
 IR Inten    --      3.4499                 5.2611                11.0003

                    121                    122                    123
                      A                      A                      A
 Frequencies --   3113.0070              3117.2133              3123.2007
 Red. masses --      1.0804                 1.1028                 1.1013
 Frc consts  --      6.1688                 6.3135                 6.3292
 IR Inten    --      2.7921                15.8433                16.2321

                    124                    125                    126
                      A                      A                      A
 Frequencies --   3140.5882              3151.9568              3170.6679
 Red. masses --      1.1043                 1.1035                 1.1035
 Frc consts  --      6.4174                 6.4595                 6.5363
 IR Inten    --     12.5812                 2.6296                 2.5653

                    127                    128                    129
                      A                      A                      A
 Frequencies --   3172.8735              3175.4289              3185.2823
 Red. masses --      1.0858                 1.0883                 1.0910
 Frc consts  --      6.4406                 6.4655                 6.5219
 IR Inten    --      0.1455                 6.8496                 7.4698

                    130                    131                    132
                      A                      A                      A
 Frequencies --   3195.5270              3225.6283              3231.4824
 Red. masses --      1.0969                 1.0918                 1.0919
 Frc consts  --      6.5993                 6.6927                 6.7178
 IR Inten    --     14.7980                 2.1253                 2.2354

 - Thermochemistry -
 -------------------
 Temperature   298.150 Kelvin.  Pressure   1.00000 Atm.
 Atom     1 has atomic number  6 and mass  12.00000

 Molecular mass:   434.99839 amu.
 Principal axes and moments of inertia in atomic units:
                           1         2         3
     Eigenvalues --  9015.87063********************
           X            0.99984  -0.00534   0.01697
           Y            0.00491   0.99968   0.02484
           Z           -0.01710  -0.02475   0.99955
 This molecule is an asymmetric top.
 Rotational symmetry number  1.
 Warning -- assumption of classical behavior for rotation
           may cause significant error
 Rotational temperatures (Kelvin)      0.00961     0.00794     0.00686
 Rotational constants (GHZ):           0.20017     0.16540     0.14287
    2 imaginary frequencies ignored.
 Zero-point vibrational energy     941648.1 (Joules/Mol)
                                  225.05929 (Kcal/Mol)
 Warning -- explicit consideration of  41 degrees of freedom as
           vibrations may cause significant error
 Vibrational temperatures:     30.50    41.24    51.32    67.79    74.02
          (Kelvin)             90.07    97.31   120.02   129.77   147.13
                              149.66   153.26   173.97   186.23   211.34
                              220.04   235.01   253.14   264.77   279.21
                              301.91   326.14   353.01   376.29   422.20
                              458.10   470.40   496.68   506.92   540.40
                              545.59   562.60   583.25   590.19   625.06
                              648.94   685.99   732.64   758.81   808.11
                              882.31   902.30   920.49  1000.05  1016.06
                             1090.70  1099.44  1152.97  1157.20  1180.55
                             1209.15  1240.51  1250.76  1272.33  1319.70
                             1345.71  1380.88  1391.31  1416.18  1427.84
                             1440.16  1441.67  1443.30  1449.44  1492.44
                             1505.87  1530.16  1537.43  1576.21  1597.01
                             1628.16  1632.27  1671.24  1683.06  1691.43
                             1712.42  1727.32  1740.61  1770.26  1810.60
                             1821.23  1850.85  1900.80  1904.92  1915.61
                             1936.49  1956.28  1958.55  1973.87  1992.53
                             1997.66  2018.37  2037.16  2076.34  2094.66
                             2113.75  2118.38  2119.67  2133.84  2141.98
                             2158.12  2167.81  2168.05  2181.74  2292.35
                             2330.00  2358.57  2538.15  4323.76  4345.38
                             4375.62  4393.04  4403.57  4420.01  4427.02
                             4443.22  4461.14  4473.84  4478.92  4484.97
                             4493.59  4518.61  4534.96  4561.88  4565.06
                             4568.73  4582.91  4597.65  4640.96  4649.38

 Zero-point correction=                           0.358655 (Hartree/Particle)
 Thermal correction to Energy=                    0.385349
 Thermal correction to Enthalpy=                  0.386294
 Thermal correction to Gibbs Free Energy=         0.297719
 Sum of electronic and zero-point Energies=          -3531.051098
 Sum of electronic and thermal Energies=             -3531.024404
 Sum of electronic and thermal Enthalpies=           -3531.023460
 Sum of electronic and thermal Free Energies=        -3531.112034

                     E (Thermal)             CV                S
                      KCal/Mol        Cal/Mol-Kelvin    Cal/Mol-Kelvin
 Total                  241.810             95.827            186.422
 Electronic               0.000              0.000              3.561
 Translational            0.889              2.981             44.100
 Rotational               0.889              2.981             35.473
 Vibrational            240.033             89.865            103.288
 Vibration     1          0.593              1.985              6.519
 Vibration     2          0.593              1.984              5.920
 Vibration     3          0.594              1.982              5.486
 Vibration     4          0.595              1.979              4.935
 Vibration     5          0.596              1.977              4.761
 Vibration     6          0.597              1.972              4.374
 Vibration     7          0.598              1.970              4.221
 Vibration     8          0.600              1.961              3.809
 Vibration     9          0.602              1.956              3.656
 Vibration    10          0.604              1.947              3.411
 Vibration    11          0.605              1.946              3.378
 Vibration    12          0.605              1.944              3.331
 Vibration    13          0.609              1.932              3.086
 Vibration    14          0.612              1.924              2.954
 Vibration    15          0.617              1.906              2.712
 Vibration    16          0.619              1.899              2.635
 Vibration    17          0.623              1.887              2.511
 Vibration    18          0.628              1.872              2.371
 Vibration    19          0.631              1.862              2.287
 Vibration    20          0.635              1.848              2.189
 Vibration    21          0.642              1.826              2.045
 Vibration    22          0.650              1.800              1.905
 Vibration    23          0.660              1.770              1.764
 Vibration    24          0.669              1.743              1.652
 Vibration    25          0.688              1.686              1.454
 Vibration    26          0.705              1.638              1.318
 Vibration    27          0.711              1.622              1.275
 Vibration    28          0.724              1.585              1.188
 Vibration    29          0.729              1.570              1.156
 Vibration    30          0.746              1.522              1.057
 Vibration    31          0.749              1.514              1.042
 Vibration    32          0.759              1.489              0.996
 Vibration    33          0.770              1.459              0.943
 Vibration    34          0.774              1.448              0.926
 Vibration    35          0.795              1.395              0.844
 Vibration    36          0.810              1.359              0.793
 Vibration    37          0.833              1.302              0.719
 Vibration    38          0.864              1.230              0.635
 Vibration    39          0.882              1.189              0.593
 Vibration    40          0.917              1.114              0.521
 Vibration    41          0.973              1.004              0.427

                           ! Non-Optimized Parameters !
 Normal termination of Gaussian 16 at Sun Jun 20 10:38:54 2021.

 ----------------------------------------------------------------------
 #p ub3lyp jul-cc-pvdz pop=cm5 scrf=(pcm,solvent=dichloroethane) guess=
 read geom=allcheck
 ----------------------------------------------------------------------

 Structure from the checkpoint file:  "checkpoint.chk"
 -----
 title
 -----
 Charge =  0 Multiplicity = 6

 SCF Done:  E(UB3LYP) =  -3531.43164439     A.U. after   19 cycles
 Normal termination of Gaussian 16 at Sun Jun 20 11:06:02 2021.
 Gaussian 16:  ES64L-G16RevA.03 25-Dec-2016

 ----------------------------------------------------------------------
 #p ub3lyp jul-cc-pvdz pop=cm5 scrf=(pcm,solvent=water) guess=read geom
 =allcheck
 ----------------------------------------------------------------------

 Structure from the checkpoint file:  "checkpoint.chk"
 -----
 title
 -----
 Charge =  0 Multiplicity = 6

                         Standard orientation:
 ---------------------------------------------------------------------
 Center     Atomic      Atomic             Coordinates (Angstroms)
 Number     Number       Type             X           Y           Z
 ---------------------------------------------------------------------
      1          6           0        3.220366   -0.443395    0.474789
      2          6           0        1.837961   -0.572962    0.715005
      3          6           0        1.387692   -0.618720    2.046805
      4          6           0        2.293089   -0.541782    3.107540
      5          6           0        3.661715   -0.422200    2.856501
      6          6           0        4.121378   -0.369441    1.534470
      7          6           0        0.822357   -0.627766   -0.396197
      8          6           0        1.021408    0.278918   -1.659301
      9          6           0        1.887382   -0.390361   -2.730440
     10          6           0        1.453051   -1.863038   -2.778000
     11          6           0        1.279764   -2.325343   -1.349618
     12          6           0        0.109515   -2.847611   -0.814356
     13          6           0       -1.183427   -2.878861   -1.552834
     14          8           0       -0.425879   -0.766825    0.006429
     15         26           0       -2.079830    0.115283    0.397679
     16         17           0       -2.861744    0.894115   -1.529433
     17          6           0        0.123073   -3.521463    0.512553
     18         17           0       -1.784723    1.647510    1.965664
     19         17           0       -3.335212   -1.549531    1.194772
     20          1           0        0.321868   -0.683992    2.248979
     21          1           0        1.921735   -0.566568    4.132651
     22          1           0        4.369309   -0.361189    3.684849
     23          1           0        5.186971   -0.262119    1.328448
     24          1           0        3.603379   -0.385139   -0.540786
     25          1           0        0.002074    0.419360   -2.041061
     26          6           0        1.552658    1.666485   -1.282725
     27          1           0        1.751548    0.110101   -3.698234
     28          1           0        2.949910   -0.295706   -2.477471
     29          1           0        0.519074   -1.962199   -3.344086
     30          1           0        2.204323   -2.482682   -3.287928
     31          1           0        2.198545   -2.588435   -0.826921
     32          1           0       -0.080159   -4.592805    0.341625
     33          1           0        1.083441   -3.429491    1.030049
     34          1           0       -0.694595   -3.145176    1.142278
     35          1           0       -1.204178   -3.834542   -2.108404
     36          1           0       -2.037876   -2.870972   -0.867850
     37          1           0       -1.293950   -2.071515   -2.281644
     38          8           0        0.573599    2.434798   -0.796676
     39          8           0        2.703913    2.020685   -1.433377
     40          6           0        0.934325    3.792609   -0.399576
     41          6           0       -0.347748    4.576410   -0.212177
     42          1           0        1.519328    3.720819    0.527779
     43          1           0        1.578609    4.215595   -1.180537
     44          1           0       -0.098526    5.599791    0.104355
     45          1           0       -0.914059    4.631565   -1.151944
     46          1           0       -0.983056    4.114239    0.553498
 ---------------------------------------------------------------------

 SCF Done:  E(UB3LYP) =  -3531.43578551     A.U. after   17 cycles

 The electronic state is 6-A.
 Alpha  occ. eigenvalues -- -256.20254-101.51991-101.51969-101.51867 -30.19651
 Alpha  occ. eigenvalues --  -26.04957 -26.04896 -26.04794 -19.20569 -19.16475
 Alpha  occ. eigenvalues --  -19.15480 -10.33327 -10.32463 -10.27877 -10.24864
 Alpha  occ. eigenvalues --  -10.22550 -10.21988 -10.21971 -10.20944 -10.20855
 Alpha  occ. eigenvalues --  -10.20756 -10.20569 -10.20467 -10.20410 -10.20337
 Alpha  occ. eigenvalues --  -10.20308 -10.20232 -10.18481  -9.43707  -9.43698
 Alpha  occ. eigenvalues --   -9.43585  -7.19572  -7.19563  -7.19455  -7.19255
 Alpha  occ. eigenvalues --   -7.19247  -7.19245  -7.19237  -7.19130  -7.19116
 Alpha  occ. eigenvalues --   -3.67356  -2.44877  -2.44694  -2.44537  -1.12418
 Alpha  occ. eigenvalues --   -1.06424  -1.03897  -0.88031  -0.87126  -0.83782
 Alpha  occ. eigenvalues --   -0.79963  -0.79269  -0.79154  -0.78790  -0.78154
 Alpha  occ. eigenvalues --   -0.76428  -0.75179  -0.72665  -0.71294  -0.66610
 Alpha  occ. eigenvalues --   -0.64576  -0.62307  -0.61709  -0.59533  -0.57342
 Alpha  occ. eigenvalues --   -0.56139  -0.54424  -0.53036  -0.51535  -0.50588
 Alpha  occ. eigenvalues --   -0.49918  -0.49569  -0.48952  -0.48000  -0.47905
 Alpha  occ. eigenvalues --   -0.47594  -0.47433  -0.46820  -0.46612  -0.46102
 Alpha  occ. eigenvalues --   -0.44808  -0.44745  -0.43587  -0.43344  -0.42821
 Alpha  occ. eigenvalues --   -0.42499  -0.41350  -0.40838  -0.40367  -0.40027
 Alpha  occ. eigenvalues --   -0.39498  -0.38935  -0.38171  -0.37718  -0.37382
 Alpha  occ. eigenvalues --   -0.37031  -0.36859  -0.36116  -0.35937  -0.35810
 Alpha  occ. eigenvalues --   -0.34586  -0.34196  -0.33700  -0.32091  -0.31754
 Alpha  occ. eigenvalues --   -0.30899  -0.30821  -0.30522  -0.30257  -0.29887
 Alpha  occ. eigenvalues --   -0.29494  -0.28984  -0.28284  -0.27169  -0.25820
 Alpha virt. eigenvalues --   -0.11259  -0.03233  -0.02787  -0.01612  -0.01239
 Alpha virt. eigenvalues --   -0.00146   0.00005   0.00035   0.01465   0.01598
 Alpha virt. eigenvalues --    0.01783   0.01947   0.02550   0.03241   0.03604

  Beta  occ. eigenvalues -- -256.20069-101.51818-101.51792-101.51699 -30.10710
  Beta  occ. eigenvalues --  -25.97469 -25.97422 -25.97400 -19.20569 -19.15862
  Beta  occ. eigenvalues --  -19.15478 -10.33328 -10.32465 -10.27858 -10.24864
  Beta  occ. eigenvalues --  -10.22535 -10.21951 -10.21929 -10.20945 -10.20858
  Beta  occ. eigenvalues --  -10.20761 -10.20566 -10.20465 -10.20410 -10.20339
  Beta  occ. eigenvalues --  -10.20308 -10.20229 -10.18480  -9.43536  -9.43524
  Beta  occ. eigenvalues --   -9.43419  -7.19282  -7.19271  -7.19163  -7.19022
  Beta  occ. eigenvalues --   -7.19018  -7.19008  -7.18997  -7.18906  -7.18904
  Beta  occ. eigenvalues --   -3.46510  -2.22804  -2.22730  -2.22666  -1.12415
  Beta  occ. eigenvalues --   -1.05249  -1.03894  -0.87918  -0.87059  -0.83736
  Beta  occ. eigenvalues --   -0.78847  -0.78802  -0.78113  -0.78004  -0.77938
  Beta  occ. eigenvalues --   -0.76424  -0.75137  -0.72649  -0.71168  -0.66478
  Beta  occ. eigenvalues --   -0.64506  -0.62269  -0.61661  -0.59138  -0.57088
  Beta  occ. eigenvalues --   -0.55763  -0.54334  -0.52101  -0.51497  -0.50282
  Beta  occ. eigenvalues --   -0.49894  -0.48681  -0.48524  -0.47905  -0.47212
  Beta  occ. eigenvalues --   -0.45910  -0.44902  -0.43580  -0.43365  -0.42882
  Beta  occ. eigenvalues --   -0.42450  -0.41345  -0.40812  -0.40358  -0.40033
  Beta  occ. eigenvalues --   -0.39502  -0.38880  -0.38050  -0.37767  -0.37581
  Beta  occ. eigenvalues --   -0.37156  -0.36905  -0.36142  -0.35898  -0.35883
  Beta  occ. eigenvalues --   -0.35572  -0.35538  -0.34493  -0.33063  -0.32810
  Beta  occ. eigenvalues --   -0.32325  -0.32089  -0.31936  -0.31154  -0.30105
  Beta  occ. eigenvalues --   -0.29412  -0.28970  -0.28421  -0.27168  -0.25825
  Beta virt. eigenvalues --   -0.14114  -0.13807  -0.12947  -0.12763  -0.12350
  Beta virt. eigenvalues --   -0.10758  -0.03161  -0.02774  -0.01548  -0.01168
  Beta virt. eigenvalues --   -0.00105   0.00038   0.00065   0.01486   0.01626

 Mulliken charges and spin densities:
               1          2
     1  C    0.223492  -0.000011
     2  C    2.765663   0.002826
     3  C   -0.443262  -0.013511
     4  C    0.047634   0.005923
     5  C    0.253961  -0.002243
     6  C   -0.097944   0.002266
     7  C   -2.301059  -0.011324
     8  C    0.362068   0.012615
     9  C    0.510647   0.003441
    10  C    0.661057  -0.002058
    11  C    0.577680   0.037187
    12  C   -0.390304   0.008123
    13  C    0.289932   0.001193
    14  O   -0.444827   0.191019
    15  Fe   0.691220   4.056375
    16  Cl  -0.535318   0.230291
    17  C    0.351419  -0.000738
    18  Cl  -0.493733   0.240827
    19  Cl  -0.528448   0.229912
    20  H   -0.243235   0.002001
    21  H   -0.161368  -0.000012
    22  H   -0.157520   0.000044
    23  H   -0.155885   0.000189
    24  H   -0.247586  -0.000119
    25  H   -0.196689  -0.000429
    26  C    0.848870   0.001554
    27  H   -0.139936   0.000339
    28  H   -0.014608  -0.000036
    29  H   -0.085704   0.000057
    30  H   -0.109507   0.001290
    31  H   -0.256741  -0.001091
    32  H    0.016425   0.000504
    33  H    0.021775   0.000101
    34  H    0.086650   0.000138
    35  H    0.030963   0.000257
    36  H    0.046292   0.000722
    37  H    0.084985  -0.000251
    38  O   -0.661409   0.002825
    39  O   -0.641042   0.000960
    40  C    0.426971   0.000490
    41  C    0.036265  -0.001433
    42  H   -0.036939   0.000011
    43  H   -0.037924   0.000027
    44  H   -0.007242   0.000037
    45  H    0.025629   0.000076
    46  H    0.028636  -0.000363
 Sum of Mulliken charges =  -0.00000   5.00000

 Dipole moment (field-independent basis, Debye):
    X=             10.2024    Y=             -7.4089    Z=             -3.6170  Tot=             13.1173
 Quadrupole moment (field-independent basis, Debye-Ang):
   XX=           -199.1184   YY=           -152.8246   ZZ=           -169.4681
   XY=             -5.5807   XZ=              9.9024   YZ=              8.4270

 Normal termination of Gaussian 16 at Sun Jun 20 11:30:07 2021.
