 Gaussian 16, Revision A.03,

 -----------------------------------------------------------
 #p opt=modredundant freq=noraman ub3lyp jul-cc-pvdz pop=cm5
 -----------------------------------------------------------

 -----
 title
 -----
 Symbolic Z-matrix:
 Charge =  0 Multiplicity = 6

 SCF Done:  E(UB3LYP) =  -3531.42802125     A.U. after   24 cycles
 SCF Done:  E(UB3LYP) =  -3531.42762325     A.U. after   17 cycles
 SCF Done:  E(UB3LYP) =  -3531.42471365     A.U. after   18 cycles
 SCF Done:  E(UB3LYP) =  -3531.42456117     A.U. after   18 cycles
 SCF Done:  E(UB3LYP) =  -3531.42816267     A.U. after   12 cycles
 SCF Done:  E(UB3LYP) =  -3531.42807989     A.U. after   17 cycles
 SCF Done:  E(UB3LYP) =  -3531.42843546     A.U. after   15 cycles
 SCF Done:  E(UB3LYP) =  -3531.42855514     A.U. after   17 cycles
 SCF Done:  E(UB3LYP) =  -3531.42867712     A.U. after   15 cycles
 SCF Done:  E(UB3LYP) =  -3531.42868747     A.U. after   14 cycles
 SCF Done:  E(UB3LYP) =  -3531.42871614     A.U. after    9 cycles
 SCF Done:  E(UB3LYP) =  -3531.42871633     A.U. after   10 cycles
 SCF Done:  E(UB3LYP) =  -3531.42871649     A.U. after   10 cycles
 SCF Done:  E(UB3LYP) =  -3531.42871663     A.U. after   10 cycles
 SCF Done:  E(UB3LYP) =  -3531.42871673     A.U. after    9 cycles
 SCF Done:  E(UB3LYP) =  -3531.42871680     A.U. after    9 cycles
 SCF Done:  E(UB3LYP) =  -3531.42871681     A.U. after    8 cycles
 Optimization completed.
    -- Stationary point found.
 Normal termination of Gaussian 16 at Sun Jun 20 15:16:05 2021.

 ----------------------------------------------------------------------
 #P Geom=AllCheck Guess=TCheck SCRF=Check GenChk UB3LYP/Jul-CC-pVDZ Fre
 q
 ----------------------------------------------------------------------

 Structure from the checkpoint file:  "checkpoint.chk"
 -----
 title
 -----
 Charge =  0 Multiplicity = 6

 SCF Done:  E(UB3LYP) =  -3531.42871681     A.U. after    2 cycles

  Exact polarizability: 320.345  12.597 301.440  17.292   4.714 303.695
 Approx polarizability: 499.592  47.282 457.806  25.781  -4.473 499.669

 ******    1 imaginary frequencies (negative Signs) ******

                      1                      2                      3
                      A                      A                      A
 Frequencies --    -30.7843                18.6864                19.6418
 Red. masses --      5.3472                 7.2100                 5.3637
 Frc consts  --      0.0030                 0.0015                 0.0012
 IR Inten    --      0.7524                 1.9131                 0.0847

                      4                      5                      6
                      A                      A                      A
 Frequencies --     30.4820                49.6104                51.7318
 Red. masses --      7.3393                 6.4910                 5.5471
 Frc consts  --      0.0040                 0.0094                 0.0087
 IR Inten    --      1.7677                 1.3656                 1.1245

                      7                      8                      9
                      A                      A                      A
 Frequencies --     55.0838                64.1220                79.9570
 Red. masses --      3.8403                 2.9206                11.0161
 Frc consts  --      0.0069                 0.0071                 0.0415
 IR Inten    --      2.1027                 2.1234                 0.2927

                     10                     11                     12
                      A                      A                      A
 Frequencies --     86.1492                90.3619                98.9527
 Red. masses --      7.3044                 6.4842                 4.7114
 Frc consts  --      0.0319                 0.0312                 0.0272
 IR Inten    --      1.4832                 4.1248                 1.1631

                     13                     14                     15
                      A                      A                      A
 Frequencies --    104.0817               114.7048               123.2788
 Red. masses --      5.4510                20.2147                11.7338
 Frc consts  --      0.0348                 0.1567                 0.1051
 IR Inten    --      0.5000                 0.1048                 2.2889

                     16                     17                     18
                      A                      A                      A
 Frequencies --    133.9438               144.0325               153.1662
 Red. masses --      2.4181                 3.2915                 2.0617
 Frc consts  --      0.0256                 0.0402                 0.0285
 IR Inten    --      4.4830                 3.6012                 1.6198

                     19                     20                     21
                      A                      A                      A
 Frequencies --    168.1498               181.1534               194.1827
 Red. masses --      5.3811                 2.0492                 2.7032
 Frc consts  --      0.0896                 0.0396                 0.0601
 IR Inten    --     15.7056                 0.6704                 6.7116

                     22                     23                     24
                      A                      A                      A
 Frequencies --    204.2093               214.1140               226.6836
 Red. masses --      2.3417                 1.2510                 3.1636
 Frc consts  --      0.0575                 0.0338                 0.0958
 IR Inten    --      1.2847                 1.3937                 8.7166

                     25                     26                     27
                      A                      A                      A
 Frequencies --    258.4976               271.4433               285.9553
 Red. masses --      1.6646                 4.3065                 3.9607
 Frc consts  --      0.0655                 0.1870                 0.1908
 IR Inten    --      2.7851                60.5850                 2.4149

                     28                     29                     30
                      A                      A                      A
 Frequencies --    318.1186               338.3082               352.3755
 Red. masses --      2.1988                23.4213                 6.0071
 Frc consts  --      0.1311                 1.5794                 0.4395
 IR Inten    --      0.2073                33.0192                 3.2197

                     31                     32                     33
                      A                      A                      A
 Frequencies --    372.1055               378.0626               396.6155
 Red. masses --      5.1080                 5.3774                28.0567
 Frc consts  --      0.4167                 0.4528                 2.6003
 IR Inten    --     16.3874                17.7499                84.4172

                     34                     35                     36
                      A                      A                      A
 Frequencies --    399.3845               402.2074               411.4991
 Red. masses --      4.3197                 5.6899                 2.9108
 Frc consts  --      0.4060                 0.5423                 0.2904
 IR Inten    --     31.3299                48.1683                 1.6993

                     37                     38                     39
                      A                      A                      A
 Frequencies --    422.4665               454.4726               475.8898
 Red. masses --      3.7196                 3.7873                 3.2660
 Frc consts  --      0.3911                 0.4609                 0.4358
 IR Inten    --     48.0091                 1.2410                10.1279

                     40                     41                     42
                      A                      A                      A
 Frequencies --    507.4099               520.6909               553.1836
 Red. masses --      3.3262                 2.7380                 3.0511
 Frc consts  --      0.5046                 0.4374                 0.5501
 IR Inten    --     13.5585                 5.0676                24.6661

                     43                     44                     45
                      A                      A                      A
 Frequencies --    576.1326               624.0258               649.3024
 Red. masses --      3.9570                 6.2938                 4.1779
 Frc consts  --      0.7739                 1.4440                 1.0378
 IR Inten    --     73.8154                 5.6327                86.2563

                     46                     47                     48
                      A                      A                      A
 Frequencies --    690.0588               697.7806               751.8484
 Red. masses --      1.5981                 6.1246                 4.3986
 Frc consts  --      0.4484                 1.7570                 1.4650
 IR Inten    --     59.1862                14.6346                 8.4604

                     49                     50                     51
                      A                      A                      A
 Frequencies --    770.4850               782.3628               804.3278
 Red. masses --      2.3219                 2.2226                 1.2314
 Frc consts  --      0.8121                 0.8016                 0.4694
 IR Inten    --     19.2522                 8.2766                 2.4624

                     52                     53                     54
                      A                      A                      A
 Frequencies --    823.6966               843.4628               845.1676
 Red. masses --      3.5911                 1.2603                 1.4746
 Frc consts  --      1.4355                 0.5283                 0.6206
 IR Inten    --     14.1043                 3.3007                17.0506

                     55                     56                     57
                      A                      A                      A
 Frequencies --    863.8899               894.3741               912.2741
 Red. masses --      2.7619                 2.0385                 2.1291
 Frc consts  --      1.2144                 0.9607                 1.0440
 IR Inten    --     30.6324                 4.2471                17.0139

                     58                     59                     60
                      A                      A                      A
 Frequencies --    951.3486               953.8068               969.1857
 Red. masses --      1.4256                 1.3185                 3.6580
 Frc consts  --      0.7602                 0.7067                 2.0245
 IR Inten    --      1.1264                 4.2969                26.9132

                     61                     62                     63
                      A                      A                      A
 Frequencies --    987.5861               992.2182               992.5374
 Red. masses --      2.2337                 1.3818                 1.5107
 Frc consts  --      1.2836                 0.8015                 0.8768
 IR Inten    --     21.8728                 1.3899                13.1171

                     64                     65                     66
                      A                      A                      A
 Frequencies --   1002.9259              1010.7448              1011.0092
 Red. masses --      3.8474                 1.9505                 1.4576
 Frc consts  --      2.2801                 1.1740                 0.8778
 IR Inten    --      2.1971                 2.5904                 1.4045

                     67                     68                     69
                      A                      A                      A
 Frequencies --   1036.1869              1046.4987              1073.1548
 Red. masses --      2.6624                 2.4585                 2.3080
 Frc consts  --      1.6842                 1.5864                 1.5660
 IR Inten    --     42.7612                 3.3349                 5.8368

                     70                     71                     72
                      A                      A                      A
 Frequencies --   1090.9150              1094.1985              1114.5402
 Red. masses --      1.9504                 1.9161                 1.5616
 Frc consts  --      1.3676                 1.3517                 1.1429
 IR Inten    --      9.7033                24.2466                 8.9743

                     73                     74                     75
                      A                      A                      A
 Frequencies --   1133.2639              1136.2613              1161.5732
 Red. masses --      2.1385                 2.1453                 1.6898
 Frc consts  --      1.6181                 1.6319                 1.3433
 IR Inten    --     14.3298                10.9850                76.4404

                     76                     77                     78
                      A                      A                      A
 Frequencies --   1170.1527              1178.2719              1202.7043
 Red. masses --      1.5629                 1.0850                 1.3169
 Frc consts  --      1.2609                 0.8875                 1.1223
 IR Inten    --      2.0375                 1.6051                45.8071

                     79                     80                     81
                      A                      A                      A
 Frequencies --   1208.6660              1225.1815              1253.5495
 Red. masses --      1.5037                 2.0088                 1.9655
 Frc consts  --      1.2943                 1.7766                 1.8198
 IR Inten    --     72.1878               119.3422                32.5171

                     82                     83                     84
                      A                      A                      A
 Frequencies --   1272.4939              1285.9486              1321.8118
 Red. masses --      2.4142                 1.1336                 1.4141
 Frc consts  --      2.3032                 1.1045                 1.4557
 IR Inten    --    160.0826                 3.1536                10.8308

                     85                     86                     87
                      A                      A                      A
 Frequencies --   1328.0679              1335.2998              1338.4735
 Red. masses --      1.4769                 1.6059                 1.6603
 Frc consts  --      1.5348                 1.6870                 1.7525
 IR Inten    --     99.1105                59.7974                47.1670

                     88                     89                     90
                      A                      A                      A
 Frequencies --   1361.8350              1368.3819              1374.3442
 Red. masses --      1.4971                 3.2214                 1.3443
 Frc consts  --      1.6358                 3.5540                 1.4961
 IR Inten    --      7.9838                12.6868                 4.8625

                     91                     92                     93
                      A                      A                      A
 Frequencies --   1381.9490              1400.6726              1408.5135
 Red. masses --      1.3736                 1.3372                 1.3664
 Frc consts  --      1.5456                 1.5456                 1.5971
 IR Inten    --     25.6913                 8.5900                17.0070

                     94                     95                     96
                      A                      A                      A
 Frequencies --   1416.0445              1456.5972              1462.9413
 Red. masses --      1.4046                 1.6737                 1.3798
 Frc consts  --      1.6594                 2.0922                 1.7399
 IR Inten    --     13.3341               124.4172                34.9585

                     97                     98                     99
                      A                      A                      A
 Frequencies --   1472.1635              1473.4940              1475.9425
 Red. masses --      1.0753                 1.0385                 1.0593
 Frc consts  --      1.3731                 1.3285                 1.3596
 IR Inten    --      8.9894                 5.9373                 8.7746

                    100                    101                    102
                      A                      A                      A
 Frequencies --   1480.9757              1487.0252              1490.0955
 Red. masses --      1.1036                 1.0555                 1.1213
 Frc consts  --      1.4262                 1.3752                 1.4669
 IR Inten    --      4.7207                 4.0018                17.9347

                    103                    104                    105
                      A                      A                      A
 Frequencies --   1500.3256              1505.4810              1507.2996
 Red. masses --      1.2283                 1.0931                 2.5957
 Frc consts  --      1.6290                 1.4598                 3.4746
 IR Inten    --     93.5643                 2.3757               415.6905

                    106                    107                    108
                      A                      A                      A
 Frequencies --   1518.4306              1617.4756              1640.1040
 Red. masses --      2.1366                 5.3964                 5.6366
 Frc consts  --      2.9024                 8.3182                 8.9333
 IR Inten    --     63.8085                10.0410                46.3652

                    109                    110                    111
                      A                      A                      A
 Frequencies --   1689.2363              1767.9698              3018.3511
 Red. masses --      6.2178                11.5354                 1.0452
 Frc consts  --     10.4536                21.2438                 5.6101
 IR Inten    --    110.8084               225.0166                 5.4434

                    112                    113                    114
                      A                      A                      A
 Frequencies --   3023.7677              3038.2574              3042.6722
 Red. masses --      1.0467                 1.0655                 1.0359
 Frc consts  --      5.6386                 5.7947                 5.6504
 IR Inten    --     12.3441                30.8482                16.9708

                    115                    116                    117
                      A                      A                      A
 Frequencies --   3061.4519              3065.5990              3080.1192
 Red. masses --      1.0587                 1.0660                 1.0850
 Frc consts  --      5.8462                 5.9028                 6.0650
 IR Inten    --     14.0588                30.8441                 0.0225

                    118                    119                    120
                      A                      A                      A
 Frequencies --   3081.7631              3090.9443              3105.8542
 Red. masses --      1.0925                 1.0969                 1.0839
 Frc consts  --      6.1135                 6.1747                 6.1603
 IR Inten    --      7.9161                 4.4137                 1.8225

                    121                    122                    123
                      A                      A                      A
 Frequencies --   3109.5920              3118.9292              3124.2900
 Red. masses --      1.1068                 1.1018                 1.0978
 Frc consts  --      6.3054                 6.3146                 6.3136
 IR Inten    --      8.4539                16.6374                13.3278

                    124                    125                    126
                      A                      A                      A
 Frequencies --   3128.9475              3140.1416              3142.3390
 Red. masses --      1.1029                 1.1048                 1.0883
 Frc consts  --      6.3617                 6.4182                 6.3317
 IR Inten    --      6.6633                14.1876                20.2016

                    127                    128                    129
                      A                      A                      A
 Frequencies --   3154.4180              3175.3945              3189.2947
 Red. masses --      1.1016                 1.0864                 1.0914
 Frc consts  --      6.4580                 6.4541                 6.5406
 IR Inten    --      9.1970                 0.6597                 6.2037

                    130                    131                    132
                      A                      A                      A
 Frequencies --   3197.8292              3231.0560              3242.4110
 Red. masses --      1.0969                 1.0925                 1.0920
 Frc consts  --      6.6090                 6.7201                 6.7638
 IR Inten    --     11.1876                 1.4352                 3.1618

 - Thermochemistry -
 -------------------
 Temperature   298.150 Kelvin.  Pressure   1.00000 Atm.
 Atom     1 has atomic number  6 and mass  12.00000

 Molecular mass:   434.99839 amu.
 Principal axes and moments of inertia in atomic units:
                           1         2         3
     Eigenvalues --  9374.74711********************
           X            0.99782  -0.06461   0.01362
           Y            0.06416   0.99745   0.03131
           Z           -0.01560  -0.03037   0.99942
 This molecule is an asymmetric top.
 Rotational symmetry number  1.
 Warning -- assumption of classical behavior for rotation
           may cause significant error
 Rotational temperatures (Kelvin)      0.00924     0.00788     0.00675
 Rotational constants (GHZ):           0.19251     0.16424     0.14067
    1 imaginary frequencies ignored.
 Zero-point vibrational energy     944772.7 (Joules/Mol)
                                  225.80608 (Kcal/Mol)
 Warning -- explicit consideration of  42 degrees of freedom as
           vibrations may cause significant error
 Vibrational temperatures:     26.89    28.26    43.86    71.38    74.43
          (Kelvin)             79.25    92.26   115.04   123.95   130.01
                              142.37   149.75   165.03   177.37   192.72
                              207.23   220.37   241.93   260.64   279.39
                              293.81   308.06   326.15   371.92   390.55
                              411.43   457.70   486.75   506.99   535.38
                              543.95   570.64   574.63   578.69   592.06
                              607.84   653.88   684.70   730.05   749.16
                              795.91   828.93   897.83   934.20   992.84
                             1003.95  1081.74  1108.56  1125.65  1157.25
                             1185.12  1213.55  1216.01  1242.94  1286.80
                             1312.56  1368.78  1372.32  1394.44  1420.92
                             1427.58  1428.04  1442.99  1454.24  1454.62
                             1490.84  1505.68  1544.03  1569.58  1574.31
                             1603.57  1630.51  1634.83  1671.24  1683.59
                             1695.27  1730.42  1739.00  1762.76  1803.58
                             1830.83  1850.19  1901.79  1910.79  1921.20
                             1925.76  1959.38  1968.80  1977.37  1988.32
                             2015.26  2026.54  2037.37  2095.72  2104.85
                             2118.11  2120.03  2123.55  2130.79  2139.50
                             2143.92  2158.63  2166.05  2168.67  2184.68
                             2327.19  2359.74  2430.43  2543.71  4342.73
                             4350.53  4371.37  4377.73  4404.75  4410.71
                             4431.60  4433.97  4447.18  4468.63  4474.01
                             4487.44  4495.16  4501.86  4517.96  4521.12
                             4538.50  4568.68  4588.68  4600.96  4648.77
                             4665.11

 Zero-point correction=                           0.359845 (Hartree/Particle)
 Thermal correction to Energy=                    0.387227
 Thermal correction to Enthalpy=                  0.388171
 Thermal correction to Gibbs Free Energy=         0.297374
 Sum of electronic and zero-point Energies=          -3531.068872
 Sum of electronic and thermal Energies=             -3531.041490
 Sum of electronic and thermal Enthalpies=           -3531.040545
 Sum of electronic and thermal Free Energies=        -3531.131343

                     E (Thermal)             CV                S
                      KCal/Mol        Cal/Mol-Kelvin    Cal/Mol-Kelvin
 Total                  242.989             97.555            191.099
 Electronic               0.000              0.000              3.561
 Translational            0.889              2.981             44.100
 Rotational               0.889              2.981             35.534
 Vibrational            241.211             91.593            107.904
 Vibration     1          0.593              1.986              6.769
 Vibration     2          0.593              1.986              6.670
 Vibration     3          0.594              1.984              5.798
 Vibration     4          0.595              1.978              4.833
 Vibration     5          0.596              1.977              4.750
 Vibration     6          0.596              1.976              4.626
 Vibration     7          0.597              1.971              4.326
 Vibration     8          0.600              1.963              3.892
 Vibration     9          0.601              1.959              3.746
 Vibration    10          0.602              1.956              3.652
 Vibration    11          0.604              1.950              3.475
 Vibration    12          0.605              1.946              3.376
 Vibration    13          0.608              1.937              3.188
 Vibration    14          0.610              1.930              3.048
 Vibration    15          0.613              1.919              2.889
 Vibration    16          0.616              1.909              2.750
 Vibration    17          0.619              1.899              2.633
 Vibration    18          0.625              1.882              2.456
 Vibration    19          0.630              1.865              2.316
 Vibration    20          0.635              1.848              2.188
 Vibration    21          0.640              1.834              2.095
 Vibration    22          0.644              1.819              2.008
 Vibration    23          0.650              1.800              1.905
 Vibration    24          0.667              1.748              1.672
 Vibration    25          0.675              1.726              1.587
 Vibration    26          0.684              1.700              1.498
 Vibration    27          0.705              1.639              1.320
 Vibration    28          0.719              1.599              1.220
 Vibration    29          0.729              1.570              1.156
 Vibration    30          0.744              1.529              1.071
 Vibration    31          0.748              1.517              1.047
 Vibration    32          0.763              1.477              0.975
 Vibration    33          0.765              1.471              0.965
 Vibration    34          0.768              1.465              0.955
 Vibration    35          0.775              1.445              0.921
 Vibration    36          0.785              1.421              0.884
 Vibration    37          0.813              1.351              0.782
 Vibration    38          0.833              1.304              0.721
 Vibration    39          0.863              1.234              0.640
 Vibration    40          0.876              1.204              0.608
 Vibration    41          0.909              1.133              0.538
 Vibration    42          0.933              1.083              0.493

                           ! Non-Optimized Parameters !
 Normal termination of Gaussian 16 at Sun Jun 20 19:05:31 2021.

 ----------------------------------------------------------------------
 #p ub3lyp jul-cc-pvdz pop=cm5 scrf=(pcm,solvent=dichloroethane) guess=
 read geom=allcheck
 ----------------------------------------------------------------------

 Structure from the checkpoint file:  "checkpoint.chk"
 -----
 title
 -----
 Charge =  0 Multiplicity = 6

 SCF Done:  E(UB3LYP) =  -3531.44585150     A.U. after   18 cycles
 Normal termination of Gaussian 16 at Sun Jun 20 19:25:57 2021.
 Gaussian 16:  ES64L-G16RevA.03 25-Dec-2016

 ----------------------------------------------------------------------
 #p ub3lyp jul-cc-pvdz pop=cm5 scrf=(pcm,solvent=water) guess=read geom
 =allcheck
 ----------------------------------------------------------------------

 Structure from the checkpoint file:  "checkpoint.chk"
 -----
 title
 -----
 Charge =  0 Multiplicity = 6

                         Standard orientation:
 ---------------------------------------------------------------------
 Center     Atomic      Atomic             Coordinates (Angstroms)
 Number     Number       Type             X           Y           Z
 ---------------------------------------------------------------------
      1          6           0        3.153761    0.237718    0.675923
      2          6           0        1.869813   -0.342243    0.765306
      3          6           0        1.501507   -0.995593    1.962399
      4          6           0        2.394028   -1.081497    3.026792
      5          6           0        3.669288   -0.514833    2.919083
      6          6           0        4.042597    0.149014    1.744829
      7          6           0        0.873365   -0.253720   -0.321331
      8          6           0        1.038903    0.680911   -1.534693
      9          6           0        2.113536    0.264660   -2.557287
     10          6           0        1.888359   -1.190293   -3.001665
     11          6           0        1.745008   -2.075106   -1.795369
     12          6           0        0.605985   -2.655118   -1.351587
     13          6           0       -0.695991   -2.638270   -2.105263
     14          8           0       -0.264345   -0.777463   -0.136292
     15         26           0       -2.087781   -0.269477    0.430500
     16         17           0       -3.067203    0.652986   -1.315107
     17          6           0        0.627696   -3.562696   -0.155323
     18         17           0       -1.827298    1.082806    2.153312
     19         17           0       -3.011964   -2.178686    1.042023
     20          1           0        0.503170   -1.415182    2.056040
     21          1           0        2.091241   -1.581675    3.947049
     22          1           0        4.368297   -0.580069    3.754546
     23          1           0        5.028947    0.606727    1.663919
     24          1           0        3.457643    0.780961   -0.213458
     25          1           0        0.055160    0.653935   -2.020526
     26          6           0        1.244385    2.134989   -1.070394
     27          1           0        2.057493    0.952583   -3.412356
     28          1           0        3.116616    0.385959   -2.133844
     29          1           0        1.001422   -1.249263   -3.645304
     30          1           0        2.743826   -1.514013   -3.614022
     31          1           0        2.660643   -2.253153   -1.225600
     32          1           0        1.604311   -3.574382    0.343471
     33          1           0       -0.153343   -3.286224    0.566664
     34          1           0        0.395009   -4.590822   -0.478003
     35          1           0       -0.736028   -3.538437   -2.741744
     36          1           0       -1.552502   -2.695757   -1.423632
     37          1           0       -0.825883   -1.767288   -2.754533
     38          8           0        0.095472    2.649211   -0.625233
     39          8           0        2.298633    2.732188   -1.125892
     40          6           0        0.130183    4.030047   -0.149026
     41          6           0       -1.297758    4.466237    0.101656
     42          1           0        0.741396    4.051080    0.763600
     43          1           0        0.631262    4.638762   -0.912574
     44          1           0       -1.295689    5.502294    0.470295
     45          1           0       -1.888415    4.427062   -0.823557
     46          1           0       -1.778442    3.825775    0.851724
 ---------------------------------------------------------------------

 SCF Done:  E(UB3LYP) =  -3531.44909352     A.U. after   16 cycles

 The electronic state is 6-A.
 Alpha  occ. eigenvalues -- -256.21293-101.52643-101.52633-101.52604 -30.20657
 Alpha  occ. eigenvalues --  -26.06073 -26.05842 -26.05764 -19.20996 -19.18957
 Alpha  occ. eigenvalues --  -19.16059 -10.34022 -10.33651 -10.25125 -10.23331
 Alpha  occ. eigenvalues --  -10.22832 -10.21953 -10.21951 -10.21844 -10.21784
 Alpha  occ. eigenvalues --  -10.21197 -10.21167 -10.20533 -10.19522 -10.18853
 Alpha  occ. eigenvalues --  -10.18631 -10.18606 -10.18557  -9.44367  -9.44347
 Alpha  occ. eigenvalues --   -9.44321  -7.20234  -7.20218  -7.20188  -7.19917
 Alpha  occ. eigenvalues --   -7.19907  -7.19903  -7.19884  -7.19872  -7.19864
 Alpha  occ. eigenvalues --   -3.68320  -2.45997  -2.45577  -2.45417  -1.12935
 Alpha  occ. eigenvalues --   -1.09714  -1.04443  -0.88611  -0.85183  -0.82678
 Alpha  occ. eigenvalues --   -0.80664  -0.79907  -0.79883  -0.78976  -0.78632
 Alpha  occ. eigenvalues --   -0.77269  -0.74972  -0.70383  -0.69776  -0.67210
 Alpha  occ. eigenvalues --   -0.64794  -0.62932  -0.61699  -0.59936  -0.57763
 Alpha  occ. eigenvalues --   -0.56256  -0.53715  -0.53038  -0.51945  -0.50717
 Alpha  occ. eigenvalues --   -0.50369  -0.49332  -0.49164  -0.48528  -0.48431
 Alpha  occ. eigenvalues --   -0.48078  -0.47365  -0.47134  -0.47000  -0.45776
 Alpha  occ. eigenvalues --   -0.45552  -0.45173  -0.44216  -0.43128  -0.42526
 Alpha  occ. eigenvalues --   -0.42313  -0.40865  -0.40577  -0.40043  -0.39564
 Alpha  occ. eigenvalues --   -0.39057  -0.38322  -0.37854  -0.37831  -0.37614
 Alpha  occ. eigenvalues --   -0.37258  -0.37127  -0.36601  -0.36213  -0.35092
 Alpha  occ. eigenvalues --   -0.34884  -0.34300  -0.33633  -0.32500  -0.32245
 Alpha  occ. eigenvalues --   -0.31477  -0.31427  -0.31222  -0.31065  -0.30310
 Alpha  occ. eigenvalues --   -0.30003  -0.29719  -0.28696  -0.27909  -0.24600
 Alpha virt. eigenvalues --   -0.11423  -0.03533  -0.02234  -0.01690  -0.01090
 Alpha virt. eigenvalues --   -0.00139   0.00014   0.00088   0.00941   0.01550
 Alpha virt. eigenvalues --    0.01691   0.01961   0.02422   0.02809   0.03190

  Beta  occ. eigenvalues -- -256.21108-101.52456-101.52440-101.52415 -30.11733
  Beta  occ. eigenvalues --  -25.98517 -25.98448 -25.98400 -19.20995 -19.18575
  Beta  occ. eigenvalues --  -19.16057 -10.34020 -10.33629 -10.25125 -10.23320
  Beta  occ. eigenvalues --  -10.22816 -10.21951 -10.21950 -10.21844 -10.21757
  Beta  occ. eigenvalues --  -10.21195 -10.21167 -10.20529 -10.19523 -10.18807
  Beta  occ. eigenvalues --  -10.18630 -10.18607 -10.18557  -9.44183  -9.44158
  Beta  occ. eigenvalues --   -9.44136  -7.19927  -7.19905  -7.19883  -7.19664
  Beta  occ. eigenvalues --   -7.19656  -7.19639  -7.19624  -7.19617  -7.19605
  Beta  occ. eigenvalues --   -3.47504  -2.23791  -2.23723  -2.23661  -1.12930
  Beta  occ. eigenvalues --   -1.08974  -1.04439  -0.88579  -0.85115  -0.82610
  Beta  occ. eigenvalues --   -0.79440  -0.78937  -0.78665  -0.78569  -0.78524
  Beta  occ. eigenvalues --   -0.77265  -0.74937  -0.70355  -0.69661  -0.67100
  Beta  occ. eigenvalues --   -0.64749  -0.62904  -0.61591  -0.59539  -0.57582
  Beta  occ. eigenvalues --   -0.55693  -0.53313  -0.52763  -0.51872  -0.50529
  Beta  occ. eigenvalues --   -0.49792  -0.49040  -0.48097  -0.47272  -0.46942
  Beta  occ. eigenvalues --   -0.45588  -0.45297  -0.44218  -0.43150  -0.42513
  Beta  occ. eigenvalues --   -0.42274  -0.40880  -0.40549  -0.40051  -0.39530
  Beta  occ. eigenvalues --   -0.38910  -0.38420  -0.38238  -0.37824  -0.37736
  Beta  occ. eigenvalues --   -0.37245  -0.37106  -0.36596  -0.36331  -0.36262
  Beta  occ. eigenvalues --   -0.36184  -0.35069  -0.33818  -0.33584  -0.33320
  Beta  occ. eigenvalues --   -0.32775  -0.32719  -0.32273  -0.31420  -0.30752
  Beta  occ. eigenvalues --   -0.29886  -0.29706  -0.28901  -0.27908  -0.24460
  Beta virt. eigenvalues --   -0.15391  -0.14860  -0.14167  -0.13640  -0.13579
  Beta virt. eigenvalues --   -0.10417  -0.03515  -0.02204  -0.01583  -0.01002
  Beta virt. eigenvalues --   -0.00100   0.00053   0.00128   0.01106   0.01571

 Mulliken charges and spin densities:
               1          2
     1  C    0.087468   0.000895
     2  C    3.044925  -0.008986
     3  C   -0.643898  -0.006419
     4  C    0.106405   0.002561
     5  C    0.298643   0.003053
     6  C   -0.143829   0.001087
     7  C   -2.200584   0.002921
     8  C    0.387745   0.014320
     9  C    0.567874   0.004969
    10  C    0.608550  -0.002859
    11  C    0.200157   0.030750
    12  C   -0.044307   0.016243
    13  C    0.192696  -0.000961
    14  O   -0.348935   0.109080
    15  Fe   0.697873   4.061142
    16  Cl  -0.514931   0.251087
    17  C    0.272603  -0.001106
    18  Cl  -0.483371   0.257537
    19  Cl  -0.482161   0.256383
    20  H   -0.255794  -0.000421
    21  H   -0.157548   0.000014
    22  H   -0.146700  -0.000032
    23  H   -0.153036   0.000121
    24  H   -0.196885  -0.000096
    25  H   -0.171818  -0.001123
    26  C    0.790001   0.002611
    27  H   -0.127524   0.000207
    28  H   -0.023663  -0.000011
    29  H   -0.085512   0.000039
    30  H   -0.119846   0.001506
    31  H   -0.260285  -0.001231
    32  H   -0.018666   0.000055
    33  H    0.055298   0.000660
    34  H   -0.029762   0.001355
    35  H   -0.012699   0.001340
    36  H    0.044889   0.001600
    37  H    0.038740  -0.000171
    38  O   -0.658671   0.002010
    39  O   -0.564479   0.001028
    40  C    0.429945   0.000712
    41  C    0.041266  -0.001506
    42  H   -0.031757   0.000026
    43  H   -0.036176   0.000021
    44  H   -0.008116   0.000066
    45  H    0.026998   0.000047
    46  H    0.028879  -0.000523
 Sum of Mulliken charges =  -0.00000   5.00000

 Dipole moment (field-independent basis, Debye):
    X=             10.2210    Y=             -1.1162    Z=             -1.6974  Tot=             10.4209
 Quadrupole moment (field-independent basis, Debye-Ang):
   XX=           -187.9251   YY=           -168.6238   ZZ=           -167.2890
   XY=            -10.8138   XZ=             10.9275   YZ=              2.3956

 Normal termination of Gaussian 16 at Sun Jun 20 19:43:54 2021.
