 Gaussian 16, Revision A.03,

 -----------------------------------------------------------
 #p opt=modredundant freq=noraman ub3lyp jul-cc-pvdz pop=cm5
 -----------------------------------------------------------

 -----
 title
 -----
 Symbolic Z-matrix:
 Charge =  0 Multiplicity = 6

 SCF Done:  E(UB3LYP) =  -3531.42770092     A.U. after   27 cycles
 SCF Done:  E(UB3LYP) =  -3531.42805761     A.U. after   17 cycles
 SCF Done:  E(UB3LYP) =  -3531.41718345     A.U. after   23 cycles
 SCF Done:  E(UB3LYP) =  -3531.42479237     A.U. after   18 cycles
 SCF Done:  E(UB3LYP) =  -3531.42816901     A.U. after   13 cycles
 SCF Done:  E(UB3LYP) =  -3531.42821920     A.U. after   17 cycles
 SCF Done:  E(UB3LYP) =  -3531.42833430     A.U. after   15 cycles
 SCF Done:  E(UB3LYP) =  -3531.42831666     A.U. after   15 cycles
 SCF Done:  E(UB3LYP) =  -3531.42834368     A.U. after   16 cycles
 SCF Done:  E(UB3LYP) =  -3531.42836942     A.U. after   15 cycles
 SCF Done:  E(UB3LYP) =  -3531.42837913     A.U. after   13 cycles
 SCF Done:  E(UB3LYP) =  -3531.42837987     A.U. after   12 cycles
 SCF Done:  E(UB3LYP) =  -3531.42838101     A.U. after   12 cycles
 SCF Done:  E(UB3LYP) =  -3531.42838180     A.U. after   12 cycles
 SCF Done:  E(UB3LYP) =  -3531.42838258     A.U. after   12 cycles
 SCF Done:  E(UB3LYP) =  -3531.42838296     A.U. after   12 cycles
 SCF Done:  E(UB3LYP) =  -3531.42838306     A.U. after    9 cycles
 Optimization completed.
    -- Stationary point found.
 Normal termination of Gaussian 16 at Sun Jun 20 04:53:44 2021.

 ----------------------------------------------------------------------
 #P Geom=AllCheck Guess=TCheck SCRF=Check GenChk UB3LYP/Jul-CC-pVDZ Fre
 q
 ----------------------------------------------------------------------

 Structure from the checkpoint file:  "checkpoint.chk"
 -----
 title
 -----
 Charge =  0 Multiplicity = 6

 SCF Done:  E(UB3LYP) =  -3531.42838306     A.U. after    3 cycles

  Exact polarizability: 316.574  15.779 308.289  10.392   8.018 293.450
 Approx polarizability: 488.711  36.583 466.759  -0.451  12.184 491.466

 ******    1 imaginary frequencies (negative Signs) ******

                      1                      2                      3
                      A                      A                      A
 Frequencies --   -101.8893                 2.6291                19.7318
 Red. masses --      4.7452                12.5187                 3.7282
 Frc consts  --      0.0290                 0.0001                 0.0009
 IR Inten    --    187.5524                 0.0976                 2.1498

                      4                      5                      6
                      A                      A                      A
 Frequencies --     34.9793                36.3937                46.3393
 Red. masses --      4.5359                 5.9576                 5.9982
 Frc consts  --      0.0033                 0.0046                 0.0076
 IR Inten    --      5.0621                 0.3162                 3.4534

                      7                      8                      9
                      A                      A                      A
 Frequencies --     61.8436                69.1876                72.6431
 Red. masses --      4.1694                 3.7334                 4.6161
 Frc consts  --      0.0094                 0.0105                 0.0144
 IR Inten    --      5.4504                 2.3580                 0.7351

                     10                     11                     12
                      A                      A                      A
 Frequencies --     83.1476                89.9590                94.8697
 Red. masses --      8.1617                 8.0331                 6.1344
 Frc consts  --      0.0332                 0.0383                 0.0325
 IR Inten    --      1.0836                 0.4697                 2.7389

                     13                     14                     15
                      A                      A                      A
 Frequencies --    103.6250               107.3618               116.3192
 Red. masses --      3.0621                 5.4040                10.0589
 Frc consts  --      0.0194                 0.0367                 0.0802
 IR Inten    --      1.2432                18.6728                 7.2946

                     16                     17                     18
                      A                      A                      A
 Frequencies --    122.9197               128.5349               134.9110
 Red. masses --      4.9958                 2.2200                 2.8642
 Frc consts  --      0.0445                 0.0216                 0.0307
 IR Inten    --      1.0985                 9.8483                 3.0951

                     19                     20                     21
                      A                      A                      A
 Frequencies --    148.4906               155.9948               174.1878
 Red. masses --      4.2239                 1.3679                 2.1907
 Frc consts  --      0.0549                 0.0196                 0.0392
 IR Inten    --      4.4210                10.2712                13.9810

                     22                     23                     24
                      A                      A                      A
 Frequencies --    194.4370               206.1775               218.7062
 Red. masses --      2.6331                 3.4334                 3.1297
 Frc consts  --      0.0587                 0.0860                 0.0882
 IR Inten    --      6.8329                19.3508                17.1790

                     25                     26                     27
                      A                      A                      A
 Frequencies --    239.7840               256.8180               282.3157
 Red. masses --      3.5074                 1.7297                 2.9899
 Frc consts  --      0.1188                 0.0672                 0.1404
 IR Inten    --      4.4094                 3.1041                 1.5475

                     28                     29                     30
                      A                      A                      A
 Frequencies --    299.2546               313.4734               344.2517
 Red. masses --      3.1271                 6.2829                23.2359
 Frc consts  --      0.1650                 0.3638                 1.6224
 IR Inten    --      6.1105                 4.5140                53.1244

                     31                     32                     33
                      A                      A                      A
 Frequencies --    355.3300               374.7134               390.8561
 Red. masses --      4.1496                 6.1108                24.4755
 Frc consts  --      0.3087                 0.5055                 2.2030
 IR Inten    --      2.8588                15.4217                84.3729

                     34                     35                     36
                      A                      A                      A
 Frequencies --    395.5814               398.7025               414.7632
 Red. masses --     12.7632                 3.4478                 2.9520
 Frc consts  --      1.1767                 0.3229                 0.2992
 IR Inten    --     71.6262                11.5392                 0.6942

                     37                     38                     39
                      A                      A                      A
 Frequencies --    433.7906               453.5818               482.1520
 Red. masses --      3.9759                 4.1979                 2.2090
 Frc consts  --      0.4408                 0.5089                 0.3026
 IR Inten    --     33.3424                 6.8008                 2.5459

                     40                     41                     42
                      A                      A                      A
 Frequencies --    503.9330               527.6737               535.5376
 Red. masses --      2.7741                 3.7107                 3.3492
 Frc consts  --      0.4151                 0.6088                 0.5659
 IR Inten    --      3.4644                17.8986                12.4763

                     43                     44                     45
                      A                      A                      A
 Frequencies --    596.9301               625.8795               643.9296
 Red. masses --      5.3357                 6.3025                 4.0017
 Frc consts  --      1.1202                 1.4546                 0.9776
 IR Inten    --     51.0631                 4.4452               131.2437

                     46                     47                     48
                      A                      A                      A
 Frequencies --    695.5129               702.3138               755.4633
 Red. masses --      6.1511                 1.6394                 3.9329
 Frc consts  --      1.7531                 0.4764                 1.3225
 IR Inten    --     19.6395                64.2382                 7.9234

                     49                     50                     51
                      A                      A                      A
 Frequencies --    769.8674               801.4879               813.3706
 Red. masses --      2.2854                 1.4691                 2.4060
 Frc consts  --      0.7981                 0.5560                 0.9378
 IR Inten    --      6.9876                11.9571                23.3109

                     52                     53                     54
                      A                      A                      A
 Frequencies --    830.3664               849.8348               864.4823
 Red. masses --      2.8967                 1.2563                 1.8650
 Frc consts  --      1.1768                 0.5346                 0.8212
 IR Inten    --      2.0145                 2.2022                12.5790

                     55                     56                     57
                      A                      A                      A
 Frequencies --    873.2814               910.9448               921.6930
 Red. masses --      1.8125                 1.5773                 2.2712
 Frc consts  --      0.8144                 0.7712                 1.1368
 IR Inten    --     11.7909                 1.1148                15.9877

                     58                     59                     60
                      A                      A                      A
 Frequencies --    941.2821               966.7733               971.9372
 Red. masses --      1.4127                 2.6358                 1.4557
 Frc consts  --      0.7374                 1.4515                 0.8102
 IR Inten    --      1.9168                18.3158                 3.1453

                     61                     62                     63
                      A                      A                      A
 Frequencies --    986.7707               989.9465               999.9256
 Red. masses --      1.3979                 1.7867                 1.8388
 Frc consts  --      0.8020                 1.0316                 1.0832
 IR Inten    --     49.0256                40.3719                 8.3563

                     64                     65                     66
                      A                      A                      A
 Frequencies --   1002.1198              1008.1347              1013.5258
 Red. masses --      1.7387                 2.6239                 1.9480
 Frc consts  --      1.0288                 1.5712                 1.1790
 IR Inten    --      0.3388                 1.7310                20.5969

                     67                     68                     69
                      A                      A                      A
 Frequencies --   1040.1623              1047.6502              1068.4147
 Red. masses --      2.8571                 2.2705                 2.1373
 Frc consts  --      1.8213                 1.4683                 1.4375
 IR Inten    --     42.2327                 4.9566                 1.6719

                     70                     71                     72
                      A                      A                      A
 Frequencies --   1079.0305              1099.3436              1109.2817
 Red. masses --      1.8952                 1.7394                 1.5771
 Frc consts  --      1.3001                 1.2385                 1.1434
 IR Inten    --      1.2321                 9.6433                10.4041

                     73                     74                     75
                      A                      A                      A
 Frequencies --   1133.3008              1137.9092              1164.0019
 Red. masses --      2.1884                 2.4037                 1.6909
 Frc consts  --      1.6561                 1.8338                 1.3498
 IR Inten    --     11.0701                 6.1214                26.6955

                     76                     77                     78
                      A                      A                      A
 Frequencies --   1168.7221              1175.3117              1199.8470
 Red. masses --      1.5733                 1.0881                 1.2744
 Frc consts  --      1.2661                 0.8855                 1.0810
 IR Inten    --      0.6509                 0.4719                41.5473

                     79                     80                     81
                      A                      A                      A
 Frequencies --   1205.8809              1222.3556              1233.3438
 Red. masses --      1.4557                 3.3209                 2.1145
 Frc consts  --      1.2472                 2.9235                 1.8951
 IR Inten    --     41.6519                66.1446               170.4916

                     82                     83                     84
                      A                      A                      A
 Frequencies --   1262.1191              1283.3189              1308.9346
 Red. masses --      1.8940                 1.1043                 1.6557
 Frc consts  --      1.7776                 1.0716                 1.6714
 IR Inten    --     23.2937                 2.5468               200.7418

                     85                     86                     87
                      A                      A                      A
 Frequencies --   1322.8348              1329.0837              1334.0766
 Red. masses --      1.4935                 1.4907                 1.7126
 Frc consts  --      1.5398                 1.5515                 1.7959
 IR Inten    --     48.8325                34.6906                18.2859

                     88                     89                     90
                      A                      A                      A
 Frequencies --   1359.7221              1363.6518              1366.2959
 Red. masses --      3.0980                 1.2971                 1.4350
 Frc consts  --      3.3747                 1.4211                 1.5783
 IR Inten    --      8.5909                71.2083                16.0091

                     91                     92                     93
                      A                      A                      A
 Frequencies --   1384.7900              1387.0233              1396.5955
 Red. masses --      1.4257                 1.2601                 1.8511
 Frc consts  --      1.6108                 1.4283                 2.1272
 IR Inten    --     44.6928                15.9217                43.4156

                     94                     95                     96
                      A                      A                      A
 Frequencies --   1416.2791              1419.3645              1442.9330
 Red. masses --      1.6298                 1.9751                 1.0598
 Frc consts  --      1.9261                 2.3444                 1.3000
 IR Inten    --    177.3288               234.1702                 3.4011

                     97                     98                     99
                      A                      A                      A
 Frequencies --   1463.2688              1467.9897              1473.3102
 Red. masses --      1.0742                 1.1989                 1.0390
 Frc consts  --      1.3551                 1.5222                 1.3288
 IR Inten    --      8.5615                18.6051                 6.6800

                    100                    101                    102
                      A                      A                      A
 Frequencies --   1475.9394              1477.5372              1484.6311
 Red. masses --      1.9438                 1.0981                 1.0545
 Frc consts  --      2.4948                 1.4124                 1.3694
 IR Inten    --     70.1363                12.7280                 7.9330

                    103                    104                    105
                      A                      A                      A
 Frequencies --   1494.3636              1500.2476              1505.9432
 Red. masses --      1.1385                 1.1407                 1.0867
 Frc consts  --      1.4979                 1.5126                 1.4521
 IR Inten    --     16.2987                 6.2098                 8.6811

                    106                    107                    108
                      A                      A                      A
 Frequencies --   1515.9920              1618.6414              1627.7946
 Red. masses --      2.0675                 5.4004                 5.1506
 Frc consts  --      2.7995                 8.3364                 8.0409
 IR Inten    --      2.8957                42.0189               115.4215

                    109                    110                    111
                      A                      A                      A
 Frequencies --   1639.7143              1765.8149              2984.1943
 Red. masses --      5.6502                11.8646                 1.0538
 Frc consts  --      8.9506                21.7969                 5.5292
 IR Inten    --      6.9157               234.8495                40.3403

                    112                    113                    114
                      A                      A                      A
 Frequencies --   3017.6479              3039.0712              3042.7705
 Red. masses --      1.0402                 1.0642                 1.0360
 Frc consts  --      5.5809                 5.7911                 5.6514
 IR Inten    --      3.2939                20.8563                13.7149

                    115                    116                    117
                      A                      A                      A
 Frequencies --   3058.3557              3061.7501              3070.5918
 Red. masses --      1.0587                 1.0658                 1.0963
 Frc consts  --      5.8344                 5.8865                 6.0900
 IR Inten    --     17.0155                20.9549                 2.2766

                    118                    119                    120
                      A                      A                      A
 Frequencies --   3071.3480              3087.4450              3096.2388
 Red. masses --      1.0805                 1.0801                 1.0984
 Frc consts  --      6.0051                 6.0659                 6.2040
 IR Inten    --      7.2250                11.9333                14.4458

                    121                    122                    123
                      A                      A                      A
 Frequencies --   3105.6025              3114.3267              3119.2171
 Red. masses --      1.1074                 1.1039                 1.1008
 Frc consts  --      6.2926                 6.3080                 6.3104
 IR Inten    --      6.5359                13.1998                21.8972

                    124                    125                    126
                      A                      A                      A
 Frequencies --   3137.1146              3143.8058              3149.2644
 Red. masses --      1.1048                 1.0999                 1.1009
 Frc consts  --      6.4059                 6.4052                 6.4328
 IR Inten    --     19.5318                 7.5557                 6.7845

                    127                    128                    129
                      A                      A                      A
 Frequencies --   3161.9780              3172.5011              3183.9805
 Red. masses --      1.0868                 1.0857                 1.0903
 Frc consts  --      6.4019                 6.4381                 6.5125
 IR Inten    --     11.2393                 0.1868                 6.8290

                    130                    131                    132
                      A                      A                      A
 Frequencies --   3194.3038              3207.3758              3220.3567
 Red. masses --      1.0956                 1.0942                 1.0928
 Frc consts  --      6.5865                 6.6320                 6.6771
 IR Inten    --     13.2675                 2.3579                 2.3856

 - Thermochemistry -
 -------------------
 Temperature   298.150 Kelvin.  Pressure   1.00000 Atm.
 Atom     1 has atomic number  6 and mass  12.00000

 Molecular mass:   434.99839 amu.
 Principal axes and moments of inertia in atomic units:
                           1         2         3
     Eigenvalues --  9204.99833********************
           X            0.99935   0.03062   0.01882
           Y           -0.03094   0.99938   0.01686
           Z           -0.01829  -0.01743   0.99968
 This molecule is an asymmetric top.
 Rotational symmetry number  1.
 Warning -- assumption of classical behavior for rotation
           may cause significant error
 Rotational temperatures (Kelvin)      0.00941     0.00776     0.00652
 Rotational constants (GHZ):           0.19606     0.16165     0.13585
    1 imaginary frequencies ignored.
 Zero-point vibrational energy     941303.7 (Joules/Mol)
                                  224.97697 (Kcal/Mol)
 Warning -- explicit consideration of  42 degrees of freedom as
           vibrations may cause significant error
 Vibrational temperatures:      3.78    28.39    50.33    52.36    66.67
          (Kelvin)             88.98    99.55   104.52   119.63   129.43
                              136.50   149.09   154.47   167.36   176.85
                              184.93   194.11   213.64   224.44   250.62
                              279.75   296.64   314.67   345.00   369.50
                              406.19   430.56   451.02   495.30   511.24
                              539.13   562.35   569.15   573.64   596.75
                              624.13   652.60   693.71   725.05   759.20
                              770.52   858.85   900.50   926.47  1000.69
                             1010.47  1086.94  1107.67  1153.16  1170.26
                             1194.71  1222.72  1243.80  1256.46  1310.65
                             1326.11  1354.30  1390.97  1398.40  1419.74
                             1424.31  1438.67  1441.83  1450.48  1458.24
                             1496.56  1507.33  1537.21  1552.48  1581.71
                             1596.01  1630.57  1637.20  1674.74  1681.53
                             1691.01  1726.31  1734.99  1758.70  1774.51
                             1815.91  1846.41  1883.27  1903.26  1912.26
                             1919.44  1956.34  1961.99  1965.80  1992.40
                             1995.62  2009.39  2037.71  2042.15  2076.06
                             2105.32  2112.11  2119.76  2123.55  2125.85
                             2136.05  2150.06  2158.52  2166.72  2181.17
                             2328.86  2342.03  2359.18  2540.61  4293.59
                             4341.72  4372.55  4377.87  4400.29  4405.18
                             4417.90  4418.98  4442.14  4454.80  4468.27
                             4480.82  4487.86  4513.61  4523.24  4531.09
                             4549.38  4564.52  4581.04  4595.89  4614.70
                             4633.37

 Zero-point correction=                           0.358524 (Hartree/Particle)
 Thermal correction to Energy=                    0.386338
 Thermal correction to Enthalpy=                  0.387282
 Thermal correction to Gibbs Free Energy=         0.293261
 Sum of electronic and zero-point Energies=          -3531.069859
 Sum of electronic and thermal Energies=             -3531.042045
 Sum of electronic and thermal Enthalpies=           -3531.041101
 Sum of electronic and thermal Free Energies=        -3531.135122

                     E (Thermal)             CV                S
                      KCal/Mol        Cal/Mol-Kelvin    Cal/Mol-Kelvin
 Total                  242.431             97.849            197.885
 Electronic               0.000              0.000              3.561
 Translational            0.889              2.981             44.100
 Rotational               0.889              2.981             35.566
 Vibrational            240.653             91.887            114.658
 Vibration     1          0.592              1.987             10.666
 Vibration     2          0.593              1.986              6.661
 Vibration     3          0.594              1.982              5.525
 Vibration     4          0.594              1.982              5.446
 Vibration     5          0.595              1.979              4.968
 Vibration     6          0.597              1.973              4.397
 Vibration     7          0.598              1.969              4.176
 Vibration     8          0.599              1.967              4.080
 Vibration     9          0.600              1.961              3.815
 Vibration    10          0.602              1.956              3.661
 Vibration    11          0.603              1.953              3.557
 Vibration    12          0.605              1.946              3.385
 Vibration    13          0.606              1.943              3.316
 Vibration    14          0.608              1.936              3.161
 Vibration    15          0.610              1.930              3.054
 Vibration    16          0.611              1.925              2.968
 Vibration    17          0.613              1.918              2.875
 Vibration    18          0.618              1.904              2.691
 Vibration    19          0.620              1.896              2.598
 Vibration    20          0.627              1.874              2.390
 Vibration    21          0.635              1.848              2.185
 Vibration    22          0.641              1.831              2.077
 Vibration    23          0.646              1.813              1.970
 Vibration    24          0.657              1.780              1.804
 Vibration    25          0.666              1.751              1.683
 Vibration    26          0.681              1.706              1.520
 Vibration    27          0.692              1.675              1.421
 Vibration    28          0.701              1.648              1.344
 Vibration    29          0.723              1.587              1.192
 Vibration    30          0.731              1.564              1.142
 Vibration    31          0.746              1.524              1.060
 Vibration    32          0.759              1.490              0.997
 Vibration    33          0.762              1.480              0.979
 Vibration    34          0.765              1.473              0.967
 Vibration    35          0.778              1.438              0.910
 Vibration    36          0.795              1.397              0.846
 Vibration    37          0.812              1.353              0.785
 Vibration    38          0.838              1.290              0.704
 Vibration    39          0.859              1.241              0.648
 Vibration    40          0.883              1.189              0.592
 Vibration    41          0.891              1.171              0.575
 Vibration    42          0.955              1.038              0.455

                           ! Non-Optimized Parameters !
 Normal termination of Gaussian 16 at Sun Jun 20 09:34:28 2021.

 ----------------------------------------------------------------------
 #p ub3lyp jul-cc-pvdz pop=cm5 scrf=(pcm,solvent=dichloroethane) guess=
 read geom=allcheck
 ----------------------------------------------------------------------

 Structure from the checkpoint file:  "checkpoint.chk"
 -----
 title
 -----
 Charge =  0 Multiplicity = 6

 SCF Done:  E(UB3LYP) =  -3531.44886089     A.U. after   19 cycles
 Normal termination of Gaussian 16 at Sun Jun 20 09:59:41 2021.
 Gaussian 16:  ES64L-G16RevA.03 25-Dec-2016

 ----------------------------------------------------------------------
 #p ub3lyp jul-cc-pvdz pop=cm5 scrf=(pcm,solvent=water) guess=read geom
 =allcheck
 ----------------------------------------------------------------------

 Structure from the checkpoint file:  "checkpoint.chk"
 -----
 title
 -----
 Charge =  0 Multiplicity = 6

                         Standard orientation:
 ---------------------------------------------------------------------
 Center     Atomic      Atomic             Coordinates (Angstroms)
 Number     Number       Type             X           Y           Z
 ---------------------------------------------------------------------
      1          6           0        3.106114   -0.512043    0.311812
      2          6           0        1.744319   -0.562080    0.665680
      3          6           0        1.395102   -0.520880    2.026444
      4          6           0        2.383491   -0.442629    3.009756
      5          6           0        3.733198   -0.404175    2.649402
      6          6           0        4.090648   -0.434077    1.295704
      7          6           0        0.647432   -0.602449   -0.364110
      8          6           0        0.821646    0.171134   -1.717447
      9          6           0        1.340570   -0.696140   -2.866399
     10          6           0        0.704648   -2.071159   -2.670366
     11          6           0        1.019816   -2.470038   -1.249233
     12          6           0        0.249710   -3.255825   -0.423660
     13          6           0       -1.193583   -3.513832   -0.661201
     14          8           0       -0.554609   -0.625503    0.100242
     15         26           0       -2.222202    0.352515    0.339863
     16         17           0       -2.765039    1.269731   -1.600638
     17          6           0        0.808025   -3.779144    0.860368
     18         17           0       -1.866208    1.815004    1.952280
     19         17           0       -3.688627   -1.185249    0.963997
     20          1           0        0.344071   -0.519114    2.307426
     21          1           0        2.094308   -0.401075    4.060581
     22          1           0        4.505275   -0.341309    3.417771
     23          1           0        5.140842   -0.390207    1.004736
     24          1           0        3.408628   -0.519549   -0.733900
     25          1           0       -0.203851    0.484462   -1.952922
     26          6           0        1.629371    1.459461   -1.541750
     27          1           0        1.079036   -0.243637   -3.831315
     28          1           0        2.436349   -0.763559   -2.833553
     29          1           0       -0.377524   -2.020820   -2.846241
     30          1           0        1.120519   -2.808539   -3.373744
     31          1           0        2.087217   -2.469107   -1.025602
     32          1           0        1.850320   -3.485995    1.023290
     33          1           0        0.195333   -3.427990    1.707165
     34          1           0        0.742435   -4.878878    0.869132
     35          1           0       -1.499875   -4.478585   -0.235262
     36          1           0       -1.773229   -2.737661   -0.125873
     37          1           0       -1.480817   -3.471370   -1.716577
     38          8           0        0.986596    2.317833   -0.741711
     39          8           0        2.692789    1.682695   -2.082225
     40          6           0        1.632597    3.603242   -0.505240
     41          6           0        0.681354    4.452520    0.311277
     42          1           0        2.580445    3.413175    0.017103
     43          1           0        1.865128    4.050944   -1.480308
     44          1           0        1.152744    5.424681    0.516302
     45          1           0       -0.256013    4.626849   -0.233486
     46          1           0        0.438810    3.969106    1.266282
 ---------------------------------------------------------------------

 SCF Done:  E(UB3LYP) =  -3531.45269328     A.U. after   17 cycles

 The electronic state is 6-A.
 Alpha  occ. eigenvalues -- -256.21027-101.52519-101.52396-101.52355 -30.20434
 Alpha  occ. eigenvalues --  -26.05807 -26.05640 -26.05546 -19.20629 -19.17913
 Alpha  occ. eigenvalues --  -19.15649 -10.33417 -10.32570 -10.25273 -10.24974
 Alpha  occ. eigenvalues --  -10.22546 -10.22061 -10.21248 -10.21075 -10.20917
 Alpha  occ. eigenvalues --  -10.20830 -10.20701 -10.20581 -10.20141 -10.20079
 Alpha  occ. eigenvalues --  -10.20012 -10.19625 -10.18625  -9.44244  -9.44128
 Alpha  occ. eigenvalues --   -9.44089  -7.20108  -7.19996  -7.19958  -7.19798
 Alpha  occ. eigenvalues --   -7.19782  -7.19670  -7.19669  -7.19634  -7.19631
 Alpha  occ. eigenvalues --   -3.68100  -2.45711  -2.45395  -2.45210  -1.12537
 Alpha  occ. eigenvalues --   -1.07602  -1.04017  -0.88001  -0.86439  -0.83393
 Alpha  occ. eigenvalues --   -0.80486  -0.79755  -0.79669  -0.78927  -0.78208
 Alpha  occ. eigenvalues --   -0.76531  -0.75030  -0.71787  -0.70497  -0.66660
 Alpha  occ. eigenvalues --   -0.64534  -0.62452  -0.61622  -0.59601  -0.57484
 Alpha  occ. eigenvalues --   -0.55969  -0.54543  -0.53116  -0.51489  -0.50380
 Alpha  occ. eigenvalues --   -0.49846  -0.49206  -0.48765  -0.48402  -0.48196
 Alpha  occ. eigenvalues --   -0.47960  -0.47588  -0.47156  -0.46771  -0.45930
 Alpha  occ. eigenvalues --   -0.45378  -0.44807  -0.43981  -0.43480  -0.42544
 Alpha  occ. eigenvalues --   -0.42435  -0.41072  -0.40521  -0.40408  -0.40068
 Alpha  occ. eigenvalues --   -0.38976  -0.38629  -0.37818  -0.37675  -0.37503
 Alpha  occ. eigenvalues --   -0.37182  -0.36907  -0.36256  -0.36065  -0.35733
 Alpha  occ. eigenvalues --   -0.34921  -0.34646  -0.34165  -0.32275  -0.32074
 Alpha  occ. eigenvalues --   -0.31276  -0.31256  -0.30975  -0.30576  -0.30122
 Alpha  occ. eigenvalues --   -0.29910  -0.29266  -0.28448  -0.27281  -0.26042
 Alpha virt. eigenvalues --   -0.11101  -0.03581  -0.02875  -0.01579  -0.01199
 Alpha virt. eigenvalues --   -0.00190  -0.00049   0.00053   0.01444   0.01634
 Alpha virt. eigenvalues --    0.01816   0.01961   0.02389   0.03315   0.03650

  Beta  occ. eigenvalues -- -256.20842-101.52335-101.52215-101.52168 -30.11481
  Beta  occ. eigenvalues --  -25.98238 -25.98212 -25.98156 -19.20629 -19.17437
  Beta  occ. eigenvalues --  -19.15647 -10.33417 -10.32563 -10.25230 -10.24974
  Beta  occ. eigenvalues --  -10.22533 -10.22041 -10.21226 -10.21076 -10.20919
  Beta  occ. eigenvalues --  -10.20832 -10.20698 -10.20580 -10.20142 -10.20078
  Beta  occ. eigenvalues --  -10.20014 -10.19628 -10.18624  -9.44063  -9.43951
  Beta  occ. eigenvalues --   -9.43905  -7.19805  -7.19693  -7.19652  -7.19549
  Beta  occ. eigenvalues --   -7.19535  -7.19435  -7.19424  -7.19385  -7.19376
  Beta  occ. eigenvalues --   -3.47224  -2.23484  -2.23441  -2.23392  -1.12534
  Beta  occ. eigenvalues --   -1.06678  -1.04015  -0.87948  -0.86372  -0.83333
  Beta  occ. eigenvalues --   -0.79302  -0.78920  -0.78483  -0.78386  -0.78134
  Beta  occ. eigenvalues --   -0.76527  -0.75005  -0.71774  -0.70405  -0.66502
  Beta  occ. eigenvalues --   -0.64461  -0.62419  -0.61545  -0.59238  -0.57239
  Beta  occ. eigenvalues --   -0.55505  -0.54449  -0.52255  -0.51457  -0.50127
  Beta  occ. eigenvalues --   -0.49584  -0.48894  -0.47963  -0.47444  -0.46843
  Beta  occ. eigenvalues --   -0.45771  -0.44858  -0.43967  -0.43493  -0.42524
  Beta  occ. eigenvalues --   -0.42428  -0.41143  -0.40494  -0.40370  -0.40072
  Beta  occ. eigenvalues --   -0.38965  -0.38467  -0.38259  -0.37738  -0.37476
  Beta  occ. eigenvalues --   -0.37135  -0.36945  -0.36301  -0.36128  -0.36093
  Beta  occ. eigenvalues --   -0.35970  -0.35788  -0.34803  -0.33398  -0.33322
  Beta  occ. eigenvalues --   -0.32679  -0.32484  -0.32037  -0.31515  -0.30385
  Beta  occ. eigenvalues --   -0.29786  -0.29243  -0.28528  -0.27289  -0.25938
  Beta virt. eigenvalues --   -0.15008  -0.14554  -0.13602  -0.13400  -0.13115
  Beta virt. eigenvalues --   -0.10195  -0.03546  -0.02840  -0.01484  -0.01152
  Beta virt. eigenvalues --   -0.00147  -0.00022   0.00082   0.01461   0.01661

 Mulliken charges and spin densities:
               1          2
     1  C   -0.182247  -0.002536
     2  C    3.204230   0.011989
     3  C   -0.758156  -0.006917
     4  C    0.017457   0.004265
     5  C    0.249706  -0.001894
     6  C   -0.004104   0.002936
     7  C   -2.657429  -0.008193
     8  C    0.824733   0.004015
     9  C    0.645042   0.001124
    10  C    0.755187   0.001520
    11  C    0.630327   0.007110
    12  C   -0.255851   0.032515
    13  C    0.029695  -0.005604
    14  O   -0.444487   0.138294
    15  Fe   0.622356   4.070380
    16  Cl  -0.509579   0.243022
    17  C    0.321276  -0.001231
    18  Cl  -0.472825   0.252095
    19  Cl  -0.484807   0.246668
    20  H   -0.206721   0.001531
    21  H   -0.155154   0.000006
    22  H   -0.155761   0.000031
    23  H   -0.157233   0.000134
    24  H   -0.184657  -0.000070
    25  H   -0.200834   0.000377
    26  C    0.818879  -0.003501
    27  H   -0.169861   0.000291
    28  H   -0.040683  -0.000099
    29  H   -0.083515   0.000028
    30  H   -0.137675   0.000647
    31  H   -0.227753  -0.000818
    32  H    0.014718   0.000016
    33  H    0.076872   0.001735
    34  H    0.001381   0.001717
    35  H    0.008241   0.000491
    36  H    0.115232   0.004752
    37  H    0.020729   0.000298
    38  O   -0.696121   0.001833
    39  O   -0.628467   0.000917
    40  C    0.442870   0.001001
    41  C    0.042757  -0.000722
    42  H   -0.029227   0.000020
    43  H   -0.034406   0.000021
    44  H   -0.008222   0.000015
    45  H    0.022579  -0.000002
    46  H    0.021509  -0.000207
 Sum of Mulliken charges =  -0.00000   5.00000

 Dipole moment (field-independent basis, Debye):
    X=             10.0376    Y=             -7.3880    Z=             -1.0151  Tot=             12.5047
 Quadrupole moment (field-independent basis, Debye-Ang):
   XX=           -197.3948   YY=           -152.9798   ZZ=           -173.9842
   XY=             -0.1144   XZ=             13.2633   YZ=              5.0073

 Normal termination of Gaussian 16 at Sun Jun 20 10:22:00 2021.
