                         Program Version 4.1.2  - RELEASE  -
|  1> ! aug-cc-pVTZ aug-cc-pVTZ/C DLPNO-CCSD(T1) TightSCF NormalPNO UNO MiniPrint AutoAux
|  2> %pal nproc 10 end
|  3> %maxcore 20000
|  4> %mdci
|  5>      density none
|  6> end
|  7>
|  8> * xyz 0 6
|  9>  O     -0.31735400     -0.13243500     -0.65936300
| 10>  C     -1.21817200     -1.05084500     -0.57518700
| 11>  C     -3.05989500     -0.07641200      0.13088200
| 12>  C     -2.35055800      1.04932000     -0.18030400
| 13>  C     -2.37995200      1.65108700     -1.54828900
| 14> Fe      1.44539000      0.07603400      0.04274300
| 15> Cl      2.06122400      2.02401200     -0.74946000
| 16>  C     -1.56288300      1.81800400      0.83094000
| 17> Cl      2.50173500     -1.68489500     -0.73830600
| 18> Cl      1.30960900      0.03845000      2.24668400
| 19>  H     -3.71387200     -0.47122700     -0.64337900
| 20>  H     -2.21801100      2.59956600      1.24333300
| 21>  H     -1.20735400      1.21108600      1.66367300
| 22>  H     -0.70777500      2.31919900      0.36965700
| 23>  H     -2.69527100      2.69897300     -1.46232600
| 24>  H     -1.36929100      1.66089700     -1.97245900
| 25>  H     -3.06757100      1.14187500     -2.22700600
| 26>  C     -3.40187100     -0.51088000      1.53417600
| 27>  H     -4.30039700      0.02424400      1.86862700
| 28>  H     -3.63086500     -1.57873400      1.58235700
| 29>  H     -2.60948200     -0.29860300      2.25509100
| 30>  C     -1.08295100     -2.06993000      0.52502200
| 31>  H     -1.94997100     -2.72644300      0.60254700
| 32>  H     -0.21192600     -2.67996000      0.24355000
| 33>  H     -0.85494500     -1.60993400      1.48651900
| 34>  C     -1.74819800     -1.56214000     -1.89381800
| 35>  H     -0.93589300     -2.16964000     -2.31644400
| 36>  H     -2.63003600     -2.19485600     -1.77722900
| 37>  H     -1.94540200     -0.75169900     -2.59507200
| 38> *
| 39>
| 40>
| 41>                          ****END OF INPUT****

CARTESIAN COORDINATES (ANGSTROEM)
---------------------------------
  O     -0.317354   -0.132435   -0.659363
  C     -1.218172   -1.050845   -0.575187
  C     -3.059895   -0.076412    0.130882
  C     -2.350558    1.049320   -0.180304
  C     -2.379952    1.651087   -1.548289
  Fe     1.445390    0.076034    0.042743
  Cl     2.061224    2.024012   -0.749460
  C     -1.562883    1.818004    0.830940
  Cl     2.501735   -1.684895   -0.738306
  Cl     1.309609    0.038450    2.246684
  H     -3.713872   -0.471227   -0.643379
  H     -2.218011    2.599566    1.243333
  H     -1.207354    1.211086    1.663673
  H     -0.707775    2.319199    0.369657
  H     -2.695271    2.698973   -1.462326
  H     -1.369291    1.660897   -1.972459
  H     -3.067571    1.141875   -2.227006
  C     -3.401871   -0.510880    1.534176
  H     -4.300397    0.024244    1.868627
  H     -3.630865   -1.578734    1.582357
  H     -2.609482   -0.298603    2.255091
  C     -1.082951   -2.069930    0.525022
  H     -1.949971   -2.726443    0.602547
  H     -0.211926   -2.679960    0.243550
  H     -0.854945   -1.609934    1.486519
  C     -1.748198   -1.562140   -1.893818
  H     -0.935893   -2.169640   -2.316444
  H     -2.630036   -2.194856   -1.777229
  H     -1.945402   -0.751699   -2.595072

ORBITAL ENERGIES
----------------
                 SPIN UP ORBITALS
  NO   OCC          E(Eh)            E(eV)
   0   1.0000    -261.562384     -7117.4743
   1   1.0000    -104.784109     -2851.3206
   2   1.0000    -104.781636     -2851.2533
   3   1.0000    -104.781286     -2851.2437
   4   1.0000     -32.230213      -877.0287
   5   1.0000     -27.706412      -753.9298
   6   1.0000     -27.705721      -753.9110
   7   1.0000     -27.705561      -753.9067
   8   1.0000     -20.579252      -559.9899
   9   1.0000     -11.411233      -310.5154
  10   1.0000     -11.316073      -307.9260
  11   1.0000     -11.267735      -306.6107
  12   1.0000     -11.264091      -306.5115
  13   1.0000     -11.261818      -306.4496
  14   1.0000     -11.256388      -306.3019
  15   1.0000     -11.253263      -306.2169
  16   1.0000     -11.247509      -306.0603
  17   1.0000     -10.510756      -286.0122
  18   1.0000     -10.508243      -285.9438
  19   1.0000     -10.507860      -285.9334
  20   1.0000      -7.977621      -217.0821
  21   1.0000      -7.976809      -217.0600
  22   1.0000      -7.976772      -217.0590
  23   1.0000      -7.975108      -217.0137
  24   1.0000      -7.974664      -217.0016
  25   1.0000      -7.974340      -216.9928
  26   1.0000      -7.974258      -216.9906
  27   1.0000      -7.973974      -216.9829
  28   1.0000      -7.973902      -216.9809
  29   1.0000      -4.585438      -124.7761
  30   1.0000      -3.198352       -87.0316
  31   1.0000      -3.197185       -86.9998
  32   1.0000      -3.196851       -86.9907
  33   1.0000      -1.430364       -38.9222
  34   1.0000      -1.155637       -31.4465
  35   1.0000      -1.091414       -29.6989
  36   1.0000      -1.056271       -28.7426
  37   1.0000      -1.050838       -28.5948
  38   1.0000      -1.048690       -28.5363
  39   1.0000      -1.034803       -28.1584
  40   1.0000      -1.001339       -27.2478
  41   1.0000      -0.978461       -26.6253
  42   1.0000      -0.932015       -25.3614
  43   1.0000      -0.916927       -24.9508
  44   1.0000      -0.914777       -24.8923
  45   1.0000      -0.914620       -24.8881
  46   1.0000      -0.904815       -24.6213
  47   1.0000      -0.904572       -24.6147
  48   1.0000      -0.797172       -21.6921
  49   1.0000      -0.750587       -20.4245
  50   1.0000      -0.696516       -18.9532
  51   1.0000      -0.692302       -18.8385
  52   1.0000      -0.684831       -18.6352
  53   1.0000      -0.667848       -18.1731
  54   1.0000      -0.639359       -17.3978
  55   1.0000      -0.620343       -16.8804
  56   1.0000      -0.603405       -16.4195
  57   1.0000      -0.597966       -16.2715
  58   1.0000      -0.582947       -15.8628
  59   1.0000      -0.575210       -15.6523
  60   1.0000      -0.570576       -15.5262
  61   1.0000      -0.564084       -15.3495
  62   1.0000      -0.552231       -15.0270
  63   1.0000      -0.548905       -14.9365
  64   1.0000      -0.542591       -14.7646
  65   1.0000      -0.521461       -14.1897
  66   1.0000      -0.514866       -14.0102
  67   1.0000      -0.488270       -13.2865
  68   1.0000      -0.469571       -12.7777
  69   1.0000      -0.463034       -12.5998
  70   1.0000      -0.437177       -11.8962
  71   1.0000      -0.432212       -11.7611
  72   1.0000      -0.430782       -11.7222
  73   1.0000      -0.422305       -11.4915
  74   1.0000      -0.420688       -11.4475
  75   1.0000      -0.420299       -11.4369
  76   1.0000      -0.373737       -10.1699
  77   0.0000       0.011346         0.3088
  78   0.0000       0.021794         0.5931
  79   0.0000       0.022773         0.6197
  80   0.0000       0.030250         0.8232
  81   0.0000       0.038714         1.0535

                 SPIN DOWN ORBITALS
  NO   OCC          E(Eh)            E(eV)
   0   1.0000    -261.558828     -7117.3776
   1   1.0000    -104.782683     -2851.2818
   2   1.0000    -104.780155     -2851.2130
   3   1.0000    -104.779836     -2851.2043
   4   1.0000     -32.068172      -872.6193
   5   1.0000     -27.546132      -749.5684
   6   1.0000     -27.546061      -749.5664
   7   1.0000     -27.545763      -749.5583
   8   1.0000     -20.574857      -559.8703
   9   1.0000     -11.411123      -310.5124
  10   1.0000     -11.316026      -307.9247
  11   1.0000     -11.267629      -306.6078
  12   1.0000     -11.263911      -306.5066
  13   1.0000     -11.261799      -306.4491
  14   1.0000     -11.256387      -306.3019
  15   1.0000     -11.253282      -306.2174
  16   1.0000     -11.247538      -306.0611
  17   1.0000     -10.509228      -285.9706
  18   1.0000     -10.506658      -285.9007
  19   1.0000     -10.506314      -285.8913
  20   1.0000      -7.975119      -217.0140
  21   1.0000      -7.974506      -216.9973
  22   1.0000      -7.974439      -216.9955
  23   1.0000      -7.972558      -216.9443
  24   1.0000      -7.972295      -216.9372
  25   1.0000      -7.971904      -216.9265
  26   1.0000      -7.971811      -216.9240
  27   1.0000      -7.971524      -216.9162
  28   1.0000      -7.971435      -216.9138
  29   1.0000      -4.143159      -112.7411
  30   1.0000      -2.664808       -72.5131
  31   1.0000      -2.664774       -72.5122
  32   1.0000      -2.664205       -72.4967
  33   1.0000      -1.419220       -38.6189
  34   1.0000      -1.154875       -31.4257
  35   1.0000      -1.088736       -29.6260
  36   1.0000      -1.041439       -28.3390
  37   1.0000      -1.034385       -28.1471
  38   1.0000      -1.029403       -28.0115
  39   1.0000      -1.027485       -27.9593
  40   1.0000      -1.000520       -27.2255
  41   1.0000      -0.978363       -26.6226
  42   1.0000      -0.918382       -24.9904
  43   1.0000      -0.811019       -22.0690
  44   1.0000      -0.750680       -20.4270
  45   1.0000      -0.698107       -18.9965
  46   1.0000      -0.693474       -18.8704
  47   1.0000      -0.683540       -18.6001
  48   1.0000      -0.667370       -18.1600
  49   1.0000      -0.639268       -17.3954
  50   1.0000      -0.620035       -16.8720
  51   1.0000      -0.602797       -16.4029
  52   1.0000      -0.597922       -16.2703
  53   1.0000      -0.582705       -15.8562
  54   1.0000      -0.574879       -15.6433
  55   1.0000      -0.570362       -15.5203
  56   1.0000      -0.563851       -15.3432
  57   1.0000      -0.551932       -15.0188
  58   1.0000      -0.547248       -14.8914
  59   1.0000      -0.539844       -14.6899
  60   1.0000      -0.514892       -14.0109
  61   1.0000      -0.512269       -13.9395
  62   1.0000      -0.486819       -13.2470
  63   1.0000      -0.474448       -12.9104
  64   1.0000      -0.473185       -12.8760
  65   1.0000      -0.444975       -12.1084
  66   1.0000      -0.441924       -12.0254
  67   1.0000      -0.439944       -11.9715
  68   1.0000      -0.425458       -11.5773
  69   1.0000      -0.420473       -11.4417
  70   1.0000      -0.406132       -11.0514
  71   1.0000      -0.371953       -10.1214
  72   0.0000       0.011340         0.3086
  73   0.0000       0.021769         0.5924
  74   0.0000       0.022750         0.6191
  75   0.0000       0.030258         0.8234
  76   0.0000       0.038630         1.0512

E(0)                                       ...  -3028.432129244
E(0)                                       ...  -3028.432129244
E(CORR)(strong-pairs)                      ...     -2.872633461
E(CORR)(weak-pairs)                        ...     -0.036381703
E(CORR)(corrected)                         ...     -2.909015163
E(TOT)                                     ...  -3031.341144407
E(CCSD(T))                                 ...  -3031.460843478
FINAL SINGLE POINT ENERGY     -3031.460843478335

DIPOLE MOMENT
-------------
                                X             Y             Z
Electronic contribution:     42.12603       2.95436       2.27197
Nuclear contribution   :    -46.23475      -3.52500      -2.83109
                        -----------------------------------------
Total Dipole Moment    :     -4.10872      -0.57064      -0.55912
                        -----------------------------------------
Magnitude (a.u.)       :      4.18567
Magnitude (Debye)      :     10.63912

Rotational constants in cm-1:     0.019341     0.011172     0.010489
Rotational constants in MHz :   579.832723   334.924862   314.466860

                             ****ORCA TERMINATED NORMALLY****
TOTAL RUN TIME: 0 days 20 hours 19 minutes 2 seconds 789 msec
