                         Program Version 4.1.2  - RELEASE  -
|  1> ! aug-cc-pVTZ aug-cc-pVTZ/C DLPNO-CCSD(T1) TightSCF NormalPNO UNO MiniPrint AutoAux
|  2> %pal nproc 10 end
|  3> %maxcore 20000
|  4> %mdci
|  5>      density none
|  6> end
|  7>
|  8> * xyz 0 6
|  9>  O     -0.45741800     -0.13206600     -0.48917100
| 10>  C     -1.48650500     -1.17033700     -0.32098700
| 11>  C     -2.74688600     -0.10828300     -0.24364100
| 12>  C     -1.85370900      1.13774000     -0.27024700
| 13>  C     -1.78739500      1.93377300     -1.52919100
| 14> Fe      1.37078400      0.02933700      0.03590200
| 15> Cl      1.90697700      1.96780400     -0.86090300
| 16>  C     -1.52951600      1.85504200      0.99681500
| 17> Cl      2.34322300     -1.75891700     -0.76896900
| 18> Cl      1.41682300      0.12478700      2.23743600
| 19>  H     -3.30102500     -0.16857400     -1.18514100
| 20>  H     -2.39502300      2.48516000      1.24977100
| 21>  H     -1.34464900      1.17780000      1.83061100
| 22>  H     -0.66267700      2.50703100      0.86542100
| 23>  H     -2.62188000      2.65151100     -1.51293200
| 24>  H     -0.85148800      2.49500300     -1.58870100
| 25>  H     -1.89581800      1.30191900     -2.41259300
| 26>  C     -3.71320100     -0.24473800      0.92498600
| 27>  H     -4.46465400      0.55290300      0.90664600
| 28>  H     -4.24579500     -1.19841000      0.85581300
| 29>  H     -3.20950700     -0.21322500      1.89395200
| 30>  C     -1.24618100     -1.97338000      0.94288500
| 31>  H     -2.06473600     -2.68219500      1.10569300
| 32>  H     -0.31825400     -2.54607400      0.83939500
| 33>  H     -1.14709700     -1.33586100      1.82352500
| 34>  C     -1.51266500     -2.03617000     -1.56565900
| 35>  H     -0.55916800     -2.56466200     -1.66726500
| 36>  H     -2.31852300     -2.77609400     -1.50112800
| 37>  H     -1.66379100     -1.42681400     -2.46152000
| 38> *
| 39>
| 40>
| 41>                          ****END OF INPUT****

CARTESIAN COORDINATES (ANGSTROEM)
---------------------------------
  O     -0.457418   -0.132066   -0.489171
  C     -1.486505   -1.170337   -0.320987
  C     -2.746886   -0.108283   -0.243641
  C     -1.853709    1.137740   -0.270247
  C     -1.787395    1.933773   -1.529191
  Fe     1.370784    0.029337    0.035902
  Cl     1.906977    1.967804   -0.860903
  C     -1.529516    1.855042    0.996815
  Cl     2.343223   -1.758917   -0.768969
  Cl     1.416823    0.124787    2.237436
  H     -3.301025   -0.168574   -1.185141
  H     -2.395023    2.485160    1.249771
  H     -1.344649    1.177800    1.830611
  H     -0.662677    2.507031    0.865421
  H     -2.621880    2.651511   -1.512932
  H     -0.851488    2.495003   -1.588701
  H     -1.895818    1.301919   -2.412593
  C     -3.713201   -0.244738    0.924986
  H     -4.464654    0.552903    0.906646
  H     -4.245795   -1.198410    0.855813
  H     -3.209507   -0.213225    1.893952
  C     -1.246181   -1.973380    0.942885
  H     -2.064736   -2.682195    1.105693
  H     -0.318254   -2.546074    0.839395
  H     -1.147097   -1.335861    1.823525
  C     -1.512665   -2.036170   -1.565659
  H     -0.559168   -2.564662   -1.667265
  H     -2.318523   -2.776094   -1.501128
  H     -1.663791   -1.426814   -2.461520

ORBITAL ENERGIES
----------------
                 SPIN UP ORBITALS
  NO   OCC          E(Eh)            E(eV)
   0   1.0000    -261.556655     -7117.3184
   1   1.0000    -104.781683     -2851.2545
   2   1.0000    -104.779661     -2851.1995
   3   1.0000    -104.778905     -2851.1790
   4   1.0000     -32.224572      -876.8752
   5   1.0000     -27.700658      -753.7732
   6   1.0000     -27.700146      -753.7593
   7   1.0000     -27.699919      -753.7531
   8   1.0000     -20.582388      -560.0753
   9   1.0000     -11.390402      -309.9486
  10   1.0000     -11.336439      -308.4802
  11   1.0000     -11.289521      -307.2035
  12   1.0000     -11.270133      -306.6759
  13   1.0000     -11.269349      -306.6546
  14   1.0000     -11.260281      -306.4078
  15   1.0000     -11.238136      -305.8052
  16   1.0000     -11.237564      -305.7897
  17   1.0000     -10.508329      -285.9462
  18   1.0000     -10.506367      -285.8928
  19   1.0000     -10.505561      -285.8709
  20   1.0000      -7.975150      -217.0149
  21   1.0000      -7.974425      -216.9951
  22   1.0000      -7.974357      -216.9933
  23   1.0000      -7.973241      -216.9629
  24   1.0000      -7.972422      -216.9406
  25   1.0000      -7.972396      -216.9399
  26   1.0000      -7.972360      -216.9390
  27   1.0000      -7.971678      -216.9204
  28   1.0000      -7.971616      -216.9187
  29   1.0000      -4.579848      -124.6240
  30   1.0000      -3.192401       -86.8697
  31   1.0000      -3.191824       -86.8539
  32   1.0000      -3.191348       -86.8410
  33   1.0000      -1.370828       -37.3021
  34   1.0000      -1.154804       -31.4238
  35   1.0000      -1.092826       -29.7373
  36   1.0000      -1.054059       -28.6824
  37   1.0000      -1.048216       -28.5234
  38   1.0000      -1.046893       -28.4874
  39   1.0000      -1.033748       -28.1297
  40   1.0000      -1.002962       -27.2920
  41   1.0000      -0.966388       -26.2968
  42   1.0000      -0.933583       -25.4041
  43   1.0000      -0.909156       -24.7394
  44   1.0000      -0.909010       -24.7354
  45   1.0000      -0.903953       -24.5978
  46   1.0000      -0.900116       -24.4934
  47   1.0000      -0.899396       -24.4738
  48   1.0000      -0.801443       -21.8084
  49   1.0000      -0.755762       -20.5653
  50   1.0000      -0.692773       -18.8513
  51   1.0000      -0.688153       -18.7256
  52   1.0000      -0.670252       -18.2385
  53   1.0000      -0.635430       -17.2909
  54   1.0000      -0.628249       -17.0955
  55   1.0000      -0.616731       -16.7821
  56   1.0000      -0.598162       -16.2768
  57   1.0000      -0.593124       -16.1397
  58   1.0000      -0.586561       -15.9611
  59   1.0000      -0.583278       -15.8718
  60   1.0000      -0.567134       -15.4325
  61   1.0000      -0.559828       -15.2337
  62   1.0000      -0.542968       -14.7749
  63   1.0000      -0.534585       -14.5468
  64   1.0000      -0.530454       -14.4344
  65   1.0000      -0.520406       -14.1610
  66   1.0000      -0.504822       -13.7369
  67   1.0000      -0.482399       -13.1268
  68   1.0000      -0.470695       -12.8083
  69   1.0000      -0.459318       -12.4987
  70   1.0000      -0.449885       -12.2420
  71   1.0000      -0.431993       -11.7551
  72   1.0000      -0.428182       -11.6514
  73   1.0000      -0.423911       -11.5352
  74   1.0000      -0.420404       -11.4398
  75   1.0000      -0.418479       -11.3874
  76   1.0000      -0.417811       -11.3692
  77   0.0000       0.009588         0.2609
  78   0.0000       0.021334         0.5805
  79   0.0000       0.023546         0.6407
  80   0.0000       0.031166         0.8481
  81   0.0000       0.038191         1.0392

                 SPIN DOWN ORBITALS
  NO   OCC          E(Eh)            E(eV)
   0   1.0000    -261.553100     -7117.2217
   1   1.0000    -104.780281     -2851.2164
   2   1.0000    -104.778222     -2851.1604
   3   1.0000    -104.777418     -2851.1385
   4   1.0000     -32.062617      -872.4682
   5   1.0000     -27.540596      -749.4177
   6   1.0000     -27.540478      -749.4145
   7   1.0000     -27.540141      -749.4053
   8   1.0000     -20.577653      -559.9464
   9   1.0000     -11.390414      -309.9489
  10   1.0000     -11.336279      -308.4758
  11   1.0000     -11.289439      -307.2013
  12   1.0000     -11.270119      -306.6755
  13   1.0000     -11.269360      -306.6549
  14   1.0000     -11.260263      -306.4073
  15   1.0000     -11.238111      -305.8046
  16   1.0000     -11.237559      -305.7895
  17   1.0000     -10.506828      -285.9053
  18   1.0000     -10.504824      -285.8508
  19   1.0000     -10.503973      -285.8276
  20   1.0000      -7.972786      -216.9505
  21   1.0000      -7.972092      -216.9317
  22   1.0000      -7.972032      -216.9300
  23   1.0000      -7.970728      -216.8945
  24   1.0000      -7.970094      -216.8773
  25   1.0000      -7.970034      -216.8757
  26   1.0000      -7.969948      -216.8733
  27   1.0000      -7.969145      -216.8515
  28   1.0000      -7.969097      -216.8502
  29   1.0000      -4.137794      -112.5951
  30   1.0000      -2.659678       -72.3735
  31   1.0000      -2.659514       -72.3691
  32   1.0000      -2.658594       -72.3440
  33   1.0000      -1.358668       -36.9712
  34   1.0000      -1.152695       -31.3664
  35   1.0000      -1.090582       -29.6762
  36   1.0000      -1.038993       -28.2724
  37   1.0000      -1.032823       -28.1045
  38   1.0000      -1.027497       -27.9596
  39   1.0000      -1.025738       -27.9118
  40   1.0000      -1.002682       -27.2844
  41   1.0000      -0.965767       -26.2798
  42   1.0000      -0.923436       -25.1280
  43   1.0000      -0.803036       -21.8517
  44   1.0000      -0.759228       -20.6597
  45   1.0000      -0.692760       -18.8510
  46   1.0000      -0.688050       -18.7228
  47   1.0000      -0.670856       -18.2549
  48   1.0000      -0.635842       -17.3022
  49   1.0000      -0.628209       -17.0944
  50   1.0000      -0.615481       -16.7481
  51   1.0000      -0.598011       -16.2727
  52   1.0000      -0.592459       -16.1216
  53   1.0000      -0.586126       -15.9493
  54   1.0000      -0.582018       -15.8375
  55   1.0000      -0.567037       -15.4298
  56   1.0000      -0.559392       -15.2218
  57   1.0000      -0.538249       -14.6465
  58   1.0000      -0.534320       -14.5396
  59   1.0000      -0.528462       -14.3802
  60   1.0000      -0.514195       -13.9920
  61   1.0000      -0.505980       -13.7684
  62   1.0000      -0.479107       -13.0372
  63   1.0000      -0.473044       -12.8722
  64   1.0000      -0.468741       -12.7551
  65   1.0000      -0.451647       -12.2899
  66   1.0000      -0.442933       -12.0528
  67   1.0000      -0.440115       -11.9761
  68   1.0000      -0.437091       -11.8939
  69   1.0000      -0.419281       -11.4092
  70   1.0000      -0.414424       -11.2770
  71   1.0000      -0.404462       -11.0060
  72   0.0000       0.009576         0.2606
  73   0.0000       0.021268         0.5787
  74   0.0000       0.023523         0.6401
  75   0.0000       0.031213         0.8494
  76   0.0000       0.038193         1.0393

E(0)                                       ...  -3028.450615226
E(0)                                       ...  -3028.450615226
E(CORR)(strong-pairs)                      ...     -2.876843156
E(CORR)(weak-pairs)                        ...     -0.035354423
E(CORR)(corrected)                         ...     -2.912197579
E(TOT)                                     ...  -3031.362812805
E(CCSD(T))                                 ...  -3031.481807623
FINAL SINGLE POINT ENERGY     -3031.481807623163

DIPOLE MOMENT
-------------
                                X             Y             Z
Electronic contribution:     40.43552       2.67137       1.55539
Nuclear contribution   :    -44.73041      -2.24722      -1.90080
                        -----------------------------------------
Total Dipole Moment    :     -4.29489       0.42415      -0.34541
                        -----------------------------------------
Magnitude (a.u.)       :      4.32959
Magnitude (Debye)      :     11.00493

Rotational constants in cm-1:     0.018989     0.012155     0.010862
Rotational constants in MHz :   569.284215   364.383157   325.633633

                             ****ORCA TERMINATED NORMALLY****
TOTAL RUN TIME: 0 days 21 hours 24 minutes 2 seconds 170 msec
