                         Program Version 4.1.2  - RELEASE  -
|  1> ! aug-cc-pVTZ aug-cc-pVTZ/C DLPNO-CCSD(T1) TightSCF NormalPNO UNO MiniPrint AutoAux
|  2> %pal nproc 10 end
|  3> %maxcore 20000
|  4> %mdci
|  5>      density none
|  6> end
|  7>
|  8> * xyz 0 6
|  9>  O      0.17059600      0.37120200     -0.85711700
| 10>  C      1.01649500      1.28628900     -0.65808400
| 11>  C      2.91770100      0.27211300      0.60954000
| 12>  C      2.78544900     -0.88227300     -0.08812100
| 13>  C      3.46855000     -1.08993500     -1.40972900
| 14> Fe     -1.50591300     -0.17655200     -0.01689400
| 15> Cl     -2.01608300     -2.03758000     -1.02674700
| 16>  C      1.90222500     -2.01110600      0.35014400
| 17> Cl     -2.78961300      1.54352800     -0.44083800
| 18> Cl     -1.12998500     -0.43093300      2.13277200
| 19>  H      3.61163800      1.01148400      0.21068400
| 20>  H      2.44838600     -2.96218900      0.32308400
| 21>  H      1.48322400     -1.87712000      1.34731700
| 22>  H      1.06545300     -2.11503700     -0.35611000
| 23>  H      4.12705800     -1.96644900     -1.35152700
| 24>  H      2.73839300     -1.30770100     -2.20119600
| 25>  H      4.07628800     -0.23198600     -1.70884000
| 26>  C      2.54814000      0.45217600      2.06296500
| 27>  H      3.28681800     -0.05776800      2.69520800
| 28>  H      2.56125500      1.50602500      2.35150000
| 29>  H      1.56616800      0.04596900      2.31399600
| 30>  C      0.78245500      2.28972400      0.43267100
| 31>  H      1.66645500      2.89146700      0.64548100
| 32>  H     -0.00820500      2.95263700      0.05070400
| 33>  H      0.40197000      1.82527500      1.34222000
| 34>  C      1.84815900      1.70544900     -1.83814500
| 35>  H      1.22926300      2.42069200     -2.39905600
| 36>  H      2.76865100      2.21294900     -1.54807000
| 37>  H      2.05769600      0.86261400     -2.49482400
| 38> *
| 39>
| 40>
| 41>                          ****END OF INPUT****

CARTESIAN COORDINATES (ANGSTROEM)
---------------------------------
  O      0.170596    0.371202   -0.857117
  C      1.016495    1.286289   -0.658084
  C      2.917701    0.272113    0.609540
  C      2.785449   -0.882273   -0.088121
  C      3.468550   -1.089935   -1.409729
  Fe    -1.505913   -0.176552   -0.016894
  Cl    -2.016083   -2.037580   -1.026747
  C      1.902225   -2.011106    0.350144
  Cl    -2.789613    1.543528   -0.440838
  Cl    -1.129985   -0.430933    2.132772
  H      3.611638    1.011484    0.210684
  H      2.448386   -2.962189    0.323084
  H      1.483224   -1.877120    1.347317
  H      1.065453   -2.115037   -0.356110
  H      4.127058   -1.966449   -1.351527
  H      2.738393   -1.307701   -2.201196
  H      4.076288   -0.231986   -1.708840
  C      2.548140    0.452176    2.062965
  H      3.286818   -0.057768    2.695208
  H      2.561255    1.506025    2.351500
  H      1.566168    0.045969    2.313996
  C      0.782455    2.289724    0.432671
  H      1.666455    2.891467    0.645481
  H     -0.008205    2.952637    0.050704
  H      0.401970    1.825275    1.342220
  C      1.848159    1.705449   -1.838145
  H      1.229263    2.420692   -2.399056
  H      2.768651    2.212949   -1.548070
  H      2.057696    0.862614   -2.494824

ORBITAL ENERGIES
----------------
                 SPIN UP ORBITALS
  NO   OCC          E(Eh)            E(eV)
   0   1.0000    -261.572105     -7117.7388
   1   1.0000    -104.791969     -2851.5345
   2   1.0000    -104.788285     -2851.4342
   3   1.0000    -104.785813     -2851.3669
   4   1.0000     -32.239865      -877.2913
   5   1.0000     -27.716295      -754.1987
   6   1.0000     -27.715244      -754.1701
   7   1.0000     -27.715029      -754.1643
   8   1.0000     -20.614660      -560.9534
   9   1.0000     -11.420299      -310.7621
  10   1.0000     -11.277828      -306.8853
  11   1.0000     -11.275874      -306.8321
  12   1.0000     -11.271566      -306.7149
  13   1.0000     -11.249465      -306.1135
  14   1.0000     -11.248766      -306.0945
  15   1.0000     -11.236494      -305.7606
  16   1.0000     -11.234677      -305.7111
  17   1.0000     -10.518695      -286.2282
  18   1.0000     -10.514964      -286.1267
  19   1.0000     -10.512444      -286.0581
  20   1.0000      -7.985532      -217.2974
  21   1.0000      -7.984766      -217.2765
  22   1.0000      -7.984726      -217.2754
  23   1.0000      -7.981823      -217.1964
  24   1.0000      -7.981067      -217.1759
  25   1.0000      -7.981016      -217.1745
  26   1.0000      -7.979245      -217.1263
  27   1.0000      -7.978577      -217.1081
  28   1.0000      -7.978514      -217.1064
  29   1.0000      -4.594847      -125.0322
  30   1.0000      -3.208004       -87.2942
  31   1.0000      -3.206307       -87.2480
  32   1.0000      -3.206103       -87.2425
  33   1.0000      -1.456982       -39.6465
  34   1.0000      -1.132835       -30.8260
  35   1.0000      -1.097666       -29.8690
  36   1.0000      -1.064616       -28.9697
  37   1.0000      -1.058643       -28.8071
  38   1.0000      -1.055185       -28.7130
  39   1.0000      -1.023662       -27.8553
  40   1.0000      -1.007968       -27.4282
  41   1.0000      -0.964152       -26.2359
  42   1.0000      -0.940291       -25.5866
  43   1.0000      -0.923881       -25.1401
  44   1.0000      -0.923700       -25.1352
  45   1.0000      -0.913305       -24.8523
  46   1.0000      -0.912554       -24.8319
  47   1.0000      -0.899609       -24.4796
  48   1.0000      -0.811127       -22.0719
  49   1.0000      -0.735750       -20.0208
  50   1.0000      -0.707966       -19.2647
  51   1.0000      -0.698094       -18.9961
  52   1.0000      -0.682329       -18.5671
  53   1.0000      -0.659217       -17.9382
  54   1.0000      -0.625528       -17.0215
  55   1.0000      -0.620910       -16.8958
  56   1.0000      -0.606047       -16.4914
  57   1.0000      -0.598876       -16.2962
  58   1.0000      -0.584941       -15.9171
  59   1.0000      -0.576607       -15.6903
  60   1.0000      -0.561298       -15.2737
  61   1.0000      -0.556720       -15.1491
  62   1.0000      -0.545675       -14.8486
  63   1.0000      -0.544842       -14.8259
  64   1.0000      -0.535463       -14.5707
  65   1.0000      -0.528167       -14.3722
  66   1.0000      -0.501371       -13.6430
  67   1.0000      -0.497262       -13.5312
  68   1.0000      -0.475256       -12.9324
  69   1.0000      -0.473395       -12.8817
  70   1.0000      -0.444487       -12.0951
  71   1.0000      -0.438503       -11.9323
  72   1.0000      -0.436357       -11.8739
  73   1.0000      -0.428136       -11.6502
  74   1.0000      -0.426812       -11.6142
  75   1.0000      -0.425354       -11.5745
  76   1.0000      -0.363110        -9.8807
  77   0.0000       0.012246         0.3332
  78   0.0000       0.022895         0.6230
  79   0.0000       0.023831         0.6485
  80   0.0000       0.030206         0.8220
  81   0.0000       0.038932         1.0594

                 SPIN DOWN ORBITALS
  NO   OCC          E(Eh)            E(eV)
   0   1.0000    -261.568525     -7117.6414
   1   1.0000    -104.790490     -2851.4942
   2   1.0000    -104.786738     -2851.3921
   3   1.0000    -104.784263     -2851.3247
   4   1.0000     -32.077850      -872.8827
   5   1.0000     -27.555765      -749.8305
   6   1.0000     -27.555699      -749.8287
   7   1.0000     -27.555574      -749.8253
   8   1.0000     -20.610988      -560.8535
   9   1.0000     -11.420205      -310.7596
  10   1.0000     -11.277785      -306.8841
  11   1.0000     -11.275766      -306.8292
  12   1.0000     -11.271552      -306.7145
  13   1.0000     -11.249471      -306.1137
  14   1.0000     -11.248775      -306.0947
  15   1.0000     -11.236490      -305.7604
  16   1.0000     -11.234693      -305.7115
  17   1.0000     -10.517113      -286.1852
  18   1.0000     -10.513313      -286.0818
  19   1.0000     -10.510795      -286.0133
  20   1.0000      -7.983023      -217.2291
  21   1.0000      -7.982312      -217.2097
  22   1.0000      -7.982270      -217.2086
  23   1.0000      -7.979216      -217.1255
  24   1.0000      -7.978498      -217.1060
  25   1.0000      -7.978412      -217.1036
  26   1.0000      -7.976776      -217.0591
  27   1.0000      -7.975917      -217.0357
  28   1.0000      -7.975829      -217.0333
  29   1.0000      -4.152710      -113.0010
  30   1.0000      -2.674308       -72.7716
  31   1.0000      -2.674236       -72.7697
  32   1.0000      -2.673787       -72.7574
  33   1.0000      -1.447921       -39.3999
  34   1.0000      -1.132499       -30.8169
  35   1.0000      -1.095100       -29.7992
  36   1.0000      -1.048972       -28.5440
  37   1.0000      -1.036503       -28.2047
  38   1.0000      -1.032689       -28.1009
  39   1.0000      -1.023015       -27.8377
  40   1.0000      -1.007420       -27.4133
  41   1.0000      -0.964090       -26.2342
  42   1.0000      -0.899770       -24.4840
  43   1.0000      -0.825242       -22.4560
  44   1.0000      -0.735836       -20.0231
  45   1.0000      -0.710185       -19.3251
  46   1.0000      -0.697147       -18.9703
  47   1.0000      -0.681716       -18.5504
  48   1.0000      -0.659149       -17.9364
  49   1.0000      -0.625505       -17.0209
  50   1.0000      -0.620430       -16.8828
  51   1.0000      -0.605729       -16.4827
  52   1.0000      -0.598709       -16.2917
  53   1.0000      -0.584570       -15.9069
  54   1.0000      -0.574899       -15.6438
  55   1.0000      -0.560926       -15.2636
  56   1.0000      -0.556525       -15.1438
  57   1.0000      -0.544779       -14.8242
  58   1.0000      -0.544347       -14.8124
  59   1.0000      -0.529250       -14.4016
  60   1.0000      -0.522118       -14.2075
  61   1.0000      -0.502710       -13.6794
  62   1.0000      -0.497660       -13.5420
  63   1.0000      -0.482992       -13.1429
  64   1.0000      -0.479848       -13.0573
  65   1.0000      -0.452442       -12.3116
  66   1.0000      -0.448429       -12.2024
  67   1.0000      -0.445731       -12.1289
  68   1.0000      -0.429797       -11.6954
  69   1.0000      -0.426255       -11.5990
  70   1.0000      -0.411239       -11.1904
  71   1.0000      -0.362378        -9.8608
  72   0.0000       0.012229         0.3328
  73   0.0000       0.022869         0.6223
  74   0.0000       0.023790         0.6474
  75   0.0000       0.030077         0.8185
  76   0.0000       0.038745         1.0543

E(0)                                       ...  -3028.458911905
E(0)                                       ...  -3028.458911905
E(CORR)(strong-pairs)                      ...     -2.867809324
E(CORR)(weak-pairs)                        ...     -0.036092125
E(CORR)(corrected)                         ...     -2.903901449
E(TOT)                                     ...  -3031.362813355
E(CCSD(T))                                 ...  -3031.481094795
FINAL SINGLE POINT ENERGY     -3031.481094795145

DIPOLE MOMENT
-------------
                                X             Y             Z
Electronic contribution:    -43.98057      -5.58398       1.03023
Nuclear contribution   :     47.53743       6.95239      -1.61870
                        -----------------------------------------
Total Dipole Moment    :      3.55685       1.36841      -0.58846
                        -----------------------------------------
Magnitude (a.u.)       :      3.85617
Magnitude (Debye)      :      9.80159

Rotational constants in cm-1:     0.019017     0.010537     0.009915
Rotational constants in MHz :   570.127898   315.880794   297.232389

                             ****ORCA TERMINATED NORMALLY****
TOTAL RUN TIME: 0 days 16 hours 34 minutes 49 seconds 739 msec
