                         Program Version 4.1.2  - RELEASE  -
|  1> ! aug-cc-pVTZ aug-cc-pVTZ/C DLPNO-CCSD(T1) TightSCF NormalPNO UNO MiniPrint AutoAux
|  2> %pal nproc 10 end
|  3> %maxcore 20000
|  4> %mdci
|  5>      density none
|  6> end
|  7>
|  8> * xyz 0 6
|  9>  O     -0.29146700     -0.24467000     -0.57475000
| 10>  C     -1.10572700     -1.20156600     -0.35900300
| 11>  C     -2.75671300     -0.25252900      0.83936000
| 12>  C     -2.97392900      0.73773800     -0.07543900
| 13>  C     -3.96571300      0.58920100     -1.18868600
| 14> Fe      1.52438900      0.18354600     -0.07882300
| 15> Cl      1.86457500      2.10819300     -1.05348900
| 16>  C     -2.19262200      2.00947800     -0.05113300
| 17> Cl      2.62220900     -1.53356500     -0.88827200
| 18> Cl      1.66284800      0.29659500      2.11260500
| 19>  H     -3.40910500     -1.12307000      0.78462800
| 20>  H     -2.69842300      2.80983100     -0.59820100
| 21>  H     -1.96615700      2.35120600      0.96174700
| 22>  H     -1.22647300      1.82710300     -0.54960300
| 23>  H     -4.77204600      1.32096000     -1.04273000
| 24>  H     -3.51514000      0.82283600     -2.16193900
| 25>  H     -4.41548800     -0.40555600     -1.22805800
| 26>  C     -2.08554100      0.00402200      2.16992100
| 27>  H     -2.66749900      0.73404000      2.74606100
| 28>  H     -2.02723500     -0.90726100      2.76819200
| 29>  H     -1.07336700      0.40245400      2.06562900
| 30>  C     -0.75727500     -2.22355500      0.69678300
| 31>  H     -1.61140700     -2.83871100      0.98581200
| 32>  H     -0.00428300     -2.87406200      0.22908600
| 33>  H     -0.29417500     -1.77004100      1.57200800
| 34>  C     -1.85454500     -1.72267000     -1.56070900
| 35>  H     -1.16928900     -2.41937900     -2.06259000
| 36>  H     -2.75770100     -2.27289100     -1.28985500
| 37>  H     -2.08594300     -0.92378800     -2.26372500
| 38> *
| 39>
| 40>
| 41>                          ****END OF INPUT****

CARTESIAN COORDINATES (ANGSTROEM)
---------------------------------
  O     -0.291467   -0.244670   -0.574750
  C     -1.105727   -1.201566   -0.359003
  C     -2.756713   -0.252529    0.839360
  C     -2.973929    0.737738   -0.075439
  C     -3.965713    0.589201   -1.188686
  Fe     1.524389    0.183546   -0.078823
  Cl     1.864575    2.108193   -1.053489
  C     -2.192622    2.009478   -0.051133
  Cl     2.622209   -1.533565   -0.888272
  Cl     1.662848    0.296595    2.112605
  H     -3.409105   -1.123070    0.784628
  H     -2.698423    2.809831   -0.598201
  H     -1.966157    2.351206    0.961747
  H     -1.226473    1.827103   -0.549603
  H     -4.772046    1.320960   -1.042730
  H     -3.515140    0.822836   -2.161939
  H     -4.415488   -0.405556   -1.228058
  C     -2.085541    0.004022    2.169921
  H     -2.667499    0.734040    2.746061
  H     -2.027235   -0.907261    2.768192
  H     -1.073367    0.402454    2.065629
  C     -0.757275   -2.223555    0.696783
  H     -1.611407   -2.838711    0.985812
  H     -0.004283   -2.874062    0.229086
  H     -0.294175   -1.770041    1.572008
  C     -1.854545   -1.722670   -1.560709
  H     -1.169289   -2.419379   -2.062590
  H     -2.757701   -2.272891   -1.289855
  H     -2.085943   -0.923788   -2.263725

ORBITAL ENERGIES
----------------
                 SPIN UP ORBITALS
  NO   OCC          E(Eh)            E(eV)
   0   1.0000    -261.565467     -7117.5582
   1   1.0000    -104.786025     -2851.3727
   2   1.0000    -104.783257     -2851.2974
   3   1.0000    -104.781545     -2851.2508
   4   1.0000     -32.233256      -877.1115
   5   1.0000     -27.709605      -754.0167
   6   1.0000     -27.708675      -753.9914
   7   1.0000     -27.708513      -753.9870
   8   1.0000     -20.597141      -560.4767
   9   1.0000     -11.412979      -310.5630
  10   1.0000     -11.302003      -307.5431
  11   1.0000     -11.270330      -306.6813
  12   1.0000     -11.266147      -306.5674
  13   1.0000     -11.262992      -306.4816
  14   1.0000     -11.259215      -306.3788
  15   1.0000     -11.244553      -305.9798
  16   1.0000     -11.241026      -305.8839
  17   1.0000     -10.512688      -286.0648
  18   1.0000     -10.509906      -285.9891
  19   1.0000     -10.508155      -285.9414
  20   1.0000      -7.979528      -217.1340
  21   1.0000      -7.978739      -217.1125
  22   1.0000      -7.978733      -217.1124
  23   1.0000      -7.976774      -217.0591
  24   1.0000      -7.976007      -217.0382
  25   1.0000      -7.975931      -217.0361
  26   1.0000      -7.974966      -217.0099
  27   1.0000      -7.974288      -216.9914
  28   1.0000      -7.974206      -216.9892
  29   1.0000      -4.588378      -124.8561
  30   1.0000      -3.201488       -87.1169
  31   1.0000      -3.199918       -87.0742
  32   1.0000      -3.199713       -87.0686
  33   1.0000      -1.440627       -39.2015
  34   1.0000      -1.149242       -31.2725
  35   1.0000      -1.091786       -29.7090
  36   1.0000      -1.058313       -28.7982
  37   1.0000      -1.052886       -28.6505
  38   1.0000      -1.050058       -28.5735
  39   1.0000      -1.031113       -28.0580
  40   1.0000      -1.000415       -27.2227
  41   1.0000      -0.977904       -26.6101
  42   1.0000      -0.934506       -25.4292
  43   1.0000      -0.917531       -24.9673
  44   1.0000      -0.917495       -24.9663
  45   1.0000      -0.908959       -24.7340
  46   1.0000      -0.906986       -24.6804
  47   1.0000      -0.906704       -24.6727
  48   1.0000      -0.803491       -21.8641
  49   1.0000      -0.747987       -20.3538
  50   1.0000      -0.698460       -19.0061
  51   1.0000      -0.688566       -18.7368
  52   1.0000      -0.683204       -18.5909
  53   1.0000      -0.670154       -18.2358
  54   1.0000      -0.637583       -17.3495
  55   1.0000      -0.622806       -16.9474
  56   1.0000      -0.604864       -16.4592
  57   1.0000      -0.596520       -16.2321
  58   1.0000      -0.583047       -15.8655
  59   1.0000      -0.573953       -15.6180
  60   1.0000      -0.571452       -15.5500
  61   1.0000      -0.560862       -15.2618
  62   1.0000      -0.555125       -15.1057
  63   1.0000      -0.541757       -14.7420
  64   1.0000      -0.536432       -14.5970
  65   1.0000      -0.525781       -14.3072
  66   1.0000      -0.511337       -13.9142
  67   1.0000      -0.492074       -13.3900
  68   1.0000      -0.471167       -12.8211
  69   1.0000      -0.465861       -12.6767
  70   1.0000      -0.439067       -11.9476
  71   1.0000      -0.433844       -11.8055
  72   1.0000      -0.431423       -11.7396
  73   1.0000      -0.423214       -11.5162
  74   1.0000      -0.421801       -11.4778
  75   1.0000      -0.420686       -11.4474
  76   1.0000      -0.371483       -10.1086
  77   0.0000       0.011016         0.2998
  78   0.0000       0.021627         0.5885
  79   0.0000       0.022779         0.6199
  80   0.0000       0.029032         0.7900
  81   0.0000       0.037844         1.0298

                 SPIN DOWN ORBITALS
  NO   OCC          E(Eh)            E(eV)
   0   1.0000    -261.561898     -7117.4611
   1   1.0000    -104.784550     -2851.3326
   2   1.0000    -104.781749     -2851.2563
   3   1.0000    -104.780035     -2851.2097
   4   1.0000     -32.071222      -872.7023
   5   1.0000     -27.549159      -749.6507
   6   1.0000     -27.549094      -749.6490
   7   1.0000     -27.548881      -749.6432
   8   1.0000     -20.593277      -560.3715
   9   1.0000     -11.412829      -310.5589
  10   1.0000     -11.301585      -307.5318
  11   1.0000     -11.270227      -306.6785
  12   1.0000     -11.266145      -306.5674
  13   1.0000     -11.263047      -306.4831
  14   1.0000     -11.259461      -306.3855
  15   1.0000     -11.244610      -305.9814
  16   1.0000     -11.241007      -305.8834
  17   1.0000     -10.511110      -286.0218
  18   1.0000     -10.508293      -285.9452
  19   1.0000     -10.506547      -285.8977
  20   1.0000      -7.977011      -217.0655
  21   1.0000      -7.976324      -217.0468
  22   1.0000      -7.976268      -217.0453
  23   1.0000      -7.974192      -216.9888
  24   1.0000      -7.973521      -216.9705
  25   1.0000      -7.973425      -216.9679
  26   1.0000      -7.972520      -216.9433
  27   1.0000      -7.971715      -216.9214
  28   1.0000      -7.971620      -216.9188
  29   1.0000      -4.146145      -112.8223
  30   1.0000      -2.667764       -72.5935
  31   1.0000      -2.667700       -72.5918
  32   1.0000      -2.667237       -72.5792
  33   1.0000      -1.430827       -38.9348
  34   1.0000      -1.148441       -31.2507
  35   1.0000      -1.089142       -29.6371
  36   1.0000      -1.043108       -28.3844
  37   1.0000      -1.032229       -28.0884
  38   1.0000      -1.029582       -28.0164
  39   1.0000      -1.028028       -27.9741
  40   1.0000      -0.999808       -27.2062
  41   1.0000      -0.977819       -26.6078
  42   1.0000      -0.909143       -24.7391
  43   1.0000      -0.818233       -22.2653
  44   1.0000      -0.748026       -20.3548
  45   1.0000      -0.701537       -19.0898
  46   1.0000      -0.687202       -18.6997
  47   1.0000      -0.682767       -18.5790
  48   1.0000      -0.670017       -18.2321
  49   1.0000      -0.637553       -17.3487
  50   1.0000      -0.622108       -16.9284
  51   1.0000      -0.604462       -16.4483
  52   1.0000      -0.596304       -16.2262
  53   1.0000      -0.582861       -15.8604
  54   1.0000      -0.572788       -15.5863
  55   1.0000      -0.571412       -15.5489
  56   1.0000      -0.560866       -15.2619
  57   1.0000      -0.555069       -15.1042
  58   1.0000      -0.539479       -14.6800
  59   1.0000      -0.536068       -14.5871
  60   1.0000      -0.515136       -14.0176
  61   1.0000      -0.511341       -13.9143
  62   1.0000      -0.491801       -13.3826
  63   1.0000      -0.476763       -12.9734
  64   1.0000      -0.474823       -12.9206
  65   1.0000      -0.447061       -12.1652
  66   1.0000      -0.443331       -12.0636
  67   1.0000      -0.441163       -12.0046
  68   1.0000      -0.426179       -11.5969
  69   1.0000      -0.421449       -11.4682
  70   1.0000      -0.406356       -11.0575
  71   1.0000      -0.370204       -10.0738
  72   0.0000       0.011009         0.2996
  73   0.0000       0.021613         0.5881
  74   0.0000       0.022760         0.6193
  75   0.0000       0.028860         0.7853
  76   0.0000       0.037156         1.0111

E(0)                                       ...  -3028.443860581
E(0)                                       ...  -3028.443860581
E(CORR)(strong-pairs)                      ...     -2.872319274
E(CORR)(weak-pairs)                        ...     -0.035366598
E(CORR)(corrected)                         ...     -2.907685872
E(TOT)                                     ...  -3031.351546453
E(CCSD(T))                                 ...  -3031.471082284
FINAL SINGLE POINT ENERGY     -3031.471082283853

DIPOLE MOMENT
-------------
                                X             Y             Z
Electronic contribution:     44.34285       5.82534      -1.14833
Nuclear contribution   :    -48.49316      -6.95558       0.92938
                        -----------------------------------------
Total Dipole Moment    :     -4.15031      -1.13025      -0.21895
                        -----------------------------------------
Magnitude (a.u.)       :      4.30703
Magnitude (Debye)      :     10.94759

Rotational constants in cm-1:     0.019454     0.010225     0.009755
Rotational constants in MHz :   583.209937   306.525549   292.449964

                             ****ORCA TERMINATED NORMALLY****
TOTAL RUN TIME: 0 days 18 hours 16 minutes 16 seconds 719 msec
