                         Program Version 4.1.2  - RELEASE  -
|  1> ! aug-cc-pVTZ aug-cc-pVTZ/C DLPNO-CCSD(T1) TightSCF NormalPNO UNO MiniPrint AutoAux
|  2> %pal nproc 10 end
|  3> %maxcore 20000
|  4> %mdci
|  5>      density none
|  6> end
|  7>
|  8> * xyz 0 6
|  9>  O     -0.33275900     -0.13132800     -0.67509200
| 10>  C     -1.26186600     -1.05843000     -0.57172400
| 11>  C     -2.87266000     -0.20666800      0.25280400
| 12>  C     -2.37075500      1.02156200     -0.14842300
| 13>  C     -2.61815300      1.57575700     -1.50834800
| 14> Fe      1.40748900      0.09017600      0.01417800
| 15> Cl      1.98368300      2.08108600     -0.72207300
| 16>  C     -1.55995600      1.88502600      0.74928300
| 17> Cl      2.57242800     -1.60730400     -0.75647700
| 18> Cl      1.22154100      0.02954600      2.22923200
| 19>  H     -3.63175600     -0.63856100     -0.39632600
| 20>  H     -2.25449300      2.60572200      1.21014500
| 21>  H     -1.06687400      1.34066400      1.55361600
| 22>  H     -0.81473500      2.45627900      0.18902100
| 23>  H     -2.95781700      2.61454500     -1.41060600
| 24>  H     -1.66481000      1.61226100     -2.05124000
| 25>  H     -3.35741700      1.01387300     -2.08111200
| 26>  C     -3.01597900     -0.57089900      1.71684000
| 27>  H     -3.84741600     -0.00450000      2.15419600
| 28>  H     -3.24670900     -1.63160100      1.83649100
| 29>  H     -2.12016700     -0.35108500      2.30132600
| 30>  C     -0.98461200     -2.18578300      0.40122300
| 31>  H     -1.82594600     -2.87536800      0.49375900
| 32>  H     -0.13258900     -2.73261400     -0.02567000
| 33>  H     -0.67738000     -1.82199000      1.38121800
| 34>  C     -1.79651100     -1.53370500     -1.91200500
| 35>  H     -0.97496200     -2.09165600     -2.37850400
| 36>  H     -2.65494200     -2.20147800     -1.80660800
| 37>  H     -2.04177800     -0.70619300     -2.57708500
| 38> *
| 39>
| 40>
| 41>                          ****END OF INPUT****

CARTESIAN COORDINATES (ANGSTROEM)
---------------------------------
  O     -0.332759   -0.131328   -0.675092
  C     -1.261866   -1.058430   -0.571724
  C     -2.872660   -0.206668    0.252804
  C     -2.370755    1.021562   -0.148423
  C     -2.618153    1.575757   -1.508348
  Fe     1.407489    0.090176    0.014178
  Cl     1.983683    2.081086   -0.722073
  C     -1.559956    1.885026    0.749283
  Cl     2.572428   -1.607304   -0.756477
  Cl     1.221541    0.029546    2.229232
  H     -3.631756   -0.638561   -0.396326
  H     -2.254493    2.605722    1.210145
  H     -1.066874    1.340664    1.553616
  H     -0.814735    2.456279    0.189021
  H     -2.957817    2.614545   -1.410606
  H     -1.664810    1.612261   -2.051240
  H     -3.357417    1.013873   -2.081112
  C     -3.015979   -0.570899    1.716840
  H     -3.847416   -0.004500    2.154196
  H     -3.246709   -1.631601    1.836491
  H     -2.120167   -0.351085    2.301326
  C     -0.984612   -2.185783    0.401223
  H     -1.825946   -2.875368    0.493759
  H     -0.132589   -2.732614   -0.025670
  H     -0.677380   -1.821990    1.381218
  C     -1.796511   -1.533705   -1.912005
  H     -0.974962   -2.091656   -2.378504
  H     -2.654942   -2.201478   -1.806608
  H     -2.041778   -0.706193   -2.577085

ORBITAL ENERGIES
----------------
                 SPIN UP ORBITALS
  NO   OCC          E(Eh)            E(eV)
   0   1.0000    -261.553968     -7117.2453
   1   1.0000    -104.779314     -2851.1901
   2   1.0000    -104.776209     -2851.1056
   3   1.0000    -104.775256     -2851.0797
   4   1.0000     -32.221851      -876.8012
   5   1.0000     -27.697842      -753.6966
   6   1.0000     -27.697499      -753.6873
   7   1.0000     -27.697283      -753.6814
   8   1.0000     -20.559086      -559.4412
   9   1.0000     -11.391799      -309.9866
  10   1.0000     -11.353389      -308.9414
  11   1.0000     -11.275728      -306.8281
  12   1.0000     -11.273264      -306.7611
  13   1.0000     -11.258877      -306.3696
  14   1.0000     -11.257687      -306.3372
  15   1.0000     -11.255610      -306.2807
  16   1.0000     -11.250097      -306.1307
  17   1.0000     -10.505922      -285.8807
  18   1.0000     -10.502774      -285.7950
  19   1.0000     -10.501850      -285.7699
  20   1.0000      -7.972809      -216.9512
  21   1.0000      -7.971949      -216.9278
  22   1.0000      -7.971911      -216.9267
  23   1.0000      -7.969586      -216.8635
  24   1.0000      -7.968878      -216.8442
  25   1.0000      -7.968799      -216.8421
  26   1.0000      -7.968694      -216.8392
  27   1.0000      -7.967949      -216.8189
  28   1.0000      -7.967874      -216.8169
  29   1.0000      -4.577172      -124.5512
  30   1.0000      -3.189807       -86.7991
  31   1.0000      -3.189166       -86.7816
  32   1.0000      -3.188717       -86.7694
  33   1.0000      -1.403624       -38.1946
  34   1.0000      -1.173591       -31.9350
  35   1.0000      -1.085305       -29.5326
  36   1.0000      -1.050253       -28.5788
  37   1.0000      -1.044803       -28.4305
  38   1.0000      -1.042416       -28.3656
  39   1.0000      -1.041920       -28.3521
  40   1.0000      -0.997660       -27.1477
  41   1.0000      -0.983865       -26.7723
  42   1.0000      -0.930935       -25.3320
  43   1.0000      -0.918187       -24.9851
  44   1.0000      -0.906608       -24.6700
  45   1.0000      -0.906486       -24.6667
  46   1.0000      -0.897613       -24.4253
  47   1.0000      -0.897106       -24.4115
  48   1.0000      -0.787546       -21.4302
  49   1.0000      -0.762427       -20.7467
  50   1.0000      -0.696231       -18.9454
  51   1.0000      -0.692909       -18.8550
  52   1.0000      -0.675765       -18.3885
  53   1.0000      -0.657310       -17.8863
  54   1.0000      -0.648371       -17.6431
  55   1.0000      -0.624489       -16.9932
  56   1.0000      -0.601422       -16.3655
  57   1.0000      -0.594135       -16.1672
  58   1.0000      -0.587742       -15.9933
  59   1.0000      -0.577792       -15.7225
  60   1.0000      -0.573733       -15.6121
  61   1.0000      -0.562889       -15.3170
  62   1.0000      -0.553882       -15.0719
  63   1.0000      -0.551967       -15.0198
  64   1.0000      -0.539710       -14.6863
  65   1.0000      -0.525471       -14.2988
  66   1.0000      -0.515109       -14.0168
  67   1.0000      -0.478421       -13.0185
  68   1.0000      -0.463869       -12.6225
  69   1.0000      -0.455565       -12.3966
  70   1.0000      -0.430298       -11.7090
  71   1.0000      -0.427483       -11.6324
  72   1.0000      -0.425806       -11.5868
  73   1.0000      -0.417070       -11.3491
  74   1.0000      -0.415819       -11.3150
  75   1.0000      -0.414853       -11.2887
  76   1.0000      -0.386547       -10.5185
  77   0.0000       0.009135         0.2486
  78   0.0000       0.019974         0.5435
  79   0.0000       0.021506         0.5852
  80   0.0000       0.029052         0.7905
  81   0.0000       0.033200         0.9034

                 SPIN DOWN ORBITALS
  NO   OCC          E(Eh)            E(eV)
   0   1.0000    -261.550421     -7117.1488
   1   1.0000    -104.777960     -2851.1532
   2   1.0000    -104.774817     -2851.0677
   3   1.0000    -104.773802     -2851.0401
   4   1.0000     -32.059788      -872.3912
   5   1.0000     -27.537817      -749.3421
   6   1.0000     -27.537696      -749.3388
   7   1.0000     -27.537273      -749.3273
   8   1.0000     -20.554003      -559.3029
   9   1.0000     -11.391770      -309.9858
  10   1.0000     -11.353322      -308.9396
  11   1.0000     -11.275517      -306.8224
  12   1.0000     -11.273268      -306.7612
  13   1.0000     -11.258911      -306.3706
  14   1.0000     -11.257577      -306.3342
  15   1.0000     -11.255632      -306.2813
  16   1.0000     -11.250067      -306.1299
  17   1.0000     -10.504465      -285.8410
  18   1.0000     -10.501286      -285.7545
  19   1.0000     -10.500294      -285.7275
  20   1.0000      -7.970326      -216.8836
  21   1.0000      -7.969828      -216.8700
  22   1.0000      -7.969750      -216.8679
  23   1.0000      -7.967265      -216.8003
  24   1.0000      -7.966554      -216.7810
  25   1.0000      -7.966464      -216.7785
  26   1.0000      -7.966223      -216.7719
  27   1.0000      -7.965540      -216.7534
  28   1.0000      -7.965459      -216.7512
  29   1.0000      -4.134862      -112.5153
  30   1.0000      -2.656603       -72.2898
  31   1.0000      -2.656589       -72.2895
  32   1.0000      -2.655777       -72.2674
  33   1.0000      -1.390655       -37.8417
  34   1.0000      -1.172621       -31.9086
  35   1.0000      -1.082595       -29.4589
  36   1.0000      -1.041304       -28.3353
  37   1.0000      -1.035976       -28.1903
  38   1.0000      -1.024326       -27.8733
  39   1.0000      -1.021734       -27.8028
  40   1.0000      -0.997359       -27.1395
  41   1.0000      -0.983182       -26.7537
  42   1.0000      -0.928215       -25.2580
  43   1.0000      -0.799943       -21.7676
  44   1.0000      -0.763380       -20.7726
  45   1.0000      -0.696859       -18.9625
  46   1.0000      -0.692201       -18.8357
  47   1.0000      -0.677456       -18.4345
  48   1.0000      -0.656948       -17.8765
  49   1.0000      -0.647802       -17.6276
  50   1.0000      -0.624187       -16.9850
  51   1.0000      -0.600430       -16.3385
  52   1.0000      -0.594305       -16.1718
  53   1.0000      -0.587562       -15.9884
  54   1.0000      -0.577372       -15.7111
  55   1.0000      -0.573582       -15.6080
  56   1.0000      -0.562787       -15.3142
  57   1.0000      -0.553410       -15.0591
  58   1.0000      -0.551377       -15.0037
  59   1.0000      -0.534378       -14.5412
  60   1.0000      -0.525338       -14.2952
  61   1.0000      -0.506414       -13.7802
  62   1.0000      -0.476643       -12.9701
  63   1.0000      -0.468500       -12.7485
  64   1.0000      -0.465103       -12.6561
  65   1.0000      -0.439455       -11.9582
  66   1.0000      -0.436503       -11.8778
  67   1.0000      -0.434872       -11.8335
  68   1.0000      -0.422496       -11.4967
  69   1.0000      -0.414915       -11.2904
  70   1.0000      -0.401663       -10.9298
  71   1.0000      -0.382979       -10.4214
  72   0.0000       0.009133         0.2485
  73   0.0000       0.019936         0.5425
  74   0.0000       0.021488         0.5847
  75   0.0000       0.028937         0.7874
  76   0.0000       0.032920         0.8958

E(0)                                       ...  -3028.425196508
E(0)                                       ...  -3028.425196508
E(CORR)(strong-pairs)                      ...     -2.873276864
E(CORR)(weak-pairs)                        ...     -0.036268004
E(CORR)(corrected)                         ...     -2.909544869
E(TOT)                                     ...  -3031.334741376
E(CCSD(T))                                 ...  -3031.454454597
FINAL SINGLE POINT ENERGY     -3031.454454596605

DIPOLE MOMENT
-------------
                                X             Y             Z
Electronic contribution:     40.65173       4.13508       2.12341
Nuclear contribution   :    -45.21453      -4.31553      -2.64608
                        -----------------------------------------
Total Dipole Moment    :     -4.56280      -0.18045      -0.52267
                        -----------------------------------------
Magnitude (a.u.)       :      4.59619
Magnitude (Debye)      :     11.68257

Rotational constants in cm-1:     0.019149     0.011493     0.010736
Rotational constants in MHz :   574.061225   344.544773   321.851934

                             ****ORCA TERMINATED NORMALLY****
TOTAL RUN TIME: 0 days 22 hours 23 minutes 2 seconds 30 msec
