                         Program Version 4.1.2  - RELEASE  -
|  1> ! aug-cc-pVTZ aug-cc-pVTZ/C DLPNO-CCSD(T1) TightSCF NormalPNO UNO MiniPrint AutoAux
|  2> %pal nproc 10 end
|  3> %maxcore 20000
|  4> %mdci
|  5>      density none
|  6> end
|  7>
|  8> * xyz 0 6
|  9>  O      0.16160800      0.44696800     -0.88718100
| 10>  C      0.90984200      1.42309500     -0.66649200
| 11>  C      3.15693800      0.05976800      0.55902800
| 12>  C      2.68594600     -0.92846300     -0.22502200
| 13>  C      3.13387800     -1.07232300     -1.65588900
| 14> Fe     -1.49040200     -0.17792100      0.01926200
| 15> Cl     -2.06313100     -1.96917500     -1.06680400
| 16>  C      1.74334800     -2.00408400      0.23450600
| 17> Cl     -2.76907500      1.57176000     -0.28029700
| 18> Cl     -1.03326600     -0.50603600      2.13775800
| 19>  H      3.88436400      0.74241600      0.11681600
| 20>  H      2.24682800     -2.97965900      0.19789800
| 21>  H      1.36708200     -1.85643000      1.24650800
| 22>  H      0.88430600     -2.08118600     -0.44388100
| 23>  H      3.64062300     -2.03578700     -1.79917700
| 24>  H      2.27259600     -1.07465500     -2.33715700
| 25>  H      3.82580600     -0.28087700     -1.95924500
| 26>  C      2.92444400      0.24061400      2.03410800
| 27>  H      3.75642400     -0.19057900      2.60788300
| 28>  H      2.87984800      1.30155100      2.30417600
| 29>  H      2.00353900     -0.23333600      2.38241800
| 30>  C      0.77035900      2.24264800      0.57600200
| 31>  H      1.64744500      2.86570300      0.75540000
| 32>  H     -0.10160500      2.89610500      0.42371200
| 33>  H      0.55697700      1.61678700      1.44365500
| 34>  C      1.75562900      1.94216100     -1.78630200
| 35>  H      1.23047400      2.81740300     -2.19646500
| 36>  H      2.73041800      2.28077200     -1.43092400
| 37>  H      1.86317600      1.20014000     -2.57580600
| 38> *
| 39>
| 40>
| 41>                          ****END OF INPUT****

CARTESIAN COORDINATES (ANGSTROEM)
---------------------------------
  O      0.161608    0.446968   -0.887181
  C      0.909842    1.423095   -0.666492
  C      3.156938    0.059768    0.559028
  C      2.685946   -0.928463   -0.225022
  C      3.133878   -1.072323   -1.655889
  Fe    -1.490402   -0.177921    0.019262
  Cl    -2.063131   -1.969175   -1.066804
  C      1.743348   -2.004084    0.234506
  Cl    -2.769075    1.571760   -0.280297
  Cl    -1.033266   -0.506036    2.137758
  H      3.884364    0.742416    0.116816
  H      2.246828   -2.979659    0.197898
  H      1.367082   -1.856430    1.246508
  H      0.884306   -2.081186   -0.443881
  H      3.640623   -2.035787   -1.799177
  H      2.272596   -1.074655   -2.337157
  H      3.825806   -0.280877   -1.959245
  C      2.924444    0.240614    2.034108
  H      3.756424   -0.190579    2.607883
  H      2.879848    1.301551    2.304176
  H      2.003539   -0.233336    2.382418
  C      0.770359    2.242648    0.576002
  H      1.647445    2.865703    0.755400
  H     -0.101605    2.896105    0.423712
  H      0.556977    1.616787    1.443655
  C      1.755629    1.942161   -1.786302
  H      1.230474    2.817403   -2.196465
  H      2.730418    2.280772   -1.430924
  H      1.863176    1.200140   -2.575806

ORBITAL ENERGIES
----------------
                 SPIN UP ORBITALS
  NO   OCC          E(Eh)            E(eV)
   0   1.0000    -261.578814     -7117.9214
   1   1.0000    -104.795907     -2851.6416
   2   1.0000    -104.792829     -2851.5579
   3   1.0000    -104.790795     -2851.5025
   4   1.0000     -32.246475      -877.4712
   5   1.0000     -27.723024      -754.3818
   6   1.0000     -27.721776      -754.3479
   7   1.0000     -27.721576      -754.3424
   8   1.0000     -20.628221      -561.3224
   9   1.0000     -11.422324      -310.8172
  10   1.0000     -11.279762      -306.9379
  11   1.0000     -11.273979      -306.7806
  12   1.0000     -11.258518      -306.3599
  13   1.0000     -11.239865      -305.8523
  14   1.0000     -11.238767      -305.8224
  15   1.0000     -11.234139      -305.6965
  16   1.0000     -11.225753      -305.4683
  17   1.0000     -10.522648      -286.3358
  18   1.0000     -10.519533      -286.2511
  19   1.0000     -10.517449      -286.1943
  20   1.0000      -7.989467      -217.4045
  21   1.0000      -7.988737      -217.3846
  22   1.0000      -7.988679      -217.3830
  23   1.0000      -7.986419      -217.3215
  24   1.0000      -7.985628      -217.3000
  25   1.0000      -7.985575      -217.2986
  26   1.0000      -7.984230      -217.2619
  27   1.0000      -7.983582      -217.2443
  28   1.0000      -7.983538      -217.2431
  29   1.0000      -4.601235      -125.2060
  30   1.0000      -3.214414       -87.4686
  31   1.0000      -3.212570       -87.4185
  32   1.0000      -3.212440       -87.4149
  33   1.0000      -1.471422       -40.0394
  34   1.0000      -1.119332       -30.4586
  35   1.0000      -1.103421       -30.0256
  36   1.0000      -1.069415       -29.1003
  37   1.0000      -1.063567       -28.9411
  38   1.0000      -1.060700       -28.8631
  39   1.0000      -1.020942       -27.7813
  40   1.0000      -1.008742       -27.4493
  41   1.0000      -0.953709       -25.9517
  42   1.0000      -0.945032       -25.7156
  43   1.0000      -0.930077       -25.3087
  44   1.0000      -0.929927       -25.3046
  45   1.0000      -0.919003       -25.0073
  46   1.0000      -0.918384       -24.9905
  47   1.0000      -0.891336       -24.2545
  48   1.0000      -0.817639       -22.2491
  49   1.0000      -0.723947       -19.6996
  50   1.0000      -0.716417       -19.4947
  51   1.0000      -0.706205       -19.2168
  52   1.0000      -0.684471       -18.6254
  53   1.0000      -0.649903       -17.6848
  54   1.0000      -0.621428       -16.9099
  55   1.0000      -0.616418       -16.7736
  56   1.0000      -0.604230       -16.4419
  57   1.0000      -0.599939       -16.3252
  58   1.0000      -0.586465       -15.9585
  59   1.0000      -0.580324       -15.7914
  60   1.0000      -0.561222       -15.2716
  61   1.0000      -0.548049       -14.9132
  62   1.0000      -0.546401       -14.8683
  63   1.0000      -0.538084       -14.6420
  64   1.0000      -0.536108       -14.5883
  65   1.0000      -0.522562       -14.2196
  66   1.0000      -0.506739       -13.7891
  67   1.0000      -0.488213       -13.2850
  68   1.0000      -0.479009       -13.0345
  69   1.0000      -0.478352       -13.0166
  70   1.0000      -0.449088       -12.2203
  71   1.0000      -0.442582       -12.0433
  72   1.0000      -0.440742       -11.9932
  73   1.0000      -0.432172       -11.7600
  74   1.0000      -0.431212       -11.7339
  75   1.0000      -0.429922       -11.6988
  76   1.0000      -0.355648        -9.6777
  77   0.0000       0.012698         0.3455
  78   0.0000       0.023947         0.6516
  79   0.0000       0.024781         0.6743
  80   0.0000       0.030921         0.8414
  81   0.0000       0.039494         1.0747

                 SPIN DOWN ORBITALS
  NO   OCC          E(Eh)            E(eV)
   0   1.0000    -261.575224     -7117.8237
   1   1.0000    -104.794403     -2851.6007
   2   1.0000    -104.791262     -2851.5152
   3   1.0000    -104.789212     -2851.4594
   4   1.0000     -32.084506      -873.0638
   5   1.0000     -27.562465      -750.0128
   6   1.0000     -27.562323      -750.0089
   7   1.0000     -27.562251      -750.0070
   8   1.0000     -20.624886      -561.2317
   9   1.0000     -11.422265      -310.8156
  10   1.0000     -11.279657      -306.9351
  11   1.0000     -11.273972      -306.7804
  12   1.0000     -11.258559      -306.3610
  13   1.0000     -11.239811      -305.8508
  14   1.0000     -11.238762      -305.8222
  15   1.0000     -11.234144      -305.6966
  16   1.0000     -11.225760      -305.4685
  17   1.0000     -10.521042      -286.2921
  18   1.0000     -10.517861      -286.2055
  19   1.0000     -10.515768      -286.1486
  20   1.0000      -7.986974      -217.3366
  21   1.0000      -7.986198      -217.3155
  22   1.0000      -7.986162      -217.3145
  23   1.0000      -7.983733      -217.2484
  24   1.0000      -7.983050      -217.2298
  25   1.0000      -7.982957      -217.2273
  26   1.0000      -7.981766      -217.1949
  27   1.0000      -7.980839      -217.1697
  28   1.0000      -7.980757      -217.1675
  29   1.0000      -4.159227      -113.1783
  30   1.0000      -2.680761       -72.9472
  31   1.0000      -2.680722       -72.9462
  32   1.0000      -2.680311       -72.9350
  33   1.0000      -1.463351       -39.8198
  34   1.0000      -1.119034       -30.4505
  35   1.0000      -1.101254       -29.9666
  36   1.0000      -1.053576       -28.6693
  37   1.0000      -1.040937       -28.3253
  38   1.0000      -1.037708       -28.2375
  39   1.0000      -1.019951       -27.7543
  40   1.0000      -1.008544       -27.4439
  41   1.0000      -0.953573       -25.9480
  42   1.0000      -0.891403       -24.2563
  43   1.0000      -0.829943       -22.5839
  44   1.0000      -0.724049       -19.7024
  45   1.0000      -0.717905       -19.5352
  46   1.0000      -0.705480       -19.1971
  47   1.0000      -0.683923       -18.6105
  48   1.0000      -0.649861       -17.6836
  49   1.0000      -0.620839       -16.8939
  50   1.0000      -0.616342       -16.7715
  51   1.0000      -0.604103       -16.4385
  52   1.0000      -0.599869       -16.3233
  53   1.0000      -0.586172       -15.9506
  54   1.0000      -0.578850       -15.7513
  55   1.0000      -0.560381       -15.2488
  56   1.0000      -0.547418       -14.8960
  57   1.0000      -0.544437       -14.8149
  58   1.0000      -0.536135       -14.5890
  59   1.0000      -0.527466       -14.3531
  60   1.0000      -0.522254       -14.2113
  61   1.0000      -0.508695       -13.8423
  62   1.0000      -0.488764       -13.3000
  63   1.0000      -0.486593       -13.2409
  64   1.0000      -0.484848       -13.1934
  65   1.0000      -0.456045       -12.4096
  66   1.0000      -0.452927       -12.3248
  67   1.0000      -0.449783       -12.2392
  68   1.0000      -0.433321       -11.7913
  69   1.0000      -0.431418       -11.7395
  70   1.0000      -0.415176       -11.2975
  71   1.0000      -0.355313        -9.6686
  72   0.0000       0.012681         0.3451
  73   0.0000       0.023923         0.6510
  74   0.0000       0.024741         0.6732
  75   0.0000       0.030871         0.8400
  76   0.0000       0.039420         1.0727

E(0)                                       ...  -3028.474002227
E(0)                                       ...  -3028.474002227
E(CORR)(strong-pairs)                      ...     -2.864671064
E(CORR)(weak-pairs)                        ...     -0.035365810
E(CORR)(corrected)                         ...     -2.900036874
E(TOT)                                     ...  -3031.374039101
E(CCSD(T))                                 ...  -3031.491480360
FINAL SINGLE POINT ENERGY     -3031.491480360445

DIPOLE MOMENT
-------------
                                X             Y             Z
Electronic contribution:    -43.91281      -5.08113       1.77456
Nuclear contribution   :     47.00542       6.71452      -2.39248
                        -----------------------------------------
Total Dipole Moment    :      3.09261       1.63339      -0.61792
                        -----------------------------------------
Magnitude (a.u.)       :      3.55162
Magnitude (Debye)      :      9.02750

Rotational constants in cm-1:     0.018677     0.010569     0.009952
Rotational constants in MHz :   559.919756   316.845362   298.342893

                             ****ORCA TERMINATED NORMALLY****
TOTAL RUN TIME: 0 days 15 hours 34 minutes 52 seconds 448 msec
