                         Program Version 4.1.2  - RELEASE  -
|  1> ! aug-cc-pVTZ aug-cc-pVTZ/C DLPNO-CCSD(T1) TightSCF NormalPNO UNO MiniPrint AutoAux
|  2> %pal nproc 10 end
|  3> %maxcore 20000
|  4> %mdci
|  5>      density none
|  6> end
|  7>
|  8> * xyz 0 6
|  9>  O     -0.40531100     -0.17507800     -0.50837000
| 10>  C     -1.38200700     -1.21622200     -0.37642400
| 11>  C     -2.84757900     -0.10472200     -0.17853300
| 12>  C     -1.98598100      1.11081700     -0.28372100
| 13>  C     -1.87807000      1.81129000     -1.58849300
| 14> Fe      1.37836400      0.04939800      0.04291400
| 15> Cl      1.84005700      2.02444400     -0.84060400
| 16>  C     -1.57136700      1.85930900      0.92910100
| 17> Cl      2.47559400     -1.68878200     -0.72452700
| 18> Cl      1.34939100      0.14981100      2.25507800
| 19>  H     -3.44898200     -0.23486300     -1.08031100
| 20>  H     -2.42998200      2.48518000      1.22187900
| 21>  H     -1.33347200      1.20536100      1.76844400
| 22>  H     -0.72200300      2.51388100      0.72372900
| 23>  H     -2.66194400      2.58641200     -1.59916400
| 24>  H     -0.90819800      2.30469800     -1.69068100
| 25>  H     -2.05375900      1.14030400     -2.43079200
| 26>  C     -3.65707800     -0.31789400      1.08564900
| 27>  H     -4.44879900      0.43529200      1.18428400
| 28>  H     -4.14155500     -1.29829900      1.05156100
| 29>  H     -3.04440800     -0.28146000      1.98945600
| 30>  C     -1.16578800     -2.07076300      0.84691600
| 31>  H     -1.98243100     -2.78755800      0.97648900
| 32>  H     -0.23411300     -2.63571900      0.71372800
| 33>  H     -1.05705000     -1.47039500      1.75182000
| 34>  C     -1.49710000     -1.99280100     -1.66595900
| 35>  H     -0.54384900     -2.50462600     -1.84794300
| 36>  H     -2.29414800     -2.74137800     -1.60871400
| 37>  H     -1.68615600     -1.32767500     -2.51289200
| 38> *
| 39>
| 40>
| 41>                          ****END OF INPUT****

CARTESIAN COORDINATES (ANGSTROEM)
---------------------------------
  O     -0.405311   -0.175078   -0.508370
  C     -1.382007   -1.216222   -0.376424
  C     -2.847579   -0.104722   -0.178533
  C     -1.985981    1.110817   -0.283721
  C     -1.878070    1.811290   -1.588493
  Fe     1.378364    0.049398    0.042914
  Cl     1.840057    2.024444   -0.840604
  C     -1.571367    1.859309    0.929101
  Cl     2.475594   -1.688782   -0.724527
  Cl     1.349391    0.149811    2.255078
  H     -3.448982   -0.234863   -1.080311
  H     -2.429982    2.485180    1.221879
  H     -1.333472    1.205361    1.768444
  H     -0.722003    2.513881    0.723729
  H     -2.661944    2.586412   -1.599164
  H     -0.908198    2.304698   -1.690681
  H     -2.053759    1.140304   -2.430792
  C     -3.657078   -0.317894    1.085649
  H     -4.448799    0.435292    1.184284
  H     -4.141555   -1.298299    1.051561
  H     -3.044408   -0.281460    1.989456
  C     -1.165788   -2.070763    0.846916
  H     -1.982431   -2.787558    0.976489
  H     -0.234113   -2.635719    0.713728
  H     -1.057050   -1.470395    1.751820
  C     -1.497100   -1.992801   -1.665959
  H     -0.543849   -2.504626   -1.847943
  H     -2.294148   -2.741378   -1.608714
  H     -1.686156   -1.327675   -2.512892

ORBITAL ENERGIES
----------------
                 SPIN UP ORBITALS
  NO   OCC          E(Eh)            E(eV)
   0   1.0000    -261.550603     -7117.1537
   1   1.0000    -104.778179     -2851.1592
   2   1.0000    -104.776145     -2851.1039
   3   1.0000    -104.774975     -2851.0720
   4   1.0000     -32.218517      -876.7104
   5   1.0000     -27.694442      -753.6041
   6   1.0000     -27.694223      -753.5981
   7   1.0000     -27.693935      -753.5903
   8   1.0000     -20.560993      -559.4931
   9   1.0000     -11.400404      -310.2208
  10   1.0000     -11.353976      -308.9574
  11   1.0000     -11.289550      -307.2043
  12   1.0000     -11.276328      -306.8445
  13   1.0000     -11.273768      -306.7748
  14   1.0000     -11.260821      -306.4225
  15   1.0000     -11.241362      -305.8930
  16   1.0000     -11.238515      -305.8155
  17   1.0000     -10.504753      -285.8489
  18   1.0000     -10.502789      -285.7954
  19   1.0000     -10.501581      -285.7626
  20   1.0000      -7.971576      -216.9176
  21   1.0000      -7.970838      -216.8975
  22   1.0000      -7.970766      -216.8956
  23   1.0000      -7.969676      -216.8659
  24   1.0000      -7.968837      -216.8431
  25   1.0000      -7.968795      -216.8419
  26   1.0000      -7.968381      -216.8307
  27   1.0000      -7.967695      -216.8120
  28   1.0000      -7.967625      -216.8101
  29   1.0000      -4.573911      -124.4624
  30   1.0000      -3.186356       -86.7052
  31   1.0000      -3.186079       -86.6976
  32   1.0000      -3.185467       -86.6810
  33   1.0000      -1.362396       -37.0727
  34   1.0000      -1.167203       -31.7612
  35   1.0000      -1.083586       -29.4859
  36   1.0000      -1.049507       -28.5585
  37   1.0000      -1.043687       -28.4002
  38   1.0000      -1.042226       -28.3604
  39   1.0000      -1.039151       -28.2767
  40   1.0000      -1.009637       -27.4736
  41   1.0000      -0.969381       -26.3782
  42   1.0000      -0.927840       -25.2478
  43   1.0000      -0.905325       -24.6351
  44   1.0000      -0.903398       -24.5827
  45   1.0000      -0.902676       -24.5631
  46   1.0000      -0.894951       -24.3529
  47   1.0000      -0.894388       -24.3375
  48   1.0000      -0.789672       -21.4881
  49   1.0000      -0.759020       -20.6540
  50   1.0000      -0.695104       -18.9147
  51   1.0000      -0.685945       -18.6655
  52   1.0000      -0.668605       -18.1937
  53   1.0000      -0.640306       -17.4236
  54   1.0000      -0.627094       -17.0641
  55   1.0000      -0.626398       -17.0451
  56   1.0000      -0.597285       -16.2529
  57   1.0000      -0.596374       -16.2282
  58   1.0000      -0.590748       -16.0751
  59   1.0000      -0.580185       -15.7876
  60   1.0000      -0.573164       -15.5966
  61   1.0000      -0.559431       -15.2229
  62   1.0000      -0.547609       -14.9012
  63   1.0000      -0.538939       -14.6653
  64   1.0000      -0.533347       -14.5131
  65   1.0000      -0.523582       -14.2474
  66   1.0000      -0.507245       -13.8028
  67   1.0000      -0.480469       -13.0742
  68   1.0000      -0.464401       -12.6370
  69   1.0000      -0.453163       -12.3312
  70   1.0000      -0.433620       -11.7994
  71   1.0000      -0.427729       -11.6391
  72   1.0000      -0.424275       -11.5451
  73   1.0000      -0.418092       -11.3769
  74   1.0000      -0.415391       -11.3034
  75   1.0000      -0.414217       -11.2714
  76   1.0000      -0.398591       -10.8462
  77   0.0000       0.008326         0.2266
  78   0.0000       0.020291         0.5521
  79   0.0000       0.022544         0.6135
  80   0.0000       0.030907         0.8410
  81   0.0000       0.037413         1.0181

                 SPIN DOWN ORBITALS
  NO   OCC          E(Eh)            E(eV)
   0   1.0000    -261.547052     -7117.0571
   1   1.0000    -104.776843     -2851.1229
   2   1.0000    -104.774757     -2851.0661
   3   1.0000    -104.773524     -2851.0325
   4   1.0000     -32.056549      -872.3030
   5   1.0000     -27.534587      -749.2542
   6   1.0000     -27.534420      -749.2497
   7   1.0000     -27.534002      -749.2383
   8   1.0000     -20.555530      -559.3444
   9   1.0000     -11.400450      -310.2220
  10   1.0000     -11.353865      -308.9544
  11   1.0000     -11.289332      -307.1983
  12   1.0000     -11.276308      -306.8439
  13   1.0000     -11.273777      -306.7751
  14   1.0000     -11.260827      -306.4227
  15   1.0000     -11.241314      -305.8917
  16   1.0000     -11.238499      -305.8151
  17   1.0000     -10.503320      -285.8099
  18   1.0000     -10.501297      -285.7548
  19   1.0000     -10.500030      -285.7203
  20   1.0000      -7.969280      -216.8551
  21   1.0000      -7.968644      -216.8378
  22   1.0000      -7.968573      -216.8359
  23   1.0000      -7.967187      -216.7982
  24   1.0000      -7.966624      -216.7828
  25   1.0000      -7.966556      -216.7810
  26   1.0000      -7.966008      -216.7661
  27   1.0000      -7.965236      -216.7451
  28   1.0000      -7.965180      -216.7436
  29   1.0000      -4.131845      -112.4332
  30   1.0000      -2.653741       -72.2120
  31   1.0000      -2.653606       -72.2083
  32   1.0000      -2.652748       -72.1850
  33   1.0000      -1.348003       -36.6810
  34   1.0000      -1.165871       -31.7250
  35   1.0000      -1.080920       -29.4133
  36   1.0000      -1.038104       -28.2482
  37   1.0000      -1.034826       -28.1590
  38   1.0000      -1.023941       -27.8629
  39   1.0000      -1.021782       -27.8041
  40   1.0000      -1.009294       -27.4643
  41   1.0000      -0.968801       -26.3624
  42   1.0000      -0.921669       -25.0799
  43   1.0000      -0.793283       -21.5863
  44   1.0000      -0.763240       -20.7688
  45   1.0000      -0.695201       -18.9174
  46   1.0000      -0.685502       -18.6535
  47   1.0000      -0.669319       -18.2131
  48   1.0000      -0.641527       -17.4568
  49   1.0000      -0.626848       -17.0574
  50   1.0000      -0.624909       -17.0046
  51   1.0000      -0.597146       -16.2492
  52   1.0000      -0.595608       -16.2073
  53   1.0000      -0.590717       -16.0742
  54   1.0000      -0.578323       -15.7370
  55   1.0000      -0.572869       -15.5885
  56   1.0000      -0.559342       -15.2205
  57   1.0000      -0.545292       -14.8382
  58   1.0000      -0.538430       -14.6514
  59   1.0000      -0.531930       -14.4745
  60   1.0000      -0.518199       -14.1009
  61   1.0000      -0.504359       -13.7243
  62   1.0000      -0.476461       -12.9652
  63   1.0000      -0.468332       -12.7440
  64   1.0000      -0.463520       -12.6130
  65   1.0000      -0.439139       -11.9496
  66   1.0000      -0.435980       -11.8636
  67   1.0000      -0.434256       -11.8167
  68   1.0000      -0.425796       -11.5865
  69   1.0000      -0.413774       -11.2594
  70   1.0000      -0.401609       -10.9283
  71   1.0000      -0.396784       -10.7970
  72   0.0000       0.008301         0.2259
  73   0.0000       0.020182         0.5492
  74   0.0000       0.022524         0.6129
  75   0.0000       0.030951         0.8422
  76   0.0000       0.037351         1.0164

E(0)                                       ...  -3028.424645294
E(0)                                       ...  -3028.424645294
E(CORR)(strong-pairs)                      ...     -2.873522723
E(CORR)(weak-pairs)                        ...     -0.035741805
E(CORR)(corrected)                         ...     -2.909264528
E(TOT)                                     ...  -3031.333909822
E(CCSD(T))                                 ...  -3031.453114747
FINAL SINGLE POINT ENERGY     -3031.453114747283

DIPOLE MOMENT
-------------
                                X             Y             Z
Electronic contribution:     40.16502       3.75476       2.01075
Nuclear contribution   :    -44.68427      -3.36961      -2.45545
                        -----------------------------------------
Total Dipole Moment    :     -4.51925       0.38515      -0.44470
                        -----------------------------------------
Magnitude (a.u.)       :      4.55738
Magnitude (Debye)      :     11.58394

Rotational constants in cm-1:     0.018871     0.011965     0.010781
Rotational constants in MHz :   565.740686   358.710919   323.210158

                             ****ORCA TERMINATED NORMALLY****
TOTAL RUN TIME: 0 days 20 hours 35 minutes 2 seconds 635 msec
