                         Program Version 4.1.2  - RELEASE  -
|  1> ! aug-cc-pVTZ aug-cc-pVTZ/C DLPNO-CCSD(T1) TightSCF NormalPNO UNO MiniPrint AutoAux
|  2> %pal nproc 10 end
|  3> %maxcore 20000
|  4> %mdci
|  5>      density none
|  6> end
|  7>
|  8> * xyz 0 6
|  9>  O      0.22482200      0.33535800     -0.85378200
| 10>  C      1.02728900      1.28561500     -0.66745400
| 11>  C      3.03116300      0.13078900      0.52034700
| 12>  C      2.61254500     -0.95490200     -0.16529600
| 13>  C      3.07689600     -1.22959500     -1.56845200
| 14> Fe     -1.47053000     -0.15160000      0.01197200
| 15> Cl     -2.06853400     -2.00073200     -0.96683100
| 16>  C      1.68998100     -1.99630000      0.39315100
| 17> Cl     -2.68749200      1.60956900     -0.44556300
| 18> Cl     -1.10464800     -0.35898900      2.16858900
| 19>  H      3.75593200      0.78030200      0.02961300
| 20>  H      2.21799800     -2.95680200      0.46421300
| 21>  H      1.29450600     -1.75196000      1.37836600
| 22>  H      0.84500600     -2.16262400     -0.28690900
| 23>  H      3.57575800     -2.20648600     -1.61023100
| 24>  H      2.22248700     -1.29128800     -2.25567800
| 25>  H      3.78060800     -0.47704100     -1.93460500
| 26>  C      2.83334800      0.38095900      1.99298600
| 27>  H      3.63094400     -0.11137300      2.56571800
| 28>  H      2.89014400      1.44729900      2.23073300
| 29>  H      1.87960300      0.00171400      2.36809200
| 30>  C      0.84658200      2.22380700      0.48579500
| 31>  H      1.73289800      2.83328000      0.66483300
| 32>  H      0.01723800      2.88865600      0.20092400
| 33>  H      0.54493800      1.70220200      1.39396100
| 34>  C      1.83091500      1.75988900     -1.84241500
| 35>  H      1.21416400      2.52654200     -2.33432700
| 36>  H      2.76956900      2.22855100     -1.54418900
| 37>  H      2.00255000      0.95877100     -2.55881700
| 38> *
| 39>
| 40>
| 41>                          ****END OF INPUT****

CARTESIAN COORDINATES (ANGSTROEM)
---------------------------------
  O      0.224822    0.335358   -0.853782
  C      1.027289    1.285615   -0.667454
  C      3.031163    0.130789    0.520347
  C      2.612545   -0.954902   -0.165296
  C      3.076896   -1.229595   -1.568452
  Fe    -1.470530   -0.151600    0.011972
  Cl    -2.068534   -2.000732   -0.966831
  C      1.689981   -1.996300    0.393151
  Cl    -2.687492    1.609569   -0.445563
  Cl    -1.104648   -0.358989    2.168589
  H      3.755932    0.780302    0.029613
  H      2.217998   -2.956802    0.464213
  H      1.294506   -1.751960    1.378366
  H      0.845006   -2.162624   -0.286909
  H      3.575758   -2.206486   -1.610231
  H      2.222487   -1.291288   -2.255678
  H      3.780608   -0.477041   -1.934605
  C      2.833348    0.380959    1.992986
  H      3.630944   -0.111373    2.565718
  H      2.890144    1.447299    2.230733
  H      1.879603    0.001714    2.368092
  C      0.846582    2.223807    0.485795
  H      1.732898    2.833280    0.664833
  H      0.017238    2.888656    0.200924
  H      0.544938    1.702202    1.393961
  C      1.830915    1.759889   -1.842415
  H      1.214164    2.526542   -2.334327
  H      2.769569    2.228551   -1.544189
  H      2.002550    0.958771   -2.558817

ORBITAL ENERGIES
----------------
                 SPIN UP ORBITALS
  NO   OCC          E(Eh)            E(eV)
   0   1.0000    -261.575067     -7117.8194
   1   1.0000    -104.793412     -2851.5737
   2   1.0000    -104.790138     -2851.4846
   3   1.0000    -104.788242     -2851.4330
   4   1.0000     -32.242781      -877.3707
   5   1.0000     -27.719239      -754.2788
   6   1.0000     -27.718136      -754.2488
   7   1.0000     -27.717946      -754.2437
   8   1.0000     -20.617357      -561.0268
   9   1.0000     -11.421403      -310.7922
  10   1.0000     -11.277124      -306.8661
  11   1.0000     -11.271432      -306.7113
  12   1.0000     -11.270274      -306.6797
  13   1.0000     -11.245140      -305.9958
  14   1.0000     -11.244300      -305.9730
  15   1.0000     -11.237587      -305.7903
  16   1.0000     -11.230294      -305.5918
  17   1.0000     -10.520125      -286.2672
  18   1.0000     -10.516826      -286.1774
  19   1.0000     -10.514880      -286.1244
  20   1.0000      -7.986959      -217.3362
  21   1.0000      -7.986201      -217.3156
  22   1.0000      -7.986151      -217.3142
  23   1.0000      -7.983706      -217.2477
  24   1.0000      -7.982921      -217.2263
  25   1.0000      -7.982866      -217.2248
  26   1.0000      -7.981670      -217.1923
  27   1.0000      -7.981008      -217.1743
  28   1.0000      -7.980960      -217.1730
  29   1.0000      -4.597660      -125.1087
  30   1.0000      -3.210779       -87.3697
  31   1.0000      -3.209081       -87.3235
  32   1.0000      -3.208929       -87.3194
  33   1.0000      -1.461896       -39.7802
  34   1.0000      -1.128504       -30.7082
  35   1.0000      -1.100310       -29.9410
  36   1.0000      -1.066415       -29.0186
  37   1.0000      -1.060624       -28.8611
  38   1.0000      -1.057753       -28.7829
  39   1.0000      -1.022464       -27.8226
  40   1.0000      -1.009040       -27.4574
  41   1.0000      -0.959891       -26.1200
  42   1.0000      -0.942068       -25.6350
  43   1.0000      -0.926581       -25.2135
  44   1.0000      -0.926474       -25.2106
  45   1.0000      -0.915867       -24.9220
  46   1.0000      -0.915203       -24.9039
  47   1.0000      -0.897741       -24.4288
  48   1.0000      -0.812845       -22.1186
  49   1.0000      -0.731049       -19.8929
  50   1.0000      -0.711052       -19.3487
  51   1.0000      -0.701210       -19.0809
  52   1.0000      -0.685003       -18.6399
  53   1.0000      -0.656484       -17.8638
  54   1.0000      -0.622551       -16.9405
  55   1.0000      -0.621509       -16.9121
  56   1.0000      -0.604587       -16.4516
  57   1.0000      -0.599371       -16.3097
  58   1.0000      -0.585738       -15.9387
  59   1.0000      -0.578284       -15.7359
  60   1.0000      -0.560853       -15.2616
  61   1.0000      -0.552168       -15.0253
  62   1.0000      -0.547635       -14.9019
  63   1.0000      -0.541540       -14.7360
  64   1.0000      -0.536038       -14.5863
  65   1.0000      -0.526877       -14.3370
  66   1.0000      -0.502597       -13.6763
  67   1.0000      -0.494394       -13.4532
  68   1.0000      -0.476511       -12.9665
  69   1.0000      -0.475669       -12.9436
  70   1.0000      -0.446223       -12.1423
  71   1.0000      -0.440221       -11.9790
  72   1.0000      -0.438388       -11.9292
  73   1.0000      -0.429741       -11.6938
  74   1.0000      -0.428767       -11.6673
  75   1.0000      -0.427499       -11.6328
  76   1.0000      -0.360455        -9.8085
  77   0.0000       0.012614         0.3432
  78   0.0000       0.023512         0.6398
  79   0.0000       0.024165         0.6576
  80   0.0000       0.030587         0.8323
  81   0.0000       0.039266         1.0685

                 SPIN DOWN ORBITALS
  NO   OCC          E(Eh)            E(eV)
   0   1.0000    -261.571490     -7117.7221
   1   1.0000    -104.791932     -2851.5334
   2   1.0000    -104.788586     -2851.4424
   3   1.0000    -104.786685     -2851.3907
   4   1.0000     -32.080786      -872.9626
   5   1.0000     -27.558704      -749.9105
   6   1.0000     -27.558633      -749.9085
   7   1.0000     -27.558520      -749.9054
   8   1.0000     -20.613808      -560.9302
   9   1.0000     -11.421322      -310.7900
  10   1.0000     -11.277015      -306.8632
  11   1.0000     -11.271424      -306.7110
  12   1.0000     -11.270294      -306.6803
  13   1.0000     -11.245083      -305.9943
  14   1.0000     -11.244297      -305.9729
  15   1.0000     -11.237592      -305.7904
  16   1.0000     -11.230307      -305.5922
  17   1.0000     -10.518544      -286.2241
  18   1.0000     -10.515169      -286.1323
  19   1.0000     -10.513227      -286.0794
  20   1.0000      -7.984461      -217.2682
  21   1.0000      -7.983734      -217.2485
  22   1.0000      -7.983694      -217.2474
  23   1.0000      -7.981049      -217.1754
  24   1.0000      -7.980367      -217.1568
  25   1.0000      -7.980276      -217.1543
  26   1.0000      -7.979217      -217.1255
  27   1.0000      -7.978328      -217.1013
  28   1.0000      -7.978246      -217.0991
  29   1.0000      -4.155557      -113.0785
  30   1.0000      -2.677107       -72.8478
  31   1.0000      -2.677090       -72.8473
  32   1.0000      -2.676605       -72.8341
  33   1.0000      -1.453166       -39.5427
  34   1.0000      -1.128182       -30.6994
  35   1.0000      -1.097952       -29.8768
  36   1.0000      -1.050853       -28.5952
  37   1.0000      -1.038320       -28.2541
  38   1.0000      -1.035111       -28.1668
  39   1.0000      -1.021788       -27.8043
  40   1.0000      -1.008498       -27.4426
  41   1.0000      -0.959777       -26.1169
  42   1.0000      -0.897898       -24.4331
  43   1.0000      -0.825720       -22.4690
  44   1.0000      -0.731120       -19.8948
  45   1.0000      -0.713137       -19.4055
  46   1.0000      -0.700343       -19.0573
  47   1.0000      -0.684348       -18.6220
  48   1.0000      -0.656413       -17.8619
  49   1.0000      -0.622515       -16.9395
  50   1.0000      -0.620945       -16.8968
  51   1.0000      -0.604315       -16.4443
  52   1.0000      -0.599280       -16.3072
  53   1.0000      -0.585473       -15.9315
  54   1.0000      -0.576984       -15.7005
  55   1.0000      -0.560028       -15.2391
  56   1.0000      -0.551993       -15.0205
  57   1.0000      -0.545854       -14.8534
  58   1.0000      -0.541449       -14.7336
  59   1.0000      -0.528179       -14.3725
  60   1.0000      -0.522985       -14.2311
  61   1.0000      -0.504215       -13.7204
  62   1.0000      -0.494235       -13.4488
  63   1.0000      -0.484775       -13.1914
  64   1.0000      -0.482276       -13.1234
  65   1.0000      -0.453543       -12.3415
  66   1.0000      -0.450431       -12.2569
  67   1.0000      -0.447518       -12.1776
  68   1.0000      -0.431225       -11.7342
  69   1.0000      -0.428760       -11.6671
  70   1.0000      -0.413014       -11.2387
  71   1.0000      -0.359805        -9.7908
  72   0.0000       0.012598         0.3428
  73   0.0000       0.023489         0.6392
  74   0.0000       0.024130         0.6566
  75   0.0000       0.030514         0.8303
  76   0.0000       0.039153         1.0654

E(0)                                       ...  -3028.462117279
E(0)                                       ...  -3028.462117279
E(CORR)(strong-pairs)                      ...     -2.868398220
E(CORR)(weak-pairs)                        ...     -0.035697960
E(CORR)(corrected)                         ...     -2.904096180
E(TOT)                                     ...  -3031.366213459
E(CCSD(T))                                 ...  -3031.484411226
FINAL SINGLE POINT ENERGY     -3031.484411225963

DIPOLE MOMENT
-------------
                                X             Y             Z
Electronic contribution:    -43.24754      -4.48834       1.65054
Nuclear contribution   :     46.62400       5.84695      -2.28301
                        -----------------------------------------
Total Dipole Moment    :      3.37647       1.35861      -0.63247
                        -----------------------------------------
Magnitude (a.u.)       :      3.69410
Magnitude (Debye)      :      9.38965

Rotational constants in cm-1:     0.018883     0.010828     0.010196
Rotational constants in MHz :   566.090987   324.614001   305.663728

                             ****ORCA TERMINATED NORMALLY****
TOTAL RUN TIME: 0 days 18 hours 29 minutes 13 seconds 757 msec
