                         Program Version 4.1.2  - RELEASE  -
|  1> ! aug-cc-pVTZ aug-cc-pVTZ/C DLPNO-CCSD(T1) TightSCF NormalPNO UNO MiniPrint AutoAux
|  2> %pal nproc 10 end
|  3> %maxcore 20000
|  4> %mdci
|  5>      density none
|  6> end
|  7>
|  8> * xyz 0 6
|  9>  O     -0.32882100     -0.18005800     -0.66549700
| 10>  C     -1.25324200     -1.12177000     -0.50410100
| 11>  C     -2.64105000     -0.38909100      0.47552800
| 12>  C     -2.55340700      0.90809500     -0.05748300
| 13>  C     -3.24717000      1.27386600     -1.32260700
| 14> Fe      1.40762000      0.13247200     -0.03975100
| 15> Cl      1.83490600      2.14522500     -0.84359600
| 16>  C     -1.70269300      1.95477200      0.53705300
| 17> Cl      2.68321000     -1.49869000     -0.77110000
| 18> Cl      1.25988100      0.17570500      2.17945000
| 19>  H     -3.47463800     -0.96654300      0.07492400
| 20>  H     -2.17776300      2.93853900      0.45980100
| 21>  H     -1.39070200      1.75564900      1.56059000
| 22>  H     -0.78968400      2.00839600     -0.08179500
| 23>  H     -3.87713600      2.15379000     -1.13786700
| 24>  H     -2.50574600      1.58189500     -2.07268400
| 25>  H     -3.86975900      0.47346000     -1.72262500
| 26>  C     -2.42443300     -0.59014400      1.97132300
| 27>  H     -3.15443700      0.00354300      2.53270300
| 28>  H     -2.57744900     -1.63702600      2.23915300
| 29>  H     -1.42313000     -0.29987700      2.29460700
| 30>  C     -0.82038900     -2.31933200      0.33725200
| 31>  H     -1.63700500     -3.02679400      0.50354400
| 32>  H     -0.03428800     -2.82106600     -0.23977500
| 33>  H     -0.38604400     -2.01826400      1.29017500
| 34>  C     -1.85518400     -1.56219900     -1.83752100
| 35>  H     -1.07447500     -2.12863400     -2.35683400
| 36>  H     -2.72684300     -2.21084700     -1.71188900
| 37>  H     -2.10898200     -0.71331400     -2.47200500
| 38> *
| 39>
| 40>
| 41>                          ****END OF INPUT****

CARTESIAN COORDINATES (ANGSTROEM)
---------------------------------
  O     -0.328821   -0.180058   -0.665497
  C     -1.253242   -1.121770   -0.504101
  C     -2.641050   -0.389091    0.475528
  C     -2.553407    0.908095   -0.057483
  C     -3.247170    1.273866   -1.322607
  Fe     1.407620    0.132472   -0.039751
  Cl     1.834906    2.145225   -0.843596
  C     -1.702693    1.954772    0.537053
  Cl     2.683210   -1.498690   -0.771100
  Cl     1.259881    0.175705    2.179450
  H     -3.474638   -0.966543    0.074924
  H     -2.177763    2.938539    0.459801
  H     -1.390702    1.755649    1.560590
  H     -0.789684    2.008396   -0.081795
  H     -3.877136    2.153790   -1.137867
  H     -2.505746    1.581895   -2.072684
  H     -3.869759    0.473460   -1.722625
  C     -2.424433   -0.590144    1.971323
  H     -3.154437    0.003543    2.532703
  H     -2.577449   -1.637026    2.239153
  H     -1.423130   -0.299877    2.294607
  C     -0.820389   -2.319332    0.337252
  H     -1.637005   -3.026794    0.503544
  H     -0.034288   -2.821066   -0.239775
  H     -0.386044   -2.018264    1.290175
  C     -1.855184   -1.562199   -1.837521
  H     -1.074475   -2.128634   -2.356834
  H     -2.726843   -2.210847   -1.711889
  H     -2.108982   -0.713314   -2.472005

ORBITAL ENERGIES
----------------
                 SPIN UP ORBITALS
  NO   OCC          E(Eh)            E(eV)
   0   1.0000    -261.547487     -7117.0689
   1   1.0000    -104.775398     -2851.0835
   2   1.0000    -104.772690     -2851.0098
   3   1.0000    -104.770994     -2850.9637
   4   1.0000     -32.215408      -876.6258
   5   1.0000     -27.691293      -753.5184
   6   1.0000     -27.691145      -753.5144
   7   1.0000     -27.690846      -753.5062
   8   1.0000     -20.545856      -559.0812
   9   1.0000     -11.378697      -309.6301
  10   1.0000     -11.370831      -309.4160
  11   1.0000     -11.290398      -307.2273
  12   1.0000     -11.282756      -307.0194
  13   1.0000     -11.266974      -306.5899
  14   1.0000     -11.251736      -306.1753
  15   1.0000     -11.249424      -306.1124
  16   1.0000     -11.241682      -305.9017
  17   1.0000     -10.502014      -285.7743
  18   1.0000     -10.499238      -285.6988
  19   1.0000     -10.497602      -285.6543
  20   1.0000      -7.968915      -216.8452
  21   1.0000      -7.968042      -216.8214
  22   1.0000      -7.967995      -216.8202
  23   1.0000      -7.966065      -216.7676
  24   1.0000      -7.965323      -216.7475
  25   1.0000      -7.965238      -216.7452
  26   1.0000      -7.964413      -216.7227
  27   1.0000      -7.963710      -216.7036
  28   1.0000      -7.963637      -216.7016
  29   1.0000      -4.570828      -124.3785
  30   1.0000      -3.183335       -86.6229
  31   1.0000      -3.182943       -86.6123
  32   1.0000      -3.182448       -86.5988
  33   1.0000      -1.385571       -37.7033
  34   1.0000      -1.187105       -32.3028
  35   1.0000      -1.083597       -29.4862
  36   1.0000      -1.046176       -28.4679
  37   1.0000      -1.043631       -28.3986
  38   1.0000      -1.040237       -28.3063
  39   1.0000      -1.038037       -28.2464
  40   1.0000      -1.008622       -27.4460
  41   1.0000      -0.975392       -26.5418
  42   1.0000      -0.932049       -25.3624
  43   1.0000      -0.912402       -24.8277
  44   1.0000      -0.900315       -24.4988
  45   1.0000      -0.900235       -24.4966
  46   1.0000      -0.891869       -24.2690
  47   1.0000      -0.891425       -24.2569
  48   1.0000      -0.789387       -21.4803
  49   1.0000      -0.767315       -20.8797
  50   1.0000      -0.704634       -19.1741
  51   1.0000      -0.691589       -18.8191
  52   1.0000      -0.672258       -18.2931
  53   1.0000      -0.652436       -17.7537
  54   1.0000      -0.647387       -17.6163
  55   1.0000      -0.629034       -17.1169
  56   1.0000      -0.597689       -16.2639
  57   1.0000      -0.595970       -16.2172
  58   1.0000      -0.593863       -16.1598
  59   1.0000      -0.580487       -15.7959
  60   1.0000      -0.576137       -15.6775
  61   1.0000      -0.561821       -15.2879
  62   1.0000      -0.556207       -15.1352
  63   1.0000      -0.543135       -14.7795
  64   1.0000      -0.528637       -14.3849
  65   1.0000      -0.528140       -14.3714
  66   1.0000      -0.509862       -13.8740
  67   1.0000      -0.470404       -12.8003
  68   1.0000      -0.461163       -12.5489
  69   1.0000      -0.448909       -12.2154
  70   1.0000      -0.425958       -11.5909
  71   1.0000      -0.424798       -11.5593
  72   1.0000      -0.421714       -11.4754
  73   1.0000      -0.413335       -11.2474
  74   1.0000      -0.411987       -11.2107
  75   1.0000      -0.411086       -11.1862
  76   1.0000      -0.399231       -10.8636
  77   0.0000       0.006060         0.1649
  78   0.0000       0.009337         0.2541
  79   0.0000       0.019223         0.5231
  80   0.0000       0.020664         0.5623
  81   0.0000       0.030050         0.8177

                 SPIN DOWN ORBITALS
  NO   OCC          E(Eh)            E(eV)
   0   1.0000    -261.543940     -7116.9724
   1   1.0000    -104.774054     -2851.0470
   2   1.0000    -104.771340     -2850.9731
   3   1.0000    -104.769560     -2850.9247
   4   1.0000     -32.053355      -872.2161
   5   1.0000     -27.531437      -749.1685
   6   1.0000     -27.531261      -749.1637
   7   1.0000     -27.530773      -749.1504
   8   1.0000     -20.540308      -558.9302
   9   1.0000     -11.378684      -309.6297
  10   1.0000     -11.370778      -309.4146
  11   1.0000     -11.290400      -307.2274
  12   1.0000     -11.282563      -307.0142
  13   1.0000     -11.267008      -306.5909
  14   1.0000     -11.251756      -306.1758
  15   1.0000     -11.249307      -306.1092
  16   1.0000     -11.241641      -305.9006
  17   1.0000     -10.500566      -285.7349
  18   1.0000     -10.497792      -285.6594
  19   1.0000     -10.496068      -285.6125
  20   1.0000      -7.966423      -216.7774
  21   1.0000      -7.965949      -216.7645
  22   1.0000      -7.965875      -216.7625
  23   1.0000      -7.963737      -216.7043
  24   1.0000      -7.963113      -216.6873
  25   1.0000      -7.963015      -216.6847
  26   1.0000      -7.962040      -216.6581
  27   1.0000      -7.961301      -216.6380
  28   1.0000      -7.961227      -216.6360
  29   1.0000      -4.128592      -112.3447
  30   1.0000      -2.650462       -72.1227
  31   1.0000      -2.650410       -72.1213
  32   1.0000      -2.649442       -72.0950
  33   1.0000      -1.371353       -37.3164
  34   1.0000      -1.186266       -32.2800
  35   1.0000      -1.080953       -29.4142
  36   1.0000      -1.042598       -28.3705
  37   1.0000      -1.031662       -28.0730
  38   1.0000      -1.020426       -27.7672
  39   1.0000      -1.017902       -27.6985
  40   1.0000      -1.008351       -27.4386
  41   1.0000      -0.974524       -26.5181
  42   1.0000      -0.930725       -25.3263
  43   1.0000      -0.797680       -21.7060
  44   1.0000      -0.772012       -21.0075
  45   1.0000      -0.705176       -19.1888
  46   1.0000      -0.690762       -18.7966
  47   1.0000      -0.673068       -18.3151
  48   1.0000      -0.654389       -17.8068
  49   1.0000      -0.646007       -17.5787
  50   1.0000      -0.628031       -17.0896
  51   1.0000      -0.597647       -16.2628
  52   1.0000      -0.595758       -16.2114
  53   1.0000      -0.593288       -16.1442
  54   1.0000      -0.580524       -15.7969
  55   1.0000      -0.575140       -15.6504
  56   1.0000      -0.561179       -15.2705
  57   1.0000      -0.555870       -15.1260
  58   1.0000      -0.542106       -14.7514
  59   1.0000      -0.528479       -14.3806
  60   1.0000      -0.522568       -14.2198
  61   1.0000      -0.501991       -13.6599
  62   1.0000      -0.469878       -12.7860
  63   1.0000      -0.464711       -12.6454
  64   1.0000      -0.456041       -12.4095
  65   1.0000      -0.436228       -11.8704
  66   1.0000      -0.432851       -11.7785
  67   1.0000      -0.431162       -11.7325
  68   1.0000      -0.424590       -11.5537
  69   1.0000      -0.410480       -11.1697
  70   1.0000      -0.398453       -10.8425
  71   1.0000      -0.391330       -10.6486
  72   0.0000       0.006053         0.1647
  73   0.0000       0.009027         0.2456
  74   0.0000       0.019226         0.5232
  75   0.0000       0.020648         0.5619
  76   0.0000       0.030066         0.8181

E(0)                                       ...  -3028.423895382
E(0)                                       ...  -3028.423895382
E(CORR)(strong-pairs)                      ...     -2.874002783
E(CORR)(weak-pairs)                        ...     -0.035888752
E(CORR)(corrected)                         ...     -2.909891535
E(TOT)                                     ...  -3031.333786917
E(CCSD(T))                                 ...  -3031.453296466
FINAL SINGLE POINT ENERGY     -3031.453296466027

DIPOLE MOMENT
-------------
                                X             Y             Z
Electronic contribution:     40.13826       6.25637       1.08480
Nuclear contribution   :    -45.15597      -6.35266      -1.45142
                        -----------------------------------------
Total Dipole Moment    :     -5.01772      -0.09629      -0.36662
                        -----------------------------------------
Magnitude (a.u.)       :      5.03201
Magnitude (Debye)      :     12.79036

Rotational constants in cm-1:     0.019168     0.011431     0.010648
Rotational constants in MHz :   574.650816   342.696350   319.215493

                             ****ORCA TERMINATED NORMALLY****
TOTAL RUN TIME: 0 days 21 hours 45 minutes 46 seconds 353 msec
