                         Program Version 4.1.2  - RELEASE  -
|  1> ! aug-cc-pVTZ aug-cc-pVTZ/C DLPNO-CCSD(T1) TightSCF NormalPNO UNO MiniPrint AutoAux
|  2> %pal nproc 10 end
|  3> %maxcore 20000
|  4> %mdci
|  5>      density none
|  6> end
|  7>
|  8> * xyz 0 6
|  9>  O      0.26578800      0.27226500     -0.80844600
| 10>  C      1.07142100      1.22822400     -0.65087100
| 11>  C      3.08776500      0.07175500      0.39766700
| 12>  C      2.50983700     -0.99651600     -0.19446500
| 13>  C      2.80418900     -1.36535500     -1.62066400
| 14> Fe     -1.45916200     -0.12735900      0.03136700
| 15> Cl     -2.09828800     -1.98850000     -0.90118700
| 16>  C      1.60182800     -1.95678100      0.51283100
| 17> Cl     -2.60610800      1.65705500     -0.51763500
| 18> Cl     -1.16082500     -0.26617500      2.20470000
| 19>  H      3.80326600      0.64298500     -0.19297600
| 20>  H      2.14000100     -2.89967500      0.68266800
| 21>  H      1.24176000     -1.59759500      1.47622100
| 22>  H      0.73679400     -2.20616800     -0.11198400
| 23>  H      3.19500400     -2.39010000     -1.66273600
| 24>  H      1.88279300     -1.36134900     -2.21723900
| 25>  H      3.54164100     -0.70491800     -2.08482400
| 26>  C      3.06670800      0.39048400      1.86925300
| 27>  H      3.91245300     -0.10060300      2.36947700
| 28>  H      3.17541900      1.46400000      2.05173200
| 29>  H      2.15412600      0.05314300      2.36714300
| 30>  C      0.92552700      2.16494500      0.50860600
| 31>  H      1.81224400      2.78235800      0.65476700
| 32>  H      0.08116600      2.82321200      0.25375300
| 33>  H      0.66070700      1.64105500      1.42689500
| 34>  C      1.81547300      1.72000900     -1.85806700
| 35>  H      1.15201300      2.45997000     -2.32986100
| 36>  H      2.74756100      2.22351500     -1.59841700
| 37>  H      1.98723700      0.92234600     -2.57826500
| 38> *
| 39>
| 40>
| 41>                          ****END OF INPUT****

CARTESIAN COORDINATES (ANGSTROEM)
---------------------------------
  O      0.265788    0.272265   -0.808446
  C      1.071421    1.228224   -0.650871
  C      3.087765    0.071755    0.397667
  C      2.509837   -0.996516   -0.194465
  C      2.804189   -1.365355   -1.620664
  Fe    -1.459162   -0.127359    0.031367
  Cl    -2.098288   -1.988500   -0.901187
  C      1.601828   -1.956781    0.512831
  Cl    -2.606108    1.657055   -0.517635
  Cl    -1.160825   -0.266175    2.204700
  H      3.803266    0.642985   -0.192976
  H      2.140001   -2.899675    0.682668
  H      1.241760   -1.597595    1.476221
  H      0.736794   -2.206168   -0.111984
  H      3.195004   -2.390100   -1.662736
  H      1.882793   -1.361349   -2.217239
  H      3.541641   -0.704918   -2.084824
  C      3.066708    0.390484    1.869253
  H      3.912453   -0.100603    2.369477
  H      3.175419    1.464000    2.051732
  H      2.154126    0.053143    2.367143
  C      0.925527    2.164945    0.508606
  H      1.812244    2.782358    0.654767
  H      0.081166    2.823212    0.253753
  H      0.660707    1.641055    1.426895
  C      1.815473    1.720009   -1.858067
  H      1.152013    2.459970   -2.329861
  H      2.747561    2.223515   -1.598417
  H      1.987237    0.922346   -2.578265

ORBITAL ENERGIES
----------------
                 SPIN UP ORBITALS
  NO   OCC          E(Eh)            E(eV)
   0   1.0000    -261.574350     -7117.7999
   1   1.0000    -104.792465     -2851.5479
   2   1.0000    -104.789549     -2851.4686
   3   1.0000    -104.788025     -2851.4271
   4   1.0000     -32.242063      -877.3511
   5   1.0000     -27.718498      -754.2587
   6   1.0000     -27.717427      -754.2295
   7   1.0000     -27.717257      -754.2249
   8   1.0000     -20.612672      -560.8993
   9   1.0000     -11.421509      -310.7951
  10   1.0000     -11.276561      -306.8508
  11   1.0000     -11.273789      -306.7754
  12   1.0000     -11.270464      -306.6849
  13   1.0000     -11.245975      -306.0185
  14   1.0000     -11.244080      -305.9670
  15   1.0000     -11.240712      -305.8753
  16   1.0000     -11.231624      -305.6280
  17   1.0000     -10.519174      -286.2413
  18   1.0000     -10.516227      -286.1611
  19   1.0000     -10.514652      -286.1182
  20   1.0000      -7.986010      -217.3104
  21   1.0000      -7.985250      -217.2897
  22   1.0000      -7.985199      -217.2883
  23   1.0000      -7.983115      -217.2316
  24   1.0000      -7.982319      -217.2099
  25   1.0000      -7.982256      -217.2082
  26   1.0000      -7.981441      -217.1860
  27   1.0000      -7.980776      -217.1679
  28   1.0000      -7.980728      -217.1666
  29   1.0000      -4.596962      -125.0897
  30   1.0000      -3.210058       -87.3501
  31   1.0000      -3.208408       -87.3052
  32   1.0000      -3.208252       -87.3010
  33   1.0000      -1.459545       -39.7162
  34   1.0000      -1.131000       -30.7761
  35   1.0000      -1.100123       -29.9359
  36   1.0000      -1.065506       -28.9939
  37   1.0000      -1.059842       -28.8398
  38   1.0000      -1.057290       -28.7703
  39   1.0000      -1.023414       -27.8485
  40   1.0000      -1.009393       -27.4670
  41   1.0000      -0.961391       -26.1608
  42   1.0000      -0.941319       -25.6146
  43   1.0000      -0.925919       -25.1955
  44   1.0000      -0.925818       -25.1928
  45   1.0000      -0.915210       -24.9041
  46   1.0000      -0.914679       -24.8897
  47   1.0000      -0.900026       -24.4910
  48   1.0000      -0.811332       -22.0775
  49   1.0000      -0.732629       -19.9358
  50   1.0000      -0.709716       -19.3123
  51   1.0000      -0.700550       -19.0629
  52   1.0000      -0.687000       -18.6942
  53   1.0000      -0.658131       -17.9087
  54   1.0000      -0.624378       -16.9902
  55   1.0000      -0.621608       -16.9148
  56   1.0000      -0.603938       -16.4340
  57   1.0000      -0.599752       -16.3201
  58   1.0000      -0.585434       -15.9305
  59   1.0000      -0.578131       -15.7317
  60   1.0000      -0.560838       -15.2612
  61   1.0000      -0.553290       -15.0558
  62   1.0000      -0.550710       -14.9856
  63   1.0000      -0.542077       -14.7507
  64   1.0000      -0.534637       -14.5482
  65   1.0000      -0.528181       -14.3725
  66   1.0000      -0.501279       -13.6405
  67   1.0000      -0.496189       -13.5020
  68   1.0000      -0.476109       -12.9556
  69   1.0000      -0.474627       -12.9153
  70   1.0000      -0.445465       -12.1217
  71   1.0000      -0.439560       -11.9610
  72   1.0000      -0.437913       -11.9162
  73   1.0000      -0.429235       -11.6801
  74   1.0000      -0.428104       -11.6493
  75   1.0000      -0.427150       -11.6233
  76   1.0000      -0.361067        -9.8251
  77   0.0000       0.012681         0.3451
  78   0.0000       0.023479         0.6389
  79   0.0000       0.024068         0.6549
  80   0.0000       0.030566         0.8317
  81   0.0000       0.039292         1.0692

                 SPIN DOWN ORBITALS
  NO   OCC          E(Eh)            E(eV)
   0   1.0000    -261.570775     -7117.7027
   1   1.0000    -104.790988     -2851.5078
   2   1.0000    -104.788008     -2851.4267
   3   1.0000    -104.786482     -2851.3851
   4   1.0000     -32.080064      -872.9429
   5   1.0000     -27.557981      -749.8908
   6   1.0000     -27.557920      -749.8891
   7   1.0000     -27.557786      -749.8855
   8   1.0000     -20.609085      -560.8017
   9   1.0000     -11.421409      -310.7923
  10   1.0000     -11.276453      -306.8479
  11   1.0000     -11.273822      -306.7763
  12   1.0000     -11.270458      -306.6848
  13   1.0000     -11.245884      -306.0161
  14   1.0000     -11.244074      -305.9668
  15   1.0000     -11.240722      -305.8756
  16   1.0000     -11.231638      -305.6284
  17   1.0000     -10.517596      -286.1983
  18   1.0000     -10.514581      -286.1163
  19   1.0000     -10.513012      -286.0736
  20   1.0000      -7.983510      -217.2424
  21   1.0000      -7.982794      -217.2229
  22   1.0000      -7.982747      -217.2216
  23   1.0000      -7.980452      -217.1591
  24   1.0000      -7.979793      -217.1412
  25   1.0000      -7.979698      -217.1386
  26   1.0000      -7.979002      -217.1197
  27   1.0000      -7.978122      -217.0957
  28   1.0000      -7.978041      -217.0935
  29   1.0000      -4.154834      -113.0588
  30   1.0000      -2.676398       -72.8285
  31   1.0000      -2.676356       -72.8273
  32   1.0000      -2.675876       -72.8143
  33   1.0000      -1.450655       -39.4743
  34   1.0000      -1.130650       -30.7666
  35   1.0000      -1.097758       -29.8715
  36   1.0000      -1.050056       -28.5735
  37   1.0000      -1.037572       -28.2338
  38   1.0000      -1.034813       -28.1587
  39   1.0000      -1.022853       -27.8333
  40   1.0000      -1.008731       -27.4490
  41   1.0000      -0.961247       -26.1569
  42   1.0000      -0.900246       -24.4969
  43   1.0000      -0.824049       -22.4235
  44   1.0000      -0.732696       -19.9377
  45   1.0000      -0.711995       -19.3744
  46   1.0000      -0.699704       -19.0399
  47   1.0000      -0.686229       -18.6732
  48   1.0000      -0.658055       -17.9066
  49   1.0000      -0.624284       -16.9876
  50   1.0000      -0.621092       -16.9008
  51   1.0000      -0.603651       -16.4262
  52   1.0000      -0.599694       -16.3185
  53   1.0000      -0.585176       -15.9234
  54   1.0000      -0.577220       -15.7069
  55   1.0000      -0.559917       -15.2361
  56   1.0000      -0.553249       -15.0547
  57   1.0000      -0.548441       -14.9238
  58   1.0000      -0.542083       -14.7508
  59   1.0000      -0.529795       -14.4165
  60   1.0000      -0.521570       -14.1926
  61   1.0000      -0.502468       -13.6729
  62   1.0000      -0.496005       -13.4970
  63   1.0000      -0.483951       -13.1690
  64   1.0000      -0.481850       -13.1118
  65   1.0000      -0.452727       -12.3193
  66   1.0000      -0.449810       -12.2399
  67   1.0000      -0.447005       -12.1636
  68   1.0000      -0.430692       -11.7197
  69   1.0000      -0.428368       -11.6565
  70   1.0000      -0.412531       -11.2255
  71   1.0000      -0.360290        -9.8040
  72   0.0000       0.012666         0.3447
  73   0.0000       0.023455         0.6382
  74   0.0000       0.024038         0.6541
  75   0.0000       0.030507         0.8301
  76   0.0000       0.039175         1.0660

E(0)                                       ...  -3028.456699124
E(0)                                       ...  -3028.456699124
E(CORR)(strong-pairs)                      ...     -2.869251293
E(CORR)(weak-pairs)                        ...     -0.036110235
E(CORR)(corrected)                         ...     -2.905361529
E(TOT)                                     ...  -3031.362060653
E(CCSD(T))                                 ...  -3031.480425118
FINAL SINGLE POINT ENERGY     -3031.480425117747

DIPOLE MOMENT
-------------
                                X             Y             Z
Electronic contribution:    -43.00072      -3.69101       2.01095
Nuclear contribution   :     46.44430       4.91278      -2.65041
                        -----------------------------------------
Total Dipole Moment    :      3.44359       1.22177      -0.63946
                        -----------------------------------------
Magnitude (a.u.)       :      3.70944
Magnitude (Debye)      :      9.42863

Rotational constants in cm-1:     0.018966     0.010939     0.010310
Rotational constants in MHz :   568.600490   327.931867   309.096590

                             ****ORCA TERMINATED NORMALLY****
TOTAL RUN TIME: 0 days 17 hours 7 minutes 33 seconds 755 msec
