                         Program Version 4.1.2  - RELEASE  -
|  1> ! aug-cc-pVTZ aug-cc-pVTZ/C DLPNO-CCSD(T1) TightSCF NormalPNO UNO MiniPrint AutoAux
|  2> %pal nproc 10 end
|  3> %maxcore 20000
|  4> %mdci
|  5>      density none
|  6> end
|  7>
|  8> * xyz 0 6
|  9>  O     -0.31769100     -0.33097000     -0.66154800
| 10>  C     -1.43311200     -1.20101100     -0.45622700
| 11>  C     -2.68354600     -0.19063500     -0.08466400
| 12>  C     -2.02843800      1.14728700     -0.23956500
| 13>  C     -1.96505900      1.80497000     -1.55583100
| 14> Fe      1.36002400      0.02915500      0.01572000
| 15> Cl      1.67851600      2.09252200     -0.77189000
| 16>  C     -1.56745800      1.90566000      0.93265800
| 17> Cl      2.76891600     -1.51303700     -0.64959900
| 18> Cl      1.16348500      0.09766000      2.24381800
| 19>  H     -3.42492600     -0.29720100     -0.88392500
| 20>  H     -2.47161600      2.27804000      1.44355700
| 21>  H     -1.04932200      1.26382100      1.65432800
| 22>  H     -0.92904800      2.74717500      0.66099600
| 23>  H     -2.60573700      2.70136400     -1.51049200
| 24>  H     -0.94032400      2.16462400     -1.72109200
| 25>  H     -2.29030400      1.16658900     -2.37669900
| 26>  C     -3.35833600     -0.43121900      1.26600000
| 27>  H     -4.16334500      0.29273000      1.43585300
| 28>  H     -3.80660300     -1.42793200      1.27931400
| 29>  H     -2.65861500     -0.36933900      2.10220600
| 30>  C     -1.13403400     -2.20618800      0.64761100
| 31>  H     -1.96596500     -2.89992700      0.80404500
| 32>  H     -0.25850600     -2.78767700      0.33730300
| 33>  H     -0.88478900     -1.71682200      1.59057100
| 34>  C     -1.72837200     -1.90830900     -1.77531800
| 35>  H     -0.85870400     -2.51158300     -2.05410800
| 36>  H     -2.60193900     -2.56443600     -1.68900600
| 37>  H     -1.90481900     -1.18448300     -2.57673500
| 38> *
| 39>
| 40>
| 41>                          ****END OF INPUT****

CARTESIAN COORDINATES (ANGSTROEM)
---------------------------------
  O     -0.317691   -0.330970   -0.661548
  C     -1.433112   -1.201011   -0.456227
  C     -2.683546   -0.190635   -0.084664
  C     -2.028438    1.147287   -0.239565
  C     -1.965059    1.804970   -1.555831
  Fe     1.360024    0.029155    0.015720
  Cl     1.678516    2.092522   -0.771890
  C     -1.567458    1.905660    0.932658
  Cl     2.768916   -1.513037   -0.649599
  Cl     1.163485    0.097660    2.243818
  H     -3.424926   -0.297201   -0.883925
  H     -2.471616    2.278040    1.443557
  H     -1.049322    1.263821    1.654328
  H     -0.929048    2.747175    0.660996
  H     -2.605737    2.701364   -1.510492
  H     -0.940324    2.164624   -1.721092
  H     -2.290304    1.166589   -2.376699
  C     -3.358336   -0.431219    1.266000
  H     -4.163345    0.292730    1.435853
  H     -3.806603   -1.427932    1.279314
  H     -2.658615   -0.369339    2.102206
  C     -1.134034   -2.206188    0.647611
  H     -1.965965   -2.899927    0.804045
  H     -0.258506   -2.787677    0.337303
  H     -0.884789   -1.716822    1.590571
  C     -1.728372   -1.908309   -1.775318
  H     -0.858704   -2.511583   -2.054108
  H     -2.601939   -2.564436   -1.689006
  H     -1.904819   -1.184483   -2.576735

ORBITAL ENERGIES
----------------
                 SPIN UP ORBITALS
  NO   OCC          E(Eh)            E(eV)
   0   1.0000    -261.543017     -7116.9473
   1   1.0000    -104.773674     -2851.0366
   2   1.0000    -104.773445     -2851.0304
   3   1.0000    -104.767576     -2850.8707
   4   1.0000     -32.210866      -876.5022
   5   1.0000     -27.686847      -753.3974
   6   1.0000     -27.686613      -753.3910
   7   1.0000     -27.686254      -753.3813
   8   1.0000     -20.539235      -558.9010
   9   1.0000     -11.415370      -310.6280
  10   1.0000     -11.335923      -308.4661
  11   1.0000     -11.296217      -307.3857
  12   1.0000     -11.287497      -307.1484
  13   1.0000     -11.282200      -307.0043
  14   1.0000     -11.265227      -306.5424
  15   1.0000     -11.237146      -305.7783
  16   1.0000     -11.230723      -305.6035
  17   1.0000     -10.500295      -285.7276
  18   1.0000     -10.499970      -285.7187
  19   1.0000     -10.494144      -285.5602
  20   1.0000      -7.967191      -216.7983
  21   1.0000      -7.966826      -216.7884
  22   1.0000      -7.966295      -216.7739
  23   1.0000      -7.966270      -216.7732
  24   1.0000      -7.966036      -216.7669
  25   1.0000      -7.965938      -216.7642
  26   1.0000      -7.960930      -216.6279
  27   1.0000      -7.960273      -216.6101
  28   1.0000      -7.960179      -216.6075
  29   1.0000      -4.566345      -124.2566
  30   1.0000      -3.178855       -86.5010
  31   1.0000      -3.178455       -86.4902
  32   1.0000      -3.178093       -86.4803
  33   1.0000      -1.346069       -36.6284
  34   1.0000      -1.188282       -32.3348
  35   1.0000      -1.094693       -29.7881
  36   1.0000      -1.044102       -28.4115
  37   1.0000      -1.039431       -28.2844
  38   1.0000      -1.037901       -28.2427
  39   1.0000      -1.034994       -28.1636
  40   1.0000      -1.020735       -27.7756
  41   1.0000      -0.963904       -26.2292
  42   1.0000      -0.933773       -25.4093
  43   1.0000      -0.901989       -24.5444
  44   1.0000      -0.895942       -24.3798
  45   1.0000      -0.895797       -24.3759
  46   1.0000      -0.888495       -24.1772
  47   1.0000      -0.887739       -24.1566
  48   1.0000      -0.803008       -21.8509
  49   1.0000      -0.759523       -20.6677
  50   1.0000      -0.707041       -19.2396
  51   1.0000      -0.690533       -18.7904
  52   1.0000      -0.676275       -18.4024
  53   1.0000      -0.635645       -17.2968
  54   1.0000      -0.633697       -17.2438
  55   1.0000      -0.625035       -17.0081
  56   1.0000      -0.604439       -16.4476
  57   1.0000      -0.599692       -16.3184
  58   1.0000      -0.596268       -16.2253
  59   1.0000      -0.583448       -15.8764
  60   1.0000      -0.578623       -15.7451
  61   1.0000      -0.556387       -15.1401
  62   1.0000      -0.547447       -14.8968
  63   1.0000      -0.538089       -14.6422
  64   1.0000      -0.524026       -14.2595
  65   1.0000      -0.521721       -14.1967
  66   1.0000      -0.501684       -13.6515
  67   1.0000      -0.468228       -12.7411
  68   1.0000      -0.464956       -12.6521
  69   1.0000      -0.445862       -12.1325
  70   1.0000      -0.434728       -11.8295
  71   1.0000      -0.424269       -11.5450
  72   1.0000      -0.419869       -11.4252
  73   1.0000      -0.415484       -11.3059
  74   1.0000      -0.411828       -11.2064
  75   1.0000      -0.411050       -11.1852
  76   1.0000      -0.408226       -11.1084
  77   0.0000       0.004218         0.1148
  78   0.0000       0.013820         0.3761
  79   0.0000       0.020259         0.5513
  80   0.0000       0.021000         0.5714
  81   0.0000       0.030272         0.8237

                 SPIN DOWN ORBITALS
  NO   OCC          E(Eh)            E(eV)
   0   1.0000    -261.539477     -7116.8510
   1   1.0000    -104.772377     -2851.0013
   2   1.0000    -104.772196     -2850.9964
   3   1.0000    -104.766145     -2850.8317
   4   1.0000     -32.048842      -872.0933
   5   1.0000     -27.527018      -749.0482
   6   1.0000     -27.526772      -749.0415
   7   1.0000     -27.526162      -749.0250
   8   1.0000     -20.532691      -558.7229
   9   1.0000     -11.415399      -310.6288
  10   1.0000     -11.335666      -308.4592
  11   1.0000     -11.296104      -307.3826
  12   1.0000     -11.287478      -307.1479
  13   1.0000     -11.282220      -307.0048
  14   1.0000     -11.265230      -306.5425
  15   1.0000     -11.237070      -305.7762
  16   1.0000     -11.230698      -305.6028
  17   1.0000     -10.498894      -285.6894
  18   1.0000     -10.498622      -285.6820
  19   1.0000     -10.492614      -285.5186
  20   1.0000      -7.964729      -216.7313
  21   1.0000      -7.964543      -216.7262
  22   1.0000      -7.964321      -216.7202
  23   1.0000      -7.964246      -216.7181
  24   1.0000      -7.964062      -216.7131
  25   1.0000      -7.963964      -216.7105
  26   1.0000      -7.958622      -216.5651
  27   1.0000      -7.957824      -216.5434
  28   1.0000      -7.957758      -216.5416
  29   1.0000      -4.124228      -112.2259
  30   1.0000      -2.646208       -72.0070
  31   1.0000      -2.646059       -72.0029
  32   1.0000      -2.645228       -71.9803
  33   1.0000      -1.328981       -36.1634
  34   1.0000      -1.186724       -32.2924
  35   1.0000      -1.092019       -29.7153
  36   1.0000      -1.036323       -28.1998
  37   1.0000      -1.030544       -28.0425
  38   1.0000      -1.022718       -27.8296
  39   1.0000      -1.018134       -27.7048
  40   1.0000      -1.014736       -27.6124
  41   1.0000      -0.963132       -26.2081
  42   1.0000      -0.931605       -25.3503
  43   1.0000      -0.806132       -21.9360
  44   1.0000      -0.765356       -20.8264
  45   1.0000      -0.707577       -19.2541
  46   1.0000      -0.690383       -18.7863
  47   1.0000      -0.676939       -18.4204
  48   1.0000      -0.636957       -17.3325
  49   1.0000      -0.634646       -17.2696
  50   1.0000      -0.623258       -16.9597
  51   1.0000      -0.604772       -16.4567
  52   1.0000      -0.599034       -16.3006
  53   1.0000      -0.595205       -16.1963
  54   1.0000      -0.583009       -15.8645
  55   1.0000      -0.577126       -15.7044
  56   1.0000      -0.556126       -15.1330
  57   1.0000      -0.544342       -14.8123
  58   1.0000      -0.537436       -14.6244
  59   1.0000      -0.521623       -14.1941
  60   1.0000      -0.516678       -14.0595
  61   1.0000      -0.498020       -13.5518
  62   1.0000      -0.467619       -12.7246
  63   1.0000      -0.463349       -12.6084
  64   1.0000      -0.452310       -12.3080
  65   1.0000      -0.442908       -12.0521
  66   1.0000      -0.434795       -11.8314
  67   1.0000      -0.429820       -11.6960
  68   1.0000      -0.429397       -11.6845
  69   1.0000      -0.409285       -11.1372
  70   1.0000      -0.400773       -10.9056
  71   1.0000      -0.397500       -10.8165
  72   0.0000       0.004155         0.1131
  73   0.0000       0.013362         0.3636
  74   0.0000       0.020220         0.5502
  75   0.0000       0.020951         0.5701
  76   0.0000       0.030304         0.8246

E(0)                                       ...  -3028.433903562
E(0)                                       ...  -3028.433903562
E(CORR)(strong-pairs)                      ...     -2.868528497
E(CORR)(weak-pairs)                        ...     -0.035927377
E(CORR)(corrected)                         ...     -2.904455874
E(TOT)                                     ...  -3031.338359436
E(CCSD(T))                                 ...  -3031.455713637
FINAL SINGLE POINT ENERGY     -3031.455713636918

DIPOLE MOMENT
-------------
                                X             Y             Z
Electronic contribution:     39.39258       4.74295       2.26016
Nuclear contribution   :    -44.37086      -4.07630      -2.65061
                        -----------------------------------------
Total Dipole Moment    :     -4.97828       0.66665      -0.39045
                        -----------------------------------------
Magnitude (a.u.)       :      5.03787
Magnitude (Debye)      :     12.80526

Rotational constants in cm-1:     0.018898     0.012060     0.010862
Rotational constants in MHz :   566.555146   361.563511   325.623991

                             ****ORCA TERMINATED NORMALLY****
TOTAL RUN TIME: 0 days 20 hours 18 minutes 4 seconds 64 msec
