                         Program Version 4.1.2  - RELEASE  -
|  1> ! aug-cc-pVTZ aug-cc-pVTZ/C DLPNO-CCSD(T1) TightSCF NormalPNO UNO MiniPrint AutoAux
|  2> %pal nproc 10 end
|  3> %maxcore 20000
|  4> %mdci
|  5>      density none
|  6> end
|  7>
|  8> * xyz 0 6
|  9>  O     -0.42367600     -0.15807100     -0.48330600
| 10>  C     -1.37025000     -1.23099200     -0.36787300
| 11>  C     -2.87390700     -0.08437400     -0.18271800
| 12>  C     -1.96726300      1.09949800     -0.29396900
| 13>  C     -1.85613200      1.79555100     -1.60406500
| 14> Fe      1.37654700      0.05373400      0.04866300
| 15> Cl      1.85728400      2.01296000     -0.85094100
| 16>  C     -1.56649100      1.86567200      0.91616200
| 17> Cl      2.43261000     -1.70452900     -0.73015900
| 18> Cl      1.36756700      0.15425700      2.25768300
| 19>  H     -3.46634400     -0.21793800     -1.08926600
| 20>  H     -2.42061100      2.50801500      1.18289200
| 21>  H     -1.35066400      1.22282700      1.76979100
| 22>  H     -0.70452300      2.50503700      0.71534500
| 23>  H     -2.64669000      2.56285600     -1.62590600
| 24>  H     -0.88929900      2.29415400     -1.70610400
| 25>  H     -2.02124600      1.11674400     -2.44252800
| 26>  C     -3.68191900     -0.28404800      1.08146200
| 27>  H     -4.45969900      0.48339500      1.18583300
| 28>  H     -4.18488500     -1.25531200      1.04838500
| 29>  H     -3.06547200     -0.25975500      1.98335300
| 30>  C     -1.16692500     -2.07115700      0.86391700
| 31>  H     -1.98020500     -2.79344800      0.98378900
| 32>  H     -0.22818700     -2.63018400      0.75369300
| 33>  H     -1.08080900     -1.46158100      1.76508600
| 34>  C     -1.46298700     -2.00227400     -1.65885400
| 35>  H     -0.49910600     -2.49654300     -1.83640100
| 36>  H     -2.24608900     -2.76557800     -1.60824600
| 37>  H     -1.65859500     -1.33817200     -2.50479400
| 38> *
| 39>
| 40>
| 41>                          ****END OF INPUT****

CARTESIAN COORDINATES (ANGSTROEM)
---------------------------------
  O     -0.423676   -0.158071   -0.483306
  C     -1.370250   -1.230992   -0.367873
  C     -2.873907   -0.084374   -0.182718
  C     -1.967263    1.099498   -0.293969
  C     -1.856132    1.795551   -1.604065
  Fe     1.376547    0.053734    0.048663
  Cl     1.857284    2.012960   -0.850941
  C     -1.566491    1.865672    0.916162
  Cl     2.432610   -1.704529   -0.730159
  Cl     1.367567    0.154257    2.257683
  H     -3.466344   -0.217938   -1.089266
  H     -2.420611    2.508015    1.182892
  H     -1.350664    1.222827    1.769791
  H     -0.704523    2.505037    0.715345
  H     -2.646690    2.562856   -1.625906
  H     -0.889299    2.294154   -1.706104
  H     -2.021246    1.116744   -2.442528
  C     -3.681919   -0.284048    1.081462
  H     -4.459699    0.483395    1.185833
  H     -4.184885   -1.255312    1.048385
  H     -3.065472   -0.259755    1.983353
  C     -1.166925   -2.071157    0.863917
  H     -1.980205   -2.793448    0.983789
  H     -0.228187   -2.630184    0.753693
  H     -1.080809   -1.461581    1.765086
  C     -1.462987   -2.002274   -1.658854
  H     -0.499106   -2.496543   -1.836401
  H     -2.246089   -2.765578   -1.608246
  H     -1.658595   -1.338172   -2.504794

ORBITAL ENERGIES
----------------
                 SPIN UP ORBITALS
  NO   OCC          E(Eh)            E(eV)
   0   1.0000    -261.553185     -7117.2240
   1   1.0000    -104.779901     -2851.2060
   2   1.0000    -104.777587     -2851.1431
   3   1.0000    -104.777154     -2851.1313
   4   1.0000     -32.221093      -876.7805
   5   1.0000     -27.697067      -753.6755
   6   1.0000     -27.696750      -753.6669
   7   1.0000     -27.696502      -753.6601
   8   1.0000     -20.567291      -559.6645
   9   1.0000     -11.396190      -310.1061
  10   1.0000     -11.357903      -309.0643
  11   1.0000     -11.287572      -307.1504
  12   1.0000     -11.273113      -306.7570
  13   1.0000     -11.270890      -306.6965
  14   1.0000     -11.258926      -306.3709
  15   1.0000     -11.242648      -305.9280
  16   1.0000     -11.240258      -305.8630
  17   1.0000     -10.506488      -285.8961
  18   1.0000     -10.504230      -285.8346
  19   1.0000     -10.503770      -285.8221
  20   1.0000      -7.973304      -216.9646
  21   1.0000      -7.972575      -216.9448
  22   1.0000      -7.972510      -216.9430
  23   1.0000      -7.971114      -216.9050
  24   1.0000      -7.970571      -216.8903
  25   1.0000      -7.970284      -216.8825
  26   1.0000      -7.970240      -216.8813
  27   1.0000      -7.969880      -216.8715
  28   1.0000      -7.969817      -216.8697
  29   1.0000      -4.576446      -124.5314
  30   1.0000      -3.188927       -86.7751
  31   1.0000      -3.188561       -86.7652
  32   1.0000      -3.187972       -86.7491
  33   1.0000      -1.367063       -37.1997
  34   1.0000      -1.161874       -31.6162
  35   1.0000      -1.082330       -29.4517
  36   1.0000      -1.051507       -28.6130
  37   1.0000      -1.045477       -28.4489
  38   1.0000      -1.044417       -28.4200
  39   1.0000      -1.038642       -28.2629
  40   1.0000      -1.006034       -27.3756
  41   1.0000      -0.971037       -26.4233
  42   1.0000      -0.926472       -25.2106
  43   1.0000      -0.906398       -24.6643
  44   1.0000      -0.905915       -24.6512
  45   1.0000      -0.904132       -24.6027
  46   1.0000      -0.897282       -24.4163
  47   1.0000      -0.896640       -24.3988
  48   1.0000      -0.788680       -21.4611
  49   1.0000      -0.758373       -20.6364
  50   1.0000      -0.692227       -18.8365
  51   1.0000      -0.684764       -18.6334
  52   1.0000      -0.667431       -18.1617
  53   1.0000      -0.641661       -17.4605
  54   1.0000      -0.627632       -17.0787
  55   1.0000      -0.623980       -16.9794
  56   1.0000      -0.596246       -16.2247
  57   1.0000      -0.594757       -16.1842
  58   1.0000      -0.588339       -16.0095
  59   1.0000      -0.580347       -15.7920
  60   1.0000      -0.570986       -15.5373
  61   1.0000      -0.560434       -15.2502
  62   1.0000      -0.546629       -14.8745
  63   1.0000      -0.538800       -14.6615
  64   1.0000      -0.533889       -14.5279
  65   1.0000      -0.525396       -14.2968
  66   1.0000      -0.508418       -13.8348
  67   1.0000      -0.483957       -13.1691
  68   1.0000      -0.465994       -12.6803
  69   1.0000      -0.455522       -12.3954
  70   1.0000      -0.435192       -11.8422
  71   1.0000      -0.429099       -11.6764
  72   1.0000      -0.425919       -11.5898
  73   1.0000      -0.419788       -11.4230
  74   1.0000      -0.417022       -11.3477
  75   1.0000      -0.416046       -11.3212
  76   1.0000      -0.390577       -10.6281
  77   0.0000       0.009352         0.2545
  78   0.0000       0.020875         0.5680
  79   0.0000       0.023125         0.6293
  80   0.0000       0.031113         0.8466
  81   0.0000       0.037838         1.0296

                 SPIN DOWN ORBITALS
  NO   OCC          E(Eh)            E(eV)
   0   1.0000    -261.549632     -7117.1273
   1   1.0000    -104.778543     -2851.1691
   2   1.0000    -104.776182     -2851.1048
   3   1.0000    -104.775697     -2851.0917
   4   1.0000     -32.059141      -872.3736
   5   1.0000     -27.537152      -749.3240
   6   1.0000     -27.537006      -749.3200
   7   1.0000     -27.536622      -749.3096
   8   1.0000     -20.562052      -559.5219
   9   1.0000     -11.396238      -310.1074
  10   1.0000     -11.357867      -309.0633
  11   1.0000     -11.287289      -307.1427
  12   1.0000     -11.273092      -306.7564
  13   1.0000     -11.270899      -306.6968
  14   1.0000     -11.258938      -306.3713
  15   1.0000     -11.242602      -305.9268
  16   1.0000     -11.240241      -305.8625
  17   1.0000     -10.505033      -285.8565
  18   1.0000     -10.502721      -285.7936
  19   1.0000     -10.502212      -285.7797
  20   1.0000      -7.970997      -216.9019
  21   1.0000      -7.970332      -216.8838
  22   1.0000      -7.970266      -216.8820
  23   1.0000      -7.968616      -216.8371
  24   1.0000      -7.968186      -216.8254
  25   1.0000      -7.968031      -216.8212
  26   1.0000      -7.967962      -216.8193
  27   1.0000      -7.967412      -216.8043
  28   1.0000      -7.967359      -216.8029
  29   1.0000      -4.134403      -112.5028
  30   1.0000      -2.656307       -72.2818
  31   1.0000      -2.656114       -72.2765
  32   1.0000      -2.655301       -72.2544
  33   1.0000      -1.353268       -36.8243
  34   1.0000      -1.160549       -31.5801
  35   1.0000      -1.079632       -29.3783
  36   1.0000      -1.037974       -28.2447
  37   1.0000      -1.036463       -28.2036
  38   1.0000      -1.025524       -27.9059
  39   1.0000      -1.023733       -27.8572
  40   1.0000      -1.005759       -27.3681
  41   1.0000      -0.970516       -26.4091
  42   1.0000      -0.918023       -24.9807
  43   1.0000      -0.792479       -21.5645
  44   1.0000      -0.762014       -20.7355
  45   1.0000      -0.692338       -18.8395
  46   1.0000      -0.684503       -18.6263
  47   1.0000      -0.667942       -18.1756
  48   1.0000      -0.642567       -17.4851
  49   1.0000      -0.625877       -17.0310
  50   1.0000      -0.624205       -16.9855
  51   1.0000      -0.595386       -16.2013
  52   1.0000      -0.594644       -16.1811
  53   1.0000      -0.588342       -16.0096
  54   1.0000      -0.578312       -15.7367
  55   1.0000      -0.570818       -15.5328
  56   1.0000      -0.560391       -15.2490
  57   1.0000      -0.544287       -14.8108
  58   1.0000      -0.538343       -14.6491
  59   1.0000      -0.532725       -14.4962
  60   1.0000      -0.520067       -14.1517
  61   1.0000      -0.506106       -13.7719
  62   1.0000      -0.479755       -13.0548
  63   1.0000      -0.470344       -12.7987
  64   1.0000      -0.466059       -12.6821
  65   1.0000      -0.440688       -11.9917
  66   1.0000      -0.438027       -11.9193
  67   1.0000      -0.435884       -11.8610
  68   1.0000      -0.424811       -11.5597
  69   1.0000      -0.415253       -11.2996
  70   1.0000      -0.403157       -10.9705
  71   1.0000      -0.390703       -10.6316
  72   0.0000       0.009330         0.2539
  73   0.0000       0.020780         0.5654
  74   0.0000       0.023104         0.6287
  75   0.0000       0.031161         0.8479
  76   0.0000       0.037834         1.0295

E(0)                                       ...  -3028.419429526
E(0)                                       ...  -3028.419429526
E(CORR)(strong-pairs)                      ...     -2.875339967
E(CORR)(weak-pairs)                        ...     -0.035954596
E(CORR)(corrected)                         ...     -2.911294563
E(TOT)                                     ...  -3031.330724089
E(CCSD(T))                                 ...  -3031.450466743
FINAL SINGLE POINT ENERGY     -3031.450466742950

DIPOLE MOMENT
-------------
                                X             Y             Z
Electronic contribution:     40.21572       3.57453       2.03437
Nuclear contribution   :    -44.58220      -3.27168      -2.49250
                        -----------------------------------------
Total Dipole Moment    :     -4.36647       0.30285      -0.45813
                        -----------------------------------------
Magnitude (a.u.)       :      4.40087
Magnitude (Debye)      :     11.18613

Rotational constants in cm-1:     0.018841     0.011979     0.010801
Rotational constants in MHz :   564.842095   359.125380   323.815727

                             ****ORCA TERMINATED NORMALLY****
TOTAL RUN TIME: 0 days 22 hours 6 minutes 53 seconds 901 msec
