                         Program Version 4.1.2  - RELEASE  -
|  1> ! aug-cc-pVTZ aug-cc-pVTZ/C DLPNO-CCSD(T1) TightSCF NormalPNO UNO MiniPrint AutoAux
|  2> %pal nproc 10 end
|  3> %maxcore 20000
|  4> %mdci
|  5>      density none
|  6> end
|  7>
|  8> * xyz 0 6
|  9>  O     -0.28400700     -0.22623400     -0.74212800
| 10>  C     -1.09703600     -1.18188200     -0.61940400
| 11>  C     -3.19425900      0.00102300      0.22017300
| 12>  C     -2.43674300      1.03355700     -0.21189700
| 13>  C     -2.50697100      1.52148000     -1.63037600
| 14> Fe      1.47112600      0.10467500      0.05126200
| 15> Cl      2.10569400      1.98483000     -0.84877200
| 16>  C     -1.57251400      1.86563600      0.68920300
| 17> Cl      2.54438200     -1.69309300     -0.60025500
| 18> Cl      1.26973500      0.17628300      2.23690200
| 19>  H     -3.86022300     -0.46622400     -0.50433000
| 20>  H     -2.12674400      2.77030000      0.97596900
| 21>  H     -1.27175800      1.35687600      1.60534900
| 22>  H     -0.67215400      2.20510900      0.16777400
| 23>  H     -2.80223400      2.57866000     -1.63741200
| 24>  H     -1.51953600      1.47066200     -2.10477400
| 25>  H     -3.23220400      0.96678200     -2.23224500
| 26>  C     -3.41401100     -0.40948400      1.65068800
| 27>  H     -4.31898200      0.07518100      2.04192000
| 28>  H     -3.57276100     -1.48883100      1.74446200
| 29>  H     -2.58741400     -0.12882000      2.30818500
| 30>  C     -1.02020100     -2.09027300      0.56796700
| 31>  H     -1.91334500     -2.70505700      0.67942900
| 32>  H     -0.16316000     -2.75474800      0.37920300
| 33>  H     -0.80615300     -1.54134000      1.48536000
| 34>  C     -1.77058900     -1.68887000     -1.86020200
| 35>  H     -1.05883200     -2.39667100     -2.31101800
| 36>  H     -2.69401700     -2.22787500     -1.64485500
| 37>  H     -1.94055500     -0.88913800     -2.57959100
| 38> *
| 39>
| 40>
| 41>                          ****END OF INPUT****

CARTESIAN COORDINATES (ANGSTROEM)
---------------------------------
  O     -0.284007   -0.226234   -0.742128
  C     -1.097036   -1.181882   -0.619404
  C     -3.194259    0.001023    0.220173
  C     -2.436743    1.033557   -0.211897
  C     -2.506971    1.521480   -1.630376
  Fe     1.471126    0.104675    0.051262
  Cl     2.105694    1.984830   -0.848772
  C     -1.572514    1.865636    0.689203
  Cl     2.544382   -1.693093   -0.600255
  Cl     1.269735    0.176283    2.236902
  H     -3.860223   -0.466224   -0.504330
  H     -2.126744    2.770300    0.975969
  H     -1.271758    1.356876    1.605349
  H     -0.672154    2.205109    0.167774
  H     -2.802234    2.578660   -1.637412
  H     -1.519536    1.470662   -2.104774
  H     -3.232204    0.966782   -2.232245
  C     -3.414011   -0.409484    1.650688
  H     -4.318982    0.075181    2.041920
  H     -3.572761   -1.488831    1.744462
  H     -2.587414   -0.128820    2.308185
  C     -1.020201   -2.090273    0.567967
  H     -1.913345   -2.705057    0.679429
  H     -0.163160   -2.754748    0.379203
  H     -0.806153   -1.541340    1.485360
  C     -1.770589   -1.688870   -1.860202
  H     -1.058832   -2.396671   -2.311018
  H     -2.694017   -2.227875   -1.644855
  H     -1.940555   -0.889138   -2.579591

ORBITAL ENERGIES
----------------
                 SPIN UP ORBITALS
  NO   OCC          E(Eh)            E(eV)
   0   1.0000    -261.573908     -7117.7879
   1   1.0000    -104.791662     -2851.5261
   2   1.0000    -104.789426     -2851.4652
   3   1.0000    -104.788133     -2851.4301
   4   1.0000     -32.241616      -877.3390
   5   1.0000     -27.718061      -754.2468
   6   1.0000     -27.716980      -754.2174
   7   1.0000     -27.716819      -754.2130
   8   1.0000     -20.610009      -560.8269
   9   1.0000     -11.422308      -310.8168
  10   1.0000     -11.276689      -306.8543
  11   1.0000     -11.275155      -306.8126
  12   1.0000     -11.271234      -306.7059
  13   1.0000     -11.246244      -306.0258
  14   1.0000     -11.243681      -305.9561
  15   1.0000     -11.242008      -305.9106
  16   1.0000     -11.233434      -305.6773
  17   1.0000     -10.518357      -286.2190
  18   1.0000     -10.516083      -286.1572
  19   1.0000     -10.514743      -286.1207
  20   1.0000      -7.985194      -217.2882
  21   1.0000      -7.984436      -217.2675
  22   1.0000      -7.984387      -217.2662
  23   1.0000      -7.982974      -217.2278
  24   1.0000      -7.982177      -217.2061
  25   1.0000      -7.982101      -217.2040
  26   1.0000      -7.981532      -217.1885
  27   1.0000      -7.980866      -217.1704
  28   1.0000      -7.980814      -217.1690
  29   1.0000      -4.596562      -125.0788
  30   1.0000      -3.209701       -87.3404
  31   1.0000      -3.208002       -87.2942
  32   1.0000      -3.207841       -87.2898
  33   1.0000      -1.459665       -39.7195
  34   1.0000      -1.131812       -30.7982
  35   1.0000      -1.100400       -29.9434
  36   1.0000      -1.064913       -28.9778
  37   1.0000      -1.059392       -28.8275
  38   1.0000      -1.057077       -28.7645
  39   1.0000      -1.023570       -27.8527
  40   1.0000      -1.011132       -27.5143
  41   1.0000      -0.962102       -26.1801
  42   1.0000      -0.941322       -25.6147
  43   1.0000      -0.925605       -25.1870
  44   1.0000      -0.925466       -25.1832
  45   1.0000      -0.914712       -24.8906
  46   1.0000      -0.914500       -24.8848
  47   1.0000      -0.900933       -24.5156
  48   1.0000      -0.811064       -22.0702
  49   1.0000      -0.733230       -19.9522
  50   1.0000      -0.709608       -19.3094
  51   1.0000      -0.701420       -19.0866
  52   1.0000      -0.689360       -18.7584
  53   1.0000      -0.658358       -17.9148
  54   1.0000      -0.625206       -17.0127
  55   1.0000      -0.621171       -16.9029
  56   1.0000      -0.602938       -16.4068
  57   1.0000      -0.600839       -16.3497
  58   1.0000      -0.585245       -15.9253
  59   1.0000      -0.579539       -15.7701
  60   1.0000      -0.559945       -15.2369
  61   1.0000      -0.556656       -15.1474
  62   1.0000      -0.553376       -15.0581
  63   1.0000      -0.541085       -14.7237
  64   1.0000      -0.533318       -14.5123
  65   1.0000      -0.528234       -14.3740
  66   1.0000      -0.500791       -13.6272
  67   1.0000      -0.497007       -13.5242
  68   1.0000      -0.476434       -12.9644
  69   1.0000      -0.473613       -12.8877
  70   1.0000      -0.445312       -12.1176
  71   1.0000      -0.439138       -11.9496
  72   1.0000      -0.437724       -11.9111
  73   1.0000      -0.429126       -11.6771
  74   1.0000      -0.427589       -11.6353
  75   1.0000      -0.427199       -11.6247
  76   1.0000      -0.360881        -9.8201
  77   0.0000       0.012769         0.3475
  78   0.0000       0.023637         0.6432
  79   0.0000       0.024081         0.6553
  80   0.0000       0.030470         0.8291
  81   0.0000       0.039474         1.0742

                 SPIN DOWN ORBITALS
  NO   OCC          E(Eh)            E(eV)
   0   1.0000    -261.570336     -7117.6907
   1   1.0000    -104.790172     -2851.4856
   2   1.0000    -104.787894     -2851.4236
   3   1.0000    -104.786599     -2851.3883
   4   1.0000     -32.079626      -872.9310
   5   1.0000     -27.557557      -749.8792
   6   1.0000     -27.557478      -749.8771
   7   1.0000     -27.557330      -749.8731
   8   1.0000     -20.606433      -560.7295
   9   1.0000     -11.422165      -310.8129
  10   1.0000     -11.276586      -306.8515
  11   1.0000     -11.275226      -306.8145
  12   1.0000     -11.271231      -306.7058
  13   1.0000     -11.246097      -306.0219
  14   1.0000     -11.243695      -305.9565
  15   1.0000     -11.241995      -305.9102
  16   1.0000     -11.233443      -305.6775
  17   1.0000     -10.516765      -286.1757
  18   1.0000     -10.514447      -286.1126
  19   1.0000     -10.513112      -286.0763
  20   1.0000      -7.982681      -217.2198
  21   1.0000      -7.981956      -217.2001
  22   1.0000      -7.981906      -217.1987
  23   1.0000      -7.980314      -217.1554
  24   1.0000      -7.979672      -217.1379
  25   1.0000      -7.979571      -217.1352
  26   1.0000      -7.979102      -217.1224
  27   1.0000      -7.978230      -217.0987
  28   1.0000      -7.978149      -217.0965
  29   1.0000      -4.154427      -113.0477
  30   1.0000      -2.675987       -72.8173
  31   1.0000      -2.675936       -72.8159
  32   1.0000      -2.675528       -72.8048
  33   1.0000      -1.450737       -39.4766
  34   1.0000      -1.131446       -30.7882
  35   1.0000      -1.098012       -29.8784
  36   1.0000      -1.049430       -28.5565
  37   1.0000      -1.036982       -28.2177
  38   1.0000      -1.034803       -28.1584
  39   1.0000      -1.023049       -27.8386
  40   1.0000      -1.010451       -27.4958
  41   1.0000      -0.961949       -26.1760
  42   1.0000      -0.901194       -24.5227
  43   1.0000      -0.824107       -22.4251
  44   1.0000      -0.733283       -19.9536
  45   1.0000      -0.712042       -19.3756
  46   1.0000      -0.700607       -19.0645
  47   1.0000      -0.688497       -18.7350
  48   1.0000      -0.658311       -17.9136
  49   1.0000      -0.625074       -17.0091
  50   1.0000      -0.620730       -16.8909
  51   1.0000      -0.602709       -16.4005
  52   1.0000      -0.600816       -16.3490
  53   1.0000      -0.584918       -15.9164
  54   1.0000      -0.578832       -15.7508
  55   1.0000      -0.559296       -15.2192
  56   1.0000      -0.556291       -15.1375
  57   1.0000      -0.551157       -14.9977
  58   1.0000      -0.541078       -14.7235
  59   1.0000      -0.530452       -14.4343
  60   1.0000      -0.520346       -14.1593
  61   1.0000      -0.501495       -13.6464
  62   1.0000      -0.496851       -13.5200
  63   1.0000      -0.483305       -13.1514
  64   1.0000      -0.481685       -13.1073
  65   1.0000      -0.452516       -12.3136
  66   1.0000      -0.449361       -12.2277
  67   1.0000      -0.446729       -12.1561
  68   1.0000      -0.430634       -11.7182
  69   1.0000      -0.428159       -11.6508
  70   1.0000      -0.412305       -11.2194
  71   1.0000      -0.360032        -9.7970
  72   0.0000       0.012755         0.3471
  73   0.0000       0.023611         0.6425
  74   0.0000       0.024052         0.6545
  75   0.0000       0.030433         0.8281
  76   0.0000       0.039382         1.0716

E(0)                                       ...  -3028.453654395
E(0)                                       ...  -3028.453654395
E(CORR)(strong-pairs)                      ...     -2.869100543
E(CORR)(weak-pairs)                        ...     -0.036240416
E(CORR)(corrected)                         ...     -2.905340959
E(TOT)                                     ...  -3031.358995354
E(CCSD(T))                                 ...  -3031.477367630
FINAL SINGLE POINT ENERGY     -3031.477367630338

DIPOLE MOMENT
-------------
                                X             Y             Z
Electronic contribution:     43.38400       2.96066       2.23918
Nuclear contribution   :    -46.86830      -4.09381      -2.85357
                        -----------------------------------------
Total Dipole Moment    :     -3.48430      -1.13315      -0.61440
                        -----------------------------------------
Magnitude (a.u.)       :      3.71509
Magnitude (Debye)      :      9.44301

Rotational constants in cm-1:     0.019156     0.010865     0.010237
Rotational constants in MHz :   574.281197   325.709927   306.910361

                             ****ORCA TERMINATED NORMALLY****
TOTAL RUN TIME: 0 days 17 hours 25 minutes 41 seconds 729 msec
