                         Program Version 4.1.2  - RELEASE  -
|  1> ! aug-cc-pVTZ aug-cc-pVTZ/C DLPNO-CCSD(T1) TightSCF NormalPNO UNO MiniPrint AutoAux
|  2> %pal nproc 10 end
|  3> %maxcore 20000
|  4> %mdci
|  5>      density none
|  6> end
|  7>
|  8> * xyz 0 6
|  9>  O      0.28718800      0.17571700     -0.45019100
| 10>  C      1.14888200      1.09982900     -0.16598000
| 11>  C      2.62512300      0.16912100      0.90965700
| 12>  C      3.15270200     -0.63417300     -0.08558200
| 13>  C      4.30306200     -0.20081100     -0.93211500
| 14> Fe     -1.56146900     -0.16888100     -0.11013400
| 15> Cl     -1.91621300     -2.06708000     -1.14036400
| 16>  C      2.50512500     -1.93387500     -0.40909100
| 17> Cl     -2.53424600      1.60618100     -0.96615000
| 18> Cl     -1.86877500     -0.30968800      2.06642500
| 19>  H      3.20619800      1.06047800      1.14414700
| 20>  H      3.02220100     -2.48042900     -1.20055100
| 21>  H      2.40894100     -2.57438800      0.47467000
| 22>  H      1.47178900     -1.71638400     -0.73535600
| 23>  H      5.14134000     -0.88952700     -0.75388300
| 24>  H      4.06646600     -0.28167600     -2.00047300
| 25>  H      4.63989700      0.81350500     -0.70789100
| 26>  C      1.85552500     -0.44439200      2.06539500
| 27>  H      2.45566200     -1.22909400      2.54035800
| 28>  H      1.62839600      0.30142000      2.82824000
| 29>  H      0.91184500     -0.89067700      1.74543000
| 30>  C      0.74437000      2.10684300      0.89995000
| 31>  H      1.57630400      2.73725100      1.22092900
| 32>  H     -0.01319100      2.74498200      0.42528000
| 33>  H      0.27263200      1.62841000      1.75749100
| 34>  C      1.83569700      1.70974700     -1.37257700
| 35>  H      1.10850000      2.39287800     -1.82897300
| 36>  H      2.72547200      2.28508200     -1.10604200
| 37>  H      2.08227400      0.94956300     -2.11479400
| 38> *
| 39>
| 40>
| 41>                          ****END OF INPUT****

CARTESIAN COORDINATES (ANGSTROEM)
---------------------------------
  O      0.287188    0.175717   -0.450191
  C      1.148882    1.099829   -0.165980
  C      2.625123    0.169121    0.909657
  C      3.152702   -0.634173   -0.085582
  C      4.303062   -0.200811   -0.932115
  Fe    -1.561469   -0.168881   -0.110134
  Cl    -1.916213   -2.067080   -1.140364
  C      2.505125   -1.933875   -0.409091
  Cl    -2.534246    1.606181   -0.966150
  Cl    -1.868775   -0.309688    2.066425
  H      3.206198    1.060478    1.144147
  H      3.022201   -2.480429   -1.200551
  H      2.408941   -2.574388    0.474670
  H      1.471789   -1.716384   -0.735356
  H      5.141340   -0.889527   -0.753883
  H      4.066466   -0.281676   -2.000473
  H      4.639897    0.813505   -0.707891
  C      1.855525   -0.444392    2.065395
  H      2.455662   -1.229094    2.540358
  H      1.628396    0.301420    2.828240
  H      0.911845   -0.890677    1.745430
  C      0.744370    2.106843    0.899950
  H      1.576304    2.737251    1.220929
  H     -0.013191    2.744982    0.425280
  H      0.272632    1.628410    1.757491
  C      1.835697    1.709747   -1.372577
  H      1.108500    2.392878   -1.828973
  H      2.725472    2.285082   -1.106042
  H      2.082274    0.949563   -2.114794

ORBITAL ENERGIES
----------------
                 SPIN UP ORBITALS
  NO   OCC          E(Eh)            E(eV)
   0   1.0000    -261.555818     -7117.2956
   1   1.0000    -104.778026     -2851.1550
   2   1.0000    -104.775614     -2851.0894
   3   1.0000    -104.774950     -2851.0713
   4   1.0000     -32.223650      -876.8501
   5   1.0000     -27.699876      -753.7520
   6   1.0000     -27.699125      -753.7315
   7   1.0000     -27.698991      -753.7279
   8   1.0000     -20.576257      -559.9084
   9   1.0000     -11.397415      -310.1394
  10   1.0000     -11.337812      -308.5176
  11   1.0000     -11.280254      -306.9513
  12   1.0000     -11.271894      -306.7238
  13   1.0000     -11.262333      -306.4637
  14   1.0000     -11.261058      -306.4290
  15   1.0000     -11.256300      -306.2995
  16   1.0000     -11.246005      -306.0193
  17   1.0000     -10.504691      -285.8472
  18   1.0000     -10.502252      -285.7808
  19   1.0000     -10.501549      -285.7617
  20   1.0000      -7.971546      -216.9168
  21   1.0000      -7.970750      -216.8951
  22   1.0000      -7.970722      -216.8944
  23   1.0000      -7.969124      -216.8509
  24   1.0000      -7.968359      -216.8301
  25   1.0000      -7.968348      -216.8298
  26   1.0000      -7.968265      -216.8275
  27   1.0000      -7.967679      -216.8116
  28   1.0000      -7.967587      -216.8091
  29   1.0000      -4.578867      -124.5973
  30   1.0000      -3.191802       -86.8533
  31   1.0000      -3.190583       -86.8202
  32   1.0000      -3.190297       -86.8124
  33   1.0000      -1.415922       -38.5292
  34   1.0000      -1.169601       -31.8265
  35   1.0000      -1.082420       -29.4541
  36   1.0000      -1.050090       -28.5744
  37   1.0000      -1.044942       -28.4343
  38   1.0000      -1.042454       -28.3666
  39   1.0000      -1.040072       -28.3018
  40   1.0000      -0.996815       -27.1247
  41   1.0000      -0.989371       -26.9222
  42   1.0000      -0.924840       -25.1662
  43   1.0000      -0.918131       -24.9836
  44   1.0000      -0.908101       -24.7107
  45   1.0000      -0.908058       -24.7095
  46   1.0000      -0.898254       -24.4427
  47   1.0000      -0.897847       -24.4317
  48   1.0000      -0.793768       -21.5995
  49   1.0000      -0.761719       -20.7274
  50   1.0000      -0.690324       -18.7847
  51   1.0000      -0.686721       -18.6866
  52   1.0000      -0.677383       -18.4325
  53   1.0000      -0.671685       -18.2775
  54   1.0000      -0.651039       -17.7157
  55   1.0000      -0.626616       -17.0511
  56   1.0000      -0.604575       -16.4513
  57   1.0000      -0.594873       -16.1873
  58   1.0000      -0.587369       -15.9831
  59   1.0000      -0.578372       -15.7383
  60   1.0000      -0.570292       -15.5184
  61   1.0000      -0.566751       -15.4221
  62   1.0000      -0.560299       -15.2465
  63   1.0000      -0.544565       -14.8184
  64   1.0000      -0.534215       -14.5367
  65   1.0000      -0.523906       -14.2562
  66   1.0000      -0.515268       -14.0212
  67   1.0000      -0.480588       -13.0775
  68   1.0000      -0.463823       -12.6213
  69   1.0000      -0.455920       -12.4062
  70   1.0000      -0.431465       -11.7408
  71   1.0000      -0.427108       -11.6222
  72   1.0000      -0.424420       -11.5491
  73   1.0000      -0.416173       -11.3246
  74   1.0000      -0.414493       -11.2789
  75   1.0000      -0.413843       -11.2612
  76   1.0000      -0.384976       -10.4757
  77   0.0000       0.007474         0.2034
  78   0.0000       0.019121         0.5203
  79   0.0000       0.020111         0.5473
  80   0.0000       0.023525         0.6402
  81   0.0000       0.030646         0.8339

                 SPIN DOWN ORBITALS
  NO   OCC          E(Eh)            E(eV)
   0   1.0000    -261.552255     -7117.1987
   1   1.0000    -104.776580     -2851.1157
   2   1.0000    -104.774143     -2851.0494
   3   1.0000    -104.773486     -2851.0315
   4   1.0000     -32.061575      -872.4398
   5   1.0000     -27.539541      -749.3890
   6   1.0000     -27.539477      -749.3873
   7   1.0000     -27.539173      -749.3790
   8   1.0000     -20.572157      -559.7969
   9   1.0000     -11.397401      -310.1390
  10   1.0000     -11.336933      -308.4936
  11   1.0000     -11.280370      -306.9545
  12   1.0000     -11.272306      -306.7350
  13   1.0000     -11.262232      -306.4609
  14   1.0000     -11.261164      -306.4318
  15   1.0000     -11.256324      -306.3001
  16   1.0000     -11.245983      -306.0188
  17   1.0000     -10.503142      -285.8050
  18   1.0000     -10.500676      -285.7379
  19   1.0000     -10.499987      -285.7192
  20   1.0000      -7.969046      -216.8488
  21   1.0000      -7.968394      -216.8310
  22   1.0000      -7.968336      -216.8294
  23   1.0000      -7.966577      -216.7816
  24   1.0000      -7.965966      -216.7649
  25   1.0000      -7.965939      -216.7642
  26   1.0000      -7.965843      -216.7616
  27   1.0000      -7.965198      -216.7441
  28   1.0000      -7.965101      -216.7414
  29   1.0000      -4.136547      -112.5612
  30   1.0000      -2.658235       -72.3343
  31   1.0000      -2.658165       -72.3323
  32   1.0000      -2.657559       -72.3159
  33   1.0000      -1.405421       -38.2434
  34   1.0000      -1.167848       -31.7788
  35   1.0000      -1.080003       -29.3884
  36   1.0000      -1.041034       -28.3280
  37   1.0000      -1.034677       -28.1550
  38   1.0000      -1.022962       -27.8362
  39   1.0000      -1.021144       -27.7867
  40   1.0000      -0.996735       -27.1225
  41   1.0000      -0.988813       -26.9070
  42   1.0000      -0.918791       -25.0016
  43   1.0000      -0.808144       -21.9907
  44   1.0000      -0.762117       -20.7383
  45   1.0000      -0.692118       -18.8335
  46   1.0000      -0.686532       -18.6815
  47   1.0000      -0.678704       -18.4685
  48   1.0000      -0.670444       -18.2437
  49   1.0000      -0.650857       -17.7107
  50   1.0000      -0.625820       -17.0294
  51   1.0000      -0.604176       -16.4405
  52   1.0000      -0.594411       -16.1747
  53   1.0000      -0.587300       -15.9813
  54   1.0000      -0.578345       -15.7376
  55   1.0000      -0.569906       -15.5079
  56   1.0000      -0.566662       -15.4197
  57   1.0000      -0.560181       -15.2433
  58   1.0000      -0.543785       -14.7971
  59   1.0000      -0.531992       -14.4762
  60   1.0000      -0.523696       -14.2505
  61   1.0000      -0.506402       -13.7799
  62   1.0000      -0.478463       -13.0196
  63   1.0000      -0.468424       -12.7465
  64   1.0000      -0.466569       -12.6960
  65   1.0000      -0.439293       -11.9538
  66   1.0000      -0.436319       -11.8728
  67   1.0000      -0.434176       -11.8145
  68   1.0000      -0.421312       -11.4645
  69   1.0000      -0.414153       -11.2697
  70   1.0000      -0.399608       -10.8739
  71   1.0000      -0.383033       -10.4229
  72   0.0000       0.007476         0.2034
  73   0.0000       0.019297         0.5251
  74   0.0000       0.020205         0.5498
  75   0.0000       0.023544         0.6407
  76   0.0000       0.030495         0.8298

E(0)                                       ...  -3028.432855498
E(0)                                       ...  -3028.432855498
E(CORR)(strong-pairs)                      ...     -2.874386287
E(CORR)(weak-pairs)                        ...     -0.035641371
E(CORR)(corrected)                         ...     -2.910027658
E(TOT)                                     ...  -3031.342883157
E(CCSD(T))                                 ...  -3031.463533240
FINAL SINGLE POINT ENERGY     -3031.463533240353

DIPOLE MOMENT
-------------
                                X             Y             Z
Electronic contribution:    -44.84999      -5.61795      -2.09065
Nuclear contribution   :     49.83770       6.36195       2.08143
                        -----------------------------------------
Total Dipole Moment    :      4.98771       0.74400      -0.00923
                        -----------------------------------------
Magnitude (a.u.)       :      5.04290
Magnitude (Debye)      :     12.81804

Rotational constants in cm-1:     0.020168     0.009839     0.009432
Rotational constants in MHz :   604.628508   294.969719   282.767184

                             ****ORCA TERMINATED NORMALLY****
TOTAL RUN TIME: 0 days 18 hours 40 minutes 8 seconds 866 msec
