                         Program Version 4.1.2  - RELEASE  -
|  1> ! aug-cc-pVTZ aug-cc-pVTZ/C DLPNO-CCSD(T1) TightSCF NormalPNO UNO MiniPrint AutoAux
|  2> %pal nproc 10 end
|  3> %maxcore 20000
|  4> %mdci
|  5>      density none
|  6> end
|  7>
|  8> * xyz 0 6
|  9>  O     -0.24606200     -0.29201900     -0.83397900
| 10>  C     -1.07913800     -1.22677600     -0.65734800
| 11>  C     -2.95694400     -0.17831500      0.51614400
| 12>  C     -2.59559900      0.95383100     -0.13401000
| 13>  C     -3.09732000      1.26961000     -1.51343600
| 14> Fe      1.46099700      0.14366800      0.00387800
| 15> Cl      2.05749100      2.02052100     -0.92932100
| 16>  C     -1.68205900      1.98952200      0.44353900
| 17> Cl      2.66837100     -1.60840600     -0.51372900
| 18> Cl      1.12788600      0.30379200      2.17355800
| 19>  H     -3.68710000     -0.82015600      0.02485900
| 20>  H     -2.22084900      2.94149600      0.54142500
| 21>  H     -1.27425500      1.72461400      1.41805400
| 22>  H     -0.84594100      2.18024800     -0.24138500
| 23>  H     -3.60890900      2.24060000     -1.50517000
| 24>  H     -2.25937400      1.36953900     -2.21625500
| 25>  H     -3.79954000      0.52172800     -1.89035600
| 26>  C     -2.75311800     -0.44028200      1.98781500
| 27>  H     -3.53220600      0.07529100      2.56491000
| 28>  H     -2.83984000     -1.50459400      2.22188300
| 29>  H     -1.78637900     -0.09027000      2.35725800
| 30>  C     -0.86374700     -2.22816700      0.43949000
| 31>  H     -1.74510700     -2.84511500      0.61779200
| 32>  H     -0.05002200     -2.87771400      0.08385300
| 33>  H     -0.52393300     -1.76196500      1.36373000
| 34>  C     -1.85821900     -1.68265000     -1.86044700
| 35>  H     -1.20820300     -2.40658400     -2.37287100
| 36>  H     -2.78440300     -2.19375400     -1.59451300
| 37>  H     -2.04822400     -0.86365100     -2.55133300
| 38> *
| 39>
| 40>
| 41>                          ****END OF INPUT****

CARTESIAN COORDINATES (ANGSTROEM)
---------------------------------
  O     -0.246062   -0.292019   -0.833979
  C     -1.079138   -1.226776   -0.657348
  C     -2.956944   -0.178315    0.516144
  C     -2.595599    0.953831   -0.134010
  C     -3.097320    1.269610   -1.513436
  Fe     1.460997    0.143668    0.003878
  Cl     2.057491    2.020521   -0.929321
  C     -1.682059    1.989522    0.443539
  Cl     2.668371   -1.608406   -0.513729
  Cl     1.127886    0.303792    2.173558
  H     -3.687100   -0.820156    0.024859
  H     -2.220849    2.941496    0.541425
  H     -1.274255    1.724614    1.418054
  H     -0.845941    2.180248   -0.241385
  H     -3.608909    2.240600   -1.505170
  H     -2.259374    1.369539   -2.216255
  H     -3.799540    0.521728   -1.890356
  C     -2.753118   -0.440282    1.987815
  H     -3.532206    0.075291    2.564910
  H     -2.839840   -1.504594    2.221883
  H     -1.786379   -0.090270    2.357258
  C     -0.863747   -2.228167    0.439490
  H     -1.745107   -2.845115    0.617792
  H     -0.050022   -2.877714    0.083853
  H     -0.523933   -1.761965    1.363730
  C     -1.858219   -1.682650   -1.860447
  H     -1.208203   -2.406584   -2.372871
  H     -2.784403   -2.193754   -1.594513
  H     -2.048224   -0.863651   -2.551333

ORBITAL ENERGIES
----------------
                 SPIN UP ORBITALS
  NO   OCC          E(Eh)            E(eV)
   0   1.0000    -261.571876     -7117.7326
   1   1.0000    -104.791376     -2851.5183
   2   1.0000    -104.787866     -2851.4228
   3   1.0000    -104.786121     -2851.3753
   4   1.0000     -32.239631      -877.2850
   5   1.0000     -27.716018      -754.1912
   6   1.0000     -27.715026      -754.1642
   7   1.0000     -27.714840      -754.1591
   8   1.0000     -20.608782      -560.7935
   9   1.0000     -11.419551      -310.7418
  10   1.0000     -11.280746      -306.9647
  11   1.0000     -11.274857      -306.8045
  12   1.0000     -11.269188      -306.6502
  13   1.0000     -11.249896      -306.1252
  14   1.0000     -11.249030      -306.1017
  15   1.0000     -11.239635      -305.8460
  16   1.0000     -11.234099      -305.6954
  17   1.0000     -10.518077      -286.2114
  18   1.0000     -10.514544      -286.1153
  19   1.0000     -10.512751      -286.0665
  20   1.0000      -7.984921      -217.2807
  21   1.0000      -7.984142      -217.2596
  22   1.0000      -7.984100      -217.2584
  23   1.0000      -7.981417      -217.1854
  24   1.0000      -7.980641      -217.1643
  25   1.0000      -7.980585      -217.1627
  26   1.0000      -7.979546      -217.1345
  27   1.0000      -7.978875      -217.1162
  28   1.0000      -7.978822      -217.1148
  29   1.0000      -4.594595      -125.0253
  30   1.0000      -3.207658       -87.2848
  31   1.0000      -3.206091       -87.2422
  32   1.0000      -3.205912       -87.2373
  33   1.0000      -1.453726       -39.5579
  34   1.0000      -1.135481       -30.8980
  35   1.0000      -1.097535       -29.8654
  36   1.0000      -1.064010       -28.9532
  37   1.0000      -1.058206       -28.7952
  38   1.0000      -1.055311       -28.7165
  39   1.0000      -1.024984       -27.8912
  40   1.0000      -1.007041       -27.4030
  41   1.0000      -0.964858       -26.2551
  42   1.0000      -0.939369       -25.5615
  43   1.0000      -0.923584       -25.1320
  44   1.0000      -0.923496       -25.1296
  45   1.0000      -0.913168       -24.8486
  46   1.0000      -0.912455       -24.8292
  47   1.0000      -0.902380       -24.5550
  48   1.0000      -0.808934       -22.0122
  49   1.0000      -0.736627       -20.0446
  50   1.0000      -0.706339       -19.2205
  51   1.0000      -0.696749       -18.9595
  52   1.0000      -0.684642       -18.6300
  53   1.0000      -0.660999       -17.9867
  54   1.0000      -0.627068       -17.0634
  55   1.0000      -0.621569       -16.9137
  56   1.0000      -0.605000       -16.4629
  57   1.0000      -0.598403       -16.2834
  58   1.0000      -0.584709       -15.9107
  59   1.0000      -0.576523       -15.6880
  60   1.0000      -0.561275       -15.2731
  61   1.0000      -0.555210       -15.1080
  62   1.0000      -0.547718       -14.9042
  63   1.0000      -0.545616       -14.8470
  64   1.0000      -0.534881       -14.5549
  65   1.0000      -0.529355       -14.4045
  66   1.0000      -0.500477       -13.6187
  67   1.0000      -0.497950       -13.5499
  68   1.0000      -0.474612       -12.9148
  69   1.0000      -0.472896       -12.8682
  70   1.0000      -0.443816       -12.0768
  71   1.0000      -0.438262       -11.9257
  72   1.0000      -0.436430       -11.8759
  73   1.0000      -0.427747       -11.6396
  74   1.0000      -0.426712       -11.6114
  75   1.0000      -0.425479       -11.5779
  76   1.0000      -0.364199        -9.9104
  77   0.0000       0.012376         0.3368
  78   0.0000       0.023003         0.6259
  79   0.0000       0.023771         0.6469
  80   0.0000       0.030364         0.8262
  81   0.0000       0.038981         1.0607

                 SPIN DOWN ORBITALS
  NO   OCC          E(Eh)            E(eV)
   0   1.0000    -261.568305     -7117.6354
   1   1.0000    -104.789915     -2851.4785
   2   1.0000    -104.786326     -2851.3809
   3   1.0000    -104.784586     -2851.3336
   4   1.0000     -32.077616      -872.8763
   5   1.0000     -27.555524      -749.8239
   6   1.0000     -27.555481      -749.8228
   7   1.0000     -27.555328      -749.8186
   8   1.0000     -20.605045      -560.6918
   9   1.0000     -11.419465      -310.7394
  10   1.0000     -11.280721      -306.9640
  11   1.0000     -11.274746      -306.8014
  12   1.0000     -11.269177      -306.6499
  13   1.0000     -11.249862      -306.1243
  14   1.0000     -11.249033      -306.1017
  15   1.0000     -11.239637      -305.8461
  16   1.0000     -11.234119      -305.6959
  17   1.0000     -10.516514      -286.1689
  18   1.0000     -10.512901      -286.0706
  19   1.0000     -10.511119      -286.0221
  20   1.0000      -7.982421      -217.2127
  21   1.0000      -7.981730      -217.1939
  22   1.0000      -7.981686      -217.1927
  23   1.0000      -7.978790      -217.1139
  24   1.0000      -7.978103      -217.0952
  25   1.0000      -7.978014      -217.0928
  26   1.0000      -7.977104      -217.0680
  27   1.0000      -7.976245      -217.0447
  28   1.0000      -7.976161      -217.0424
  29   1.0000      -4.152433      -112.9934
  30   1.0000      -2.674005       -72.7634
  31   1.0000      -2.674001       -72.7633
  32   1.0000      -2.673448       -72.7482
  33   1.0000      -1.444447       -39.3054
  34   1.0000      -1.135102       -30.8877
  35   1.0000      -1.095037       -29.7975
  36   1.0000      -1.048642       -28.5350
  37   1.0000      -1.036187       -28.1961
  38   1.0000      -1.032953       -28.1081
  39   1.0000      -1.024453       -27.8768
  40   1.0000      -1.006336       -27.3838
  41   1.0000      -0.964757       -26.2524
  42   1.0000      -0.902646       -24.5622
  43   1.0000      -0.822157       -22.3720
  44   1.0000      -0.736707       -20.0468
  45   1.0000      -0.708760       -19.2863
  46   1.0000      -0.695829       -18.9345
  47   1.0000      -0.683897       -18.6098
  48   1.0000      -0.660900       -17.9840
  49   1.0000      -0.627017       -17.0620
  50   1.0000      -0.621048       -16.8996
  51   1.0000      -0.604627       -16.4527
  52   1.0000      -0.598309       -16.2808
  53   1.0000      -0.584446       -15.9036
  54   1.0000      -0.575262       -15.6537
  55   1.0000      -0.560658       -15.2563
  56   1.0000      -0.555061       -15.1040
  57   1.0000      -0.545876       -14.8540
  58   1.0000      -0.545438       -14.8421
  59   1.0000      -0.531378       -14.4595
  60   1.0000      -0.520874       -14.1737
  61   1.0000      -0.500913       -13.6305
  62   1.0000      -0.498626       -13.5683
  63   1.0000      -0.482421       -13.1273
  64   1.0000      -0.479958       -13.0603
  65   1.0000      -0.451504       -12.2860
  66   1.0000      -0.448365       -12.2006
  67   1.0000      -0.445574       -12.1247
  68   1.0000      -0.429546       -11.6885
  69   1.0000      -0.426541       -11.6068
  70   1.0000      -0.411220       -11.1899
  71   1.0000      -0.363272        -9.8851
  72   0.0000       0.012361         0.3364
  73   0.0000       0.022978         0.6253
  74   0.0000       0.023743         0.6461
  75   0.0000       0.030272         0.8237
  76   0.0000       0.038819         1.0563

E(0)                                       ...  -3028.454049888
E(0)                                       ...  -3028.454049888
E(CORR)(strong-pairs)                      ...     -2.870189600
E(CORR)(weak-pairs)                        ...     -0.036091907
E(CORR)(corrected)                         ...     -2.906281507
E(TOT)                                     ...  -3031.360331395
E(CCSD(T))                                 ...  -3031.479024083
FINAL SINGLE POINT ENERGY     -3031.479024082976

DIPOLE MOMENT
-------------
                                X             Y             Z
Electronic contribution:     42.84307       4.47777       1.55207
Nuclear contribution   :    -46.42541      -5.67402      -2.16911
                        -----------------------------------------
Total Dipole Moment    :     -3.58234      -1.19625      -0.61704
                        -----------------------------------------
Magnitude (a.u.)       :      3.82687
Magnitude (Debye)      :      9.72712

Rotational constants in cm-1:     0.018984     0.010939     0.010295
Rotational constants in MHz :   569.121380   327.942880   308.648359

                             ****ORCA TERMINATED NORMALLY****
TOTAL RUN TIME: 0 days 17 hours 56 minutes 29 seconds 98 msec
