                         Program Version 4.1.2  - RELEASE  -
|  1> ! aug-cc-pVTZ aug-cc-pVTZ/C DLPNO-CCSD(T1) TightSCF NormalPNO UNO MiniPrint AutoAux
|  2> %pal nproc 10 end
|  3> %maxcore 20000
|  4> %mdci
|  5>      density none
|  6> end
|  7>
|  8> * xyz 0 6
|  9>  O      0.29166000      0.23924600     -0.61218300
| 10>  C      1.36244000      1.08854000     -0.33569900
| 11>  C      2.73241100      0.09925500     -0.52142700
| 12>  C      2.15907100     -1.20820400     -0.19068200
| 13>  C      1.64029400     -2.06925200     -1.27125900
| 14> Fe     -1.42557800     -0.00375100     -0.00845400
| 15> Cl     -2.25875200     -1.53709500     -1.35900600
| 16>  C      2.05971400     -1.70427100      1.17650300
| 17> Cl     -2.44552400      1.94405500      0.07095400
| 18> Cl     -1.14635300     -0.89221400      2.05493900
| 19>  H      2.93359300      0.13138300     -1.59558500
| 20>  H      2.75851800     -1.25554700      1.88133400
| 21>  H      1.02242300     -1.43288500      1.50453400
| 22>  H      2.08008500     -2.79733200      1.22153100
| 23>  H      2.44453100     -2.79308800     -1.49574300
| 24>  H      0.76410300     -2.64138600     -0.95086500
| 25>  H      1.41181100     -1.50729600     -2.17598400
| 26>  C      3.95156700      0.57153200      0.26706600
| 27>  H      4.81661100     -0.07177500      0.07259700
| 28>  H      4.21615000      1.58474900     -0.04891400
| 29>  H      3.77644600      0.59490000      1.34430800
| 30>  C      1.30119900      1.65559700      1.08033800
| 31>  H      2.13881500      2.32630900      1.28870800
| 32>  H      0.37456300      2.23401600      1.16070800
| 33>  H      1.26149700      0.87518200      1.84285400
| 34>  C      1.43988100      2.19514600     -1.38070400
| 35>  H      0.54745100      2.82201200     -1.27572500
| 36>  H      2.32731300      2.82409900     -1.25052000
| 37>  H      1.43903900      1.76948800     -2.38787700
| 38> *
| 39>
| 40>
| 41>                          ****END OF INPUT****

CARTESIAN COORDINATES (ANGSTROEM)
---------------------------------
  O      0.291660    0.239246   -0.612183
  C      1.362440    1.088540   -0.335699
  C      2.732411    0.099255   -0.521427
  C      2.159071   -1.208204   -0.190682
  C      1.640294   -2.069252   -1.271259
  Fe    -1.425578   -0.003751   -0.008454
  Cl    -2.258752   -1.537095   -1.359006
  C      2.059714   -1.704271    1.176503
  Cl    -2.445524    1.944055    0.070954
  Cl    -1.146353   -0.892214    2.054939
  H      2.933593    0.131383   -1.595585
  H      2.758518   -1.255547    1.881334
  H      1.022423   -1.432885    1.504534
  H      2.080085   -2.797332    1.221531
  H      2.444531   -2.793088   -1.495743
  H      0.764103   -2.641386   -0.950865
  H      1.411811   -1.507296   -2.175984
  C      3.951567    0.571532    0.267066
  H      4.816611   -0.071775    0.072597
  H      4.216150    1.584749   -0.048914
  H      3.776446    0.594900    1.344308
  C      1.301199    1.655597    1.080338
  H      2.138815    2.326309    1.288708
  H      0.374563    2.234016    1.160708
  H      1.261497    0.875182    1.842854
  C      1.439881    2.195146   -1.380704
  H      0.547451    2.822012   -1.275725
  H      2.327313    2.824099   -1.250520
  H      1.439039    1.769488   -2.387877

ORBITAL ENERGIES
----------------
                 SPIN UP ORBITALS
  NO   OCC          E(Eh)            E(eV)
   0   1.0000    -261.541587     -7116.9084
   1   1.0000    -104.775071     -2851.0746
   2   1.0000    -104.769429     -2850.9211
   3   1.0000    -104.768679     -2850.9007
   4   1.0000     -32.209473      -876.4643
   5   1.0000     -27.685494      -753.3606
   6   1.0000     -27.685013      -753.3475
   7   1.0000     -27.685004      -753.3473
   8   1.0000     -20.535490      -558.7991
   9   1.0000     -11.408426      -310.4390
  10   1.0000     -11.342547      -308.6464
  11   1.0000     -11.292380      -307.2813
  12   1.0000     -11.285869      -307.1041
  13   1.0000     -11.283516      -307.0401
  14   1.0000     -11.270018      -306.6728
  15   1.0000     -11.235364      -305.7298
  16   1.0000     -11.234813      -305.7148
  17   1.0000     -10.501633      -285.7640
  18   1.0000     -10.495993      -285.6105
  19   1.0000     -10.495215      -285.5893
  20   1.0000      -7.968527      -216.8347
  21   1.0000      -7.967602      -216.8095
  22   1.0000      -7.967563      -216.8084
  23   1.0000      -7.962783      -216.6783
  24   1.0000      -7.962093      -216.6596
  25   1.0000      -7.962040      -216.6581
  26   1.0000      -7.962021      -216.6576
  27   1.0000      -7.961327      -216.6387
  28   1.0000      -7.961217      -216.6357
  29   1.0000      -4.565044      -124.2212
  30   1.0000      -3.177604       -86.4670
  31   1.0000      -3.177110       -86.4536
  32   1.0000      -3.176810       -86.4454
  33   1.0000      -1.356352       -36.9082
  34   1.0000      -1.193329       -32.4721
  35   1.0000      -1.093150       -29.7461
  36   1.0000      -1.044440       -28.4207
  37   1.0000      -1.038125       -28.2488
  38   1.0000      -1.035407       -28.1749
  39   1.0000      -1.034356       -28.1463
  40   1.0000      -1.022914       -27.8349
  41   1.0000      -0.964131       -26.2353
  42   1.0000      -0.940357       -25.5884
  43   1.0000      -0.902526       -24.5590
  44   1.0000      -0.895085       -24.3565
  45   1.0000      -0.894575       -24.3426
  46   1.0000      -0.887522       -24.1507
  47   1.0000      -0.886438       -24.1212
  48   1.0000      -0.799607       -21.7584
  49   1.0000      -0.761796       -20.7295
  50   1.0000      -0.708744       -19.2859
  51   1.0000      -0.689885       -18.7727
  52   1.0000      -0.675436       -18.3796
  53   1.0000      -0.644621       -17.5410
  54   1.0000      -0.638438       -17.3728
  55   1.0000      -0.626555       -17.0494
  56   1.0000      -0.611552       -16.6412
  57   1.0000      -0.595622       -16.2077
  58   1.0000      -0.589487       -16.0408
  59   1.0000      -0.586575       -15.9615
  60   1.0000      -0.575997       -15.6737
  61   1.0000      -0.558503       -15.1977
  62   1.0000      -0.551208       -14.9991
  63   1.0000      -0.539574       -14.6826
  64   1.0000      -0.532606       -14.4930
  65   1.0000      -0.525870       -14.3097
  66   1.0000      -0.501944       -13.6586
  67   1.0000      -0.468991       -12.7619
  68   1.0000      -0.461157       -12.5487
  69   1.0000      -0.441377       -12.0105
  70   1.0000      -0.432064       -11.7571
  71   1.0000      -0.422370       -11.4933
  72   1.0000      -0.418756       -11.3949
  73   1.0000      -0.412829       -11.2337
  74   1.0000      -0.409555       -11.1446
  75   1.0000      -0.409216       -11.1353
  76   1.0000      -0.408460       -11.1148
  77   0.0000       0.004856         0.1321
  78   0.0000       0.007019         0.1910
  79   0.0000       0.019831         0.5396
  80   0.0000       0.020511         0.5581
  81   0.0000       0.029705         0.8083

                 SPIN DOWN ORBITALS
  NO   OCC          E(Eh)            E(eV)
   0   1.0000    -261.538040     -7116.8119
   1   1.0000    -104.773845     -2851.0413
   2   1.0000    -104.768025     -2850.8829
   3   1.0000    -104.767343     -2850.8643
   4   1.0000     -32.047480      -872.0563
   5   1.0000     -27.525616      -749.0101
   6   1.0000     -27.525440      -749.0053
   7   1.0000     -27.524785      -748.9875
   8   1.0000     -20.528929      -558.6205
   9   1.0000     -11.408426      -310.4391
  10   1.0000     -11.342377      -308.6418
  11   1.0000     -11.292205      -307.2765
  12   1.0000     -11.285868      -307.1041
  13   1.0000     -11.283518      -307.0401
  14   1.0000     -11.270025      -306.6730
  15   1.0000     -11.235292      -305.7278
  16   1.0000     -11.234772      -305.7137
  17   1.0000     -10.500302      -285.7277
  18   1.0000     -10.494491      -285.5696
  19   1.0000     -10.493783      -285.5504
  20   1.0000      -7.966040      -216.7670
  21   1.0000      -7.965860      -216.7621
  22   1.0000      -7.965704      -216.7578
  23   1.0000      -7.960488      -216.6159
  24   1.0000      -7.959774      -216.5964
  25   1.0000      -7.959718      -216.5949
  26   1.0000      -7.959676      -216.5938
  27   1.0000      -7.959092      -216.5779
  28   1.0000      -7.959014      -216.5758
  29   1.0000      -4.123012      -112.1929
  30   1.0000      -2.644999       -71.9741
  31   1.0000      -2.644892       -71.9712
  32   1.0000      -2.644096       -71.9495
  33   1.0000      -1.339179       -36.4409
  34   1.0000      -1.191922       -32.4339
  35   1.0000      -1.090742       -29.6806
  36   1.0000      -1.034133       -28.1402
  37   1.0000      -1.031450       -28.0672
  38   1.0000      -1.023495       -27.8507
  39   1.0000      -1.017081       -27.6762
  40   1.0000      -1.014710       -27.6117
  41   1.0000      -0.963375       -26.2148
  42   1.0000      -0.938072       -25.5262
  43   1.0000      -0.803966       -21.8770
  44   1.0000      -0.767410       -20.8823
  45   1.0000      -0.708788       -19.2871
  46   1.0000      -0.689996       -18.7757
  47   1.0000      -0.677037       -18.4231
  48   1.0000      -0.646565       -17.5939
  49   1.0000      -0.638122       -17.3642
  50   1.0000      -0.625002       -17.0072
  51   1.0000      -0.611572       -16.6417
  52   1.0000      -0.594166       -16.1681
  53   1.0000      -0.589620       -16.0444
  54   1.0000      -0.585917       -15.9436
  55   1.0000      -0.575195       -15.6519
  56   1.0000      -0.557301       -15.1649
  57   1.0000      -0.549969       -14.9654
  58   1.0000      -0.539221       -14.6729
  59   1.0000      -0.530191       -14.4272
  60   1.0000      -0.520261       -14.1570
  61   1.0000      -0.497980       -13.5507
  62   1.0000      -0.466854       -12.7037
  63   1.0000      -0.462375       -12.5819
  64   1.0000      -0.448143       -12.1946
  65   1.0000      -0.437275       -11.8989
  66   1.0000      -0.434537       -11.8244
  67   1.0000      -0.428770       -11.6674
  68   1.0000      -0.427609       -11.6358
  69   1.0000      -0.406000       -11.0478
  70   1.0000      -0.400097       -10.8872
  71   1.0000      -0.396624       -10.7927
  72   0.0000       0.004783         0.1301
  73   0.0000       0.006802         0.1851
  74   0.0000       0.019822         0.5394
  75   0.0000       0.020473         0.5571
  76   0.0000       0.029723         0.8088

E(0)                                       ...  -3028.430841988
E(0)                                       ...  -3028.430841988
E(CORR)(strong-pairs)                      ...     -2.869386623
E(CORR)(weak-pairs)                        ...     -0.035839093
E(CORR)(corrected)                         ...     -2.905225715
E(TOT)                                     ...  -3031.336067703
E(CCSD(T))                                 ...  -3031.453656750
FINAL SINGLE POINT ENERGY     -3031.453656750444

DIPOLE MOMENT
-------------
                                X             Y             Z
Electronic contribution:    -41.29004      -3.96589       1.53030
Nuclear contribution   :     46.38631       3.25210      -1.86838
                        -----------------------------------------
Total Dipole Moment    :      5.09627      -0.71380      -0.33808
                        -----------------------------------------
Magnitude (a.u.)       :      5.15711
Magnitude (Debye)      :     13.10833

Rotational constants in cm-1:     0.019667     0.011498     0.010200
Rotational constants in MHz :   589.590003   344.705015   305.791657

                             ****ORCA TERMINATED NORMALLY****
TOTAL RUN TIME: 0 days 21 hours 49 minutes 7 seconds 148 msec
