                         Program Version 4.1.2  - RELEASE  -
|  1> ! aug-cc-pVTZ aug-cc-pVTZ/C DLPNO-CCSD(T1) TightSCF NormalPNO UNO MiniPrint AutoAux
|  2> %pal nproc 10 end
|  3> %maxcore 20000
|  4> %mdci
|  5>      density none
|  6> end
|  7>
|  8> * xyz 0 6
|  9>  O     -0.34119100     -0.09165500     -0.54861600
| 10>  C     -1.23384800     -1.02955900     -0.49524700
| 11>  C     -3.12105800      0.01275200     -0.05703900
| 12>  C     -2.24696800      1.05649000     -0.21358900
| 13>  C     -2.07245600      1.73341900     -1.53588600
| 14> Fe      1.45317400      0.05751700      0.05468600
| 15> Cl      2.06190900      1.99262600     -0.78152300
| 16>  C     -1.58573400      1.73208900      0.94755000
| 17> Cl      2.40506300     -1.74467000     -0.77410400
| 18> Cl      1.41203300      0.03092200      2.26043000
| 19>  H     -3.67385300     -0.29615800     -0.94135100
| 20>  H     -2.29659400      2.46642800      1.35348800
| 21>  H     -1.32188000      1.04891400      1.75591600
| 22>  H     -0.68732700      2.26990900      0.63835900
| 23>  H     -2.52831600      2.73045000     -1.45557200
| 24>  H     -1.01403800      1.87808600     -1.76791500
| 25>  H     -2.56969700      1.20632900     -2.35326200
| 26>  C     -3.70977200     -0.44003400      1.25325400
| 27>  H     -4.63241000      0.12213900      1.45033200
| 28>  H     -3.98303900     -1.49925500      1.22933600
| 29>  H     -3.04277900     -0.27809300      2.10258100
| 30>  C     -1.18882100     -1.96556300      0.68042700
| 31>  H     -2.05964900     -2.61909700      0.73696600
| 32>  H     -0.29865800     -2.59079300      0.51574000
| 33>  H     -1.03505800     -1.43509900      1.62052100
| 34>  C     -1.63681200     -1.62452800     -1.81980100
| 35>  H     -0.77840800     -2.23418900     -2.13654300
| 36>  H     -2.51578800     -2.26764300     -1.74290100
| 37>  H     -1.78576000     -0.85542700     -2.57827400
| 38> *
| 39>
| 40>
| 41>                          ****END OF INPUT****

CARTESIAN COORDINATES (ANGSTROEM)
---------------------------------
  O     -0.341191   -0.091655   -0.548616
  C     -1.233848   -1.029559   -0.495247
  C     -3.121058    0.012752   -0.057039
  C     -2.246968    1.056490   -0.213589
  C     -2.072456    1.733419   -1.535886
  Fe     1.453174    0.057517    0.054686
  Cl     2.061909    1.992626   -0.781523
  C     -1.585734    1.732089    0.947550
  Cl     2.405063   -1.744670   -0.774104
  Cl     1.412033    0.030922    2.260430
  H     -3.673853   -0.296158   -0.941351
  H     -2.296594    2.466428    1.353488
  H     -1.321880    1.048914    1.755916
  H     -0.687327    2.269909    0.638359
  H     -2.528316    2.730450   -1.455572
  H     -1.014038    1.878086   -1.767915
  H     -2.569697    1.206329   -2.353262
  C     -3.709772   -0.440034    1.253254
  H     -4.632410    0.122139    1.450332
  H     -3.983039   -1.499255    1.229336
  H     -3.042779   -0.278093    2.102581
  C     -1.188821   -1.965563    0.680427
  H     -2.059649   -2.619097    0.736966
  H     -0.298658   -2.590793    0.515740
  H     -1.035058   -1.435099    1.620521
  C     -1.636812   -1.624528   -1.819801
  H     -0.778408   -2.234189   -2.136543
  H     -2.515788   -2.267643   -1.742901
  H     -1.785760   -0.855427   -2.578274

ORBITAL ENERGIES
----------------
                 SPIN UP ORBITALS
  NO   OCC          E(Eh)            E(eV)
   0   1.0000    -261.561417     -7117.4480
   1   1.0000    -104.782949     -2851.2890
   2   1.0000    -104.782329     -2851.2721
   3   1.0000    -104.781740     -2851.2561
   4   1.0000     -32.229258      -877.0027
   5   1.0000     -27.705446      -753.9035
   6   1.0000     -27.704759      -753.8848
   7   1.0000     -27.704628      -753.8812
   8   1.0000     -20.574874      -559.8708
   9   1.0000     -11.412248      -310.5431
  10   1.0000     -11.321258      -308.0671
  11   1.0000     -11.267339      -306.5999
  12   1.0000     -11.263733      -306.5017
  13   1.0000     -11.263012      -306.4821
  14   1.0000     -11.255098      -306.2668
  15   1.0000     -11.253906      -306.2343
  16   1.0000     -11.250154      -306.1322
  17   1.0000     -10.509582      -285.9803
  18   1.0000     -10.508908      -285.9619
  19   1.0000     -10.508289      -285.9451
  20   1.0000      -7.976453      -217.0503
  21   1.0000      -7.975766      -217.0316
  22   1.0000      -7.975646      -217.0284
  23   1.0000      -7.975601      -217.0271
  24   1.0000      -7.975087      -217.0132
  25   1.0000      -7.975005      -217.0109
  26   1.0000      -7.974919      -217.0086
  27   1.0000      -7.974405      -216.9946
  28   1.0000      -7.974326      -216.9924
  29   1.0000      -4.584572      -124.7526
  30   1.0000      -3.197523       -87.0090
  31   1.0000      -3.196353       -86.9772
  32   1.0000      -3.195962       -86.9665
  33   1.0000      -1.429827       -38.9076
  34   1.0000      -1.155524       -31.4434
  35   1.0000      -1.093095       -29.7446
  36   1.0000      -1.055728       -28.7278
  37   1.0000      -1.050282       -28.5796
  38   1.0000      -1.048766       -28.5384
  39   1.0000      -1.033925       -28.1345
  40   1.0000      -1.002953       -27.2917
  41   1.0000      -0.979252       -26.6468
  42   1.0000      -0.932437       -25.3729
  43   1.0000      -0.916485       -24.9388
  44   1.0000      -0.914087       -24.8736
  45   1.0000      -0.913967       -24.8703
  46   1.0000      -0.904282       -24.6068
  47   1.0000      -0.903844       -24.5948
  48   1.0000      -0.796416       -21.6716
  49   1.0000      -0.751000       -20.4358
  50   1.0000      -0.699241       -19.0273
  51   1.0000      -0.693339       -18.8667
  52   1.0000      -0.685432       -18.6516
  53   1.0000      -0.667461       -18.1625
  54   1.0000      -0.638128       -17.3643
  55   1.0000      -0.619930       -16.8691
  56   1.0000      -0.602254       -16.3882
  57   1.0000      -0.598025       -16.2731
  58   1.0000      -0.582471       -15.8499
  59   1.0000      -0.575821       -15.6689
  60   1.0000      -0.572254       -15.5718
  61   1.0000      -0.567831       -15.4515
  62   1.0000      -0.550078       -14.9684
  63   1.0000      -0.547668       -14.9028
  64   1.0000      -0.543948       -14.8016
  65   1.0000      -0.519197       -14.1281
  66   1.0000      -0.516160       -14.0454
  67   1.0000      -0.488794       -13.3008
  68   1.0000      -0.470096       -12.7920
  69   1.0000      -0.461187       -12.5495
  70   1.0000      -0.437980       -11.9181
  71   1.0000      -0.432245       -11.7620
  72   1.0000      -0.430518       -11.7150
  73   1.0000      -0.422805       -11.5051
  74   1.0000      -0.420735       -11.4488
  75   1.0000      -0.420435       -11.4406
  76   1.0000      -0.369895       -10.0654
  77   0.0000       0.011441         0.3113
  78   0.0000       0.022011         0.5989
  79   0.0000       0.023131         0.6294
  80   0.0000       0.030315         0.8249
  81   0.0000       0.039012         1.0616

                 SPIN DOWN ORBITALS
  NO   OCC          E(Eh)            E(eV)
   0   1.0000    -261.557862     -7117.3513
   1   1.0000    -104.781513     -2851.2499
   2   1.0000    -104.780868     -2851.2324
   3   1.0000    -104.780308     -2851.2171
   4   1.0000     -32.067237      -872.5939
   5   1.0000     -27.545195      -749.5429
   6   1.0000     -27.545127      -749.5410
   7   1.0000     -27.544818      -749.5326
   8   1.0000     -20.570362      -559.7480
   9   1.0000     -11.412126      -310.5397
  10   1.0000     -11.321322      -308.0688
  11   1.0000     -11.267245      -306.5973
  12   1.0000     -11.263361      -306.4916
  13   1.0000     -11.262986      -306.4814
  14   1.0000     -11.255139      -306.2679
  15   1.0000     -11.253887      -306.2338
  16   1.0000     -11.250165      -306.1326
  17   1.0000     -10.508044      -285.9384
  18   1.0000     -10.507343      -285.9193
  19   1.0000     -10.506763      -285.9036
  20   1.0000      -7.973943      -216.9820
  21   1.0000      -7.973318      -216.9650
  22   1.0000      -7.973248      -216.9631
  23   1.0000      -7.973245      -216.9630
  24   1.0000      -7.972747      -216.9495
  25   1.0000      -7.972604      -216.9456
  26   1.0000      -7.972509      -216.9430
  27   1.0000      -7.971986      -216.9288
  28   1.0000      -7.971895      -216.9263
  29   1.0000      -4.142344      -112.7189
  30   1.0000      -2.664015       -72.4915
  31   1.0000      -2.663923       -72.4890
  32   1.0000      -2.663532       -72.4784
  33   1.0000      -1.418358       -38.5955
  34   1.0000      -1.154622       -31.4189
  35   1.0000      -1.090456       -29.6728
  36   1.0000      -1.040838       -28.3226
  37   1.0000      -1.033384       -28.1198
  38   1.0000      -1.028887       -27.9974
  39   1.0000      -1.027992       -27.9731
  40   1.0000      -1.002154       -27.2700
  41   1.0000      -0.979174       -26.6447
  42   1.0000      -0.918912       -25.0049
  43   1.0000      -0.810403       -22.0522
  44   1.0000      -0.751071       -20.4377
  45   1.0000      -0.699999       -19.0479
  46   1.0000      -0.695590       -18.9280
  47   1.0000      -0.683891       -18.6096
  48   1.0000      -0.667164       -18.1545
  49   1.0000      -0.638066       -17.3627
  50   1.0000      -0.619765       -16.8647
  51   1.0000      -0.601545       -16.3689
  52   1.0000      -0.597977       -16.2718
  53   1.0000      -0.582214       -15.8428
  54   1.0000      -0.575471       -15.6594
  55   1.0000      -0.572175       -15.5697
  56   1.0000      -0.567501       -15.4425
  57   1.0000      -0.549863       -14.9625
  58   1.0000      -0.546300       -14.8656
  59   1.0000      -0.540600       -14.7105
  60   1.0000      -0.516932       -14.0664
  61   1.0000      -0.511366       -13.9150
  62   1.0000      -0.486004       -13.2249
  63   1.0000      -0.474295       -12.9062
  64   1.0000      -0.472016       -12.8442
  65   1.0000      -0.444656       -12.0997
  66   1.0000      -0.441978       -12.0268
  67   1.0000      -0.439757       -11.9664
  68   1.0000      -0.426338       -11.6012
  69   1.0000      -0.420009       -11.4290
  70   1.0000      -0.406364       -11.0577
  71   1.0000      -0.368406       -10.0248
  72   0.0000       0.011438         0.3112
  73   0.0000       0.021973         0.5979
  74   0.0000       0.023106         0.6287
  75   0.0000       0.030340         0.8256
  76   0.0000       0.038987         1.0609

E(0)                                       ...  -3028.423807621
E(0)                                       ...  -3028.423807621
E(CORR)(strong-pairs)                      ...     -2.873222511
E(CORR)(weak-pairs)                        ...     -0.036009603
E(CORR)(corrected)                         ...     -2.909232114
E(TOT)                                     ...  -3031.333039734
E(CCSD(T))                                 ...  -3031.452824838
FINAL SINGLE POINT ENERGY     -3031.452824838367

DIPOLE MOMENT
-------------
                                X             Y             Z
Electronic contribution:     42.35434       2.35495       2.18568
Nuclear contribution   :    -46.44148      -2.86552      -2.69672
                        -----------------------------------------
Total Dipole Moment    :     -4.08714      -0.51057      -0.51104
                        -----------------------------------------
Magnitude (a.u.)       :      4.15049
Magnitude (Debye)      :     10.54970

Rotational constants in cm-1:     0.019586     0.011183     0.010469
Rotational constants in MHz :   587.163957   335.267849   313.844259

                             ****ORCA TERMINATED NORMALLY****
TOTAL RUN TIME: 0 days 20 hours 26 minutes 36 seconds 848 msec
