                         Program Version 4.1.2  - RELEASE  -
|  1> ! aug-cc-pVTZ aug-cc-pVTZ/C DLPNO-CCSD(T1) TightSCF NormalPNO UNO MiniPrint AutoAux
|  2> %pal nproc 10 end
|  3> %maxcore 20000
|  4> %mdci
|  5>      density none
|  6> end
|  7>
|  8> * xyz 0 6
|  9>  O     -0.32479700     -0.09729100     -0.41117400
| 10>  C     -1.24111400     -1.06011800     -0.23589000
| 11>  C     -2.53201900     -0.39380600      0.73986300
| 12>  C     -2.98279600      0.70379000     -0.04608700
| 13>  C     -4.10954600      0.56061900     -1.00288900
| 14> Fe      1.50083100      0.17320800     -0.08828700
| 15> Cl      1.79637900      2.21675900     -0.85851700
| 16>  C     -2.22906000      1.95306900     -0.03698400
| 17> Cl      2.53583100     -1.43950600     -1.17135000
| 18> Cl      1.81803900      0.06031100      2.10087900
| 19>  H     -3.25745200     -1.21034600      0.75469400
| 20>  H     -2.65555300      2.74394400     -0.65507700
| 21>  H     -1.99175300      2.31326400      0.96822400
| 22>  H     -1.23443900      1.63457400     -0.44506600
| 23>  H     -4.94148600      1.17427600     -0.62297100
| 24>  H     -3.85322000      0.97758300     -1.98442800
| 25>  H     -4.46011200     -0.46699300     -1.10738400
| 26>  C     -1.96609400     -0.06449100      2.12518700
| 27>  H     -2.63864200      0.61455500      2.65930100
| 28>  H     -1.87419000     -0.97394400      2.72045500
| 29>  H     -0.97794000      0.39528800      2.06183900
| 30>  C     -0.73771900     -2.24360700      0.60538200
| 31>  H     -1.54173100     -2.94535700      0.84585300
| 32>  H      0.01193100     -2.76116800     -0.00295200
| 33>  H     -0.24697700     -1.91094500      1.51987800
| 34>  C     -1.79925400     -1.54427000     -1.57734200
| 35>  H     -0.99844700     -2.09090300     -2.08471300
| 36>  H     -2.65426700     -2.21746500     -1.45611600
| 37>  H     -2.07756500     -0.70715500     -2.22133700
| 38> *
| 39>
| 40>
| 41>                          ****END OF INPUT****

CARTESIAN COORDINATES (ANGSTROEM)
---------------------------------
  O     -0.324797   -0.097291   -0.411174
  C     -1.241114   -1.060118   -0.235890
  C     -2.532019   -0.393806    0.739863
  C     -2.982796    0.703790   -0.046087
  C     -4.109546    0.560619   -1.002889
  Fe     1.500831    0.173208   -0.088287
  Cl     1.796379    2.216759   -0.858517
  C     -2.229060    1.953069   -0.036984
  Cl     2.535831   -1.439506   -1.171350
  Cl     1.818039    0.060311    2.100879
  H     -3.257452   -1.210346    0.754694
  H     -2.655553    2.743944   -0.655077
  H     -1.991753    2.313264    0.968224
  H     -1.234439    1.634574   -0.445066
  H     -4.941486    1.174276   -0.622971
  H     -3.853220    0.977583   -1.984428
  H     -4.460112   -0.466993   -1.107384
  C     -1.966094   -0.064491    2.125187
  H     -2.638642    0.614555    2.659301
  H     -1.874190   -0.973944    2.720455
  H     -0.977940    0.395288    2.061839
  C     -0.737719   -2.243607    0.605382
  H     -1.541731   -2.945357    0.845853
  H      0.011931   -2.761168   -0.002952
  H     -0.246977   -1.910945    1.519878
  C     -1.799254   -1.544270   -1.577342
  H     -0.998447   -2.090903   -2.084713
  H     -2.654267   -2.217465   -1.456116
  H     -2.077565   -0.707155   -2.221337

ORBITAL ENERGIES
----------------
                 SPIN UP ORBITALS
  NO   OCC          E(Eh)            E(eV)
   0   1.0000    -261.540839     -7116.8880
   1   1.0000    -104.768349     -2850.8917
   2   1.0000    -104.766962     -2850.8540
   3   1.0000    -104.765389     -2850.8112
   4   1.0000     -32.208763      -876.4450
   5   1.0000     -27.684686      -753.3386
   6   1.0000     -27.684437      -753.3318
   7   1.0000     -27.684228      -753.3261
   8   1.0000     -20.541148      -558.9531
   9   1.0000     -11.393017      -310.0198
  10   1.0000     -11.356253      -309.0194
  11   1.0000     -11.304735      -307.6175
  12   1.0000     -11.289999      -307.2165
  13   1.0000     -11.276518      -306.8497
  14   1.0000     -11.254032      -306.2378
  15   1.0000     -11.247013      -306.0468
  16   1.0000     -11.236870      -305.7708
  17   1.0000     -10.494964      -285.5825
  18   1.0000     -10.493540      -285.5437
  19   1.0000     -10.492002      -285.5019
  20   1.0000      -7.961836      -216.6526
  21   1.0000      -7.961016      -216.6303
  22   1.0000      -7.960961      -216.6288
  23   1.0000      -7.960366      -216.6126
  24   1.0000      -7.959647      -216.5930
  25   1.0000      -7.959547      -216.5903
  26   1.0000      -7.958847      -216.5712
  27   1.0000      -7.958101      -216.5509
  28   1.0000      -7.958020      -216.5487
  29   1.0000      -4.564218      -124.1987
  30   1.0000      -3.176774       -86.4444
  31   1.0000      -3.176331       -86.4324
  32   1.0000      -3.175814       -86.4183
  33   1.0000      -1.375621       -37.4325
  34   1.0000      -1.200004       -32.6538
  35   1.0000      -1.085443       -29.5364
  36   1.0000      -1.046706       -28.4823
  37   1.0000      -1.039361       -28.2825
  38   1.0000      -1.034137       -28.1403
  39   1.0000      -1.032178       -28.0870
  40   1.0000      -1.019894       -27.7527
  41   1.0000      -0.970168       -26.3996
  42   1.0000      -0.932339       -25.3702
  43   1.0000      -0.907082       -24.6830
  44   1.0000      -0.893768       -24.3207
  45   1.0000      -0.893719       -24.3193
  46   1.0000      -0.885124       -24.0855
  47   1.0000      -0.884783       -24.0762
  48   1.0000      -0.798382       -21.7251
  49   1.0000      -0.769375       -20.9358
  50   1.0000      -0.711763       -19.3681
  51   1.0000      -0.696806       -18.9610
  52   1.0000      -0.675023       -18.3683
  53   1.0000      -0.651675       -17.7330
  54   1.0000      -0.649522       -17.6744
  55   1.0000      -0.635610       -17.2958
  56   1.0000      -0.608214       -16.5503
  57   1.0000      -0.601594       -16.3702
  58   1.0000      -0.590919       -16.0797
  59   1.0000      -0.584282       -15.8991
  60   1.0000      -0.574321       -15.6281
  61   1.0000      -0.562949       -15.3186
  62   1.0000      -0.555279       -15.1099
  63   1.0000      -0.538321       -14.6485
  64   1.0000      -0.534206       -14.5365
  65   1.0000      -0.516721       -14.0607
  66   1.0000      -0.502179       -13.6650
  67   1.0000      -0.464777       -12.6472
  68   1.0000      -0.457463       -12.4482
  69   1.0000      -0.440837       -11.9958
  70   1.0000      -0.427120       -11.6225
  71   1.0000      -0.419286       -11.4094
  72   1.0000      -0.415151       -11.2968
  73   1.0000      -0.408226       -11.1084
  74   1.0000      -0.405818       -11.0429
  75   1.0000      -0.405141       -11.0244
  76   1.0000      -0.404857       -11.0167
  77   0.0000      -0.000087        -0.0024
  78   0.0000       0.001738         0.0473
  79   0.0000       0.017218         0.4685
  80   0.0000       0.018010         0.4901
  81   0.0000       0.027232         0.7410

                 SPIN DOWN ORBITALS
  NO   OCC          E(Eh)            E(eV)
   0   1.0000    -261.537289     -7116.7914
   1   1.0000    -104.766980     -2850.8545
   2   1.0000    -104.765601     -2850.8169
   3   1.0000    -104.763967     -2850.7725
   4   1.0000     -32.046687      -872.0347
   5   1.0000     -27.524749      -748.9865
   6   1.0000     -27.524600      -748.9824
   7   1.0000     -27.524131      -748.9697
   8   1.0000     -20.535605      -558.8022
   9   1.0000     -11.392963      -310.0183
  10   1.0000     -11.356151      -309.0166
  11   1.0000     -11.304744      -307.6177
  12   1.0000     -11.289857      -307.2126
  13   1.0000     -11.276528      -306.8499
  14   1.0000     -11.254061      -306.2386
  15   1.0000     -11.246913      -306.0440
  16   1.0000     -11.236837      -305.7699
  17   1.0000     -10.493492      -285.5424
  18   1.0000     -10.492081      -285.5040
  19   1.0000     -10.490478      -285.4604
  20   1.0000      -7.959385      -216.5859
  21   1.0000      -7.958831      -216.5708
  22   1.0000      -7.958757      -216.5688
  23   1.0000      -7.958046      -216.5494
  24   1.0000      -7.957402      -216.5319
  25   1.0000      -7.957295      -216.5290
  26   1.0000      -7.956420      -216.5052
  27   1.0000      -7.955754      -216.4871
  28   1.0000      -7.955674      -216.4849
  29   1.0000      -4.121938      -112.1636
  30   1.0000      -2.643801       -71.9415
  31   1.0000      -2.643736       -71.9397
  32   1.0000      -2.642837       -71.9152
  33   1.0000      -1.361466       -37.0474
  34   1.0000      -1.199063       -32.6282
  35   1.0000      -1.082995       -29.4698
  36   1.0000      -1.045716       -28.4554
  37   1.0000      -1.025125       -27.8951
  38   1.0000      -1.019215       -27.7343
  39   1.0000      -1.013735       -27.5851
  40   1.0000      -1.012035       -27.5389
  41   1.0000      -0.969505       -26.3816
  42   1.0000      -0.931912       -25.3586
  43   1.0000      -0.804560       -21.8932
  44   1.0000      -0.776159       -21.1204
  45   1.0000      -0.712367       -19.3845
  46   1.0000      -0.696100       -18.9418
  47   1.0000      -0.675140       -18.3715
  48   1.0000      -0.654210       -17.8019
  49   1.0000      -0.648175       -17.6377
  50   1.0000      -0.634812       -17.2741
  51   1.0000      -0.608264       -16.5517
  52   1.0000      -0.601485       -16.3672
  53   1.0000      -0.590386       -16.0652
  54   1.0000      -0.583468       -15.8770
  55   1.0000      -0.573305       -15.6004
  56   1.0000      -0.562637       -15.3101
  57   1.0000      -0.555296       -15.1104
  58   1.0000      -0.538332       -14.6487
  59   1.0000      -0.532524       -14.4907
  60   1.0000      -0.511999       -13.9322
  61   1.0000      -0.495730       -13.4895
  62   1.0000      -0.463125       -12.6023
  63   1.0000      -0.459259       -12.4971
  64   1.0000      -0.448158       -12.1950
  65   1.0000      -0.432086       -11.7577
  66   1.0000      -0.429347       -11.6831
  67   1.0000      -0.426047       -11.5933
  68   1.0000      -0.425192       -11.5701
  69   1.0000      -0.404632       -11.0106
  70   1.0000      -0.395138       -10.7523
  71   1.0000      -0.391654       -10.6575
  72   0.0000      -0.000183        -0.0050
  73   0.0000       0.001715         0.0467
  74   0.0000       0.017213         0.4684
  75   0.0000       0.017994         0.4896
  76   0.0000       0.027244         0.7414

E(0)                                       ...  -3028.426217909
E(0)                                       ...  -3028.426217909
E(CORR)(strong-pairs)                      ...     -2.874082058
E(CORR)(weak-pairs)                        ...     -0.035431947
E(CORR)(corrected)                         ...     -2.909514005
E(TOT)                                     ...  -3031.335731913
E(CCSD(T))                                 ...  -3031.455129734
FINAL SINGLE POINT ENERGY     -3031.455129733698

DIPOLE MOMENT
-------------
                                X             Y             Z
Electronic contribution:     42.26274       6.87960      -1.19224
Nuclear contribution   :    -48.11679      -7.02730       1.13688
                        -----------------------------------------
Total Dipole Moment    :     -5.85405      -0.14770      -0.05537
                        -----------------------------------------
Magnitude (a.u.)       :      5.85618
Magnitude (Debye)      :     14.88522

Rotational constants in cm-1:     0.019973     0.010354     0.009884
Rotational constants in MHz :   598.764018   310.393598   296.315884

                             ****ORCA TERMINATED NORMALLY****
TOTAL RUN TIME: 0 days 20 hours 13 minutes 53 seconds 122 msec
