                         Program Version 4.1.2  - RELEASE  -
|  1> ! aug-cc-pVTZ aug-cc-pVTZ/C DLPNO-CCSD(T1) TightSCF NormalPNO UNO MiniPrint AutoAux
|  2> %pal nproc 10 end
|  3> %maxcore 20000
|  4> %mdci
|  5>      density none
|  6> end
|  7>
|  8> * xyz 0 6
|  9>  O     -0.25789500     -0.26422800     -0.80476700
| 10>  C     -1.12110700     -1.18488500     -0.63257500
| 11>  C     -2.86100700     -0.25356300      0.54869200
| 12>  C     -2.63030500      0.92753800     -0.08789200
| 13>  C     -3.24552500      1.24391100     -1.41817400
| 14> Fe      1.45862700      0.14623600     -0.01317400
| 15> Cl      2.02455500      2.04707400     -0.92640000
| 16>  C     -1.72077700      1.98434800      0.44799600
| 17> Cl      2.67672200     -1.58634200     -0.57276500
| 18> Cl      1.16619800      0.28814000      2.16732100
| 19>  H     -3.60157600     -0.91410100      0.10051500
| 20>  H     -2.25526300      2.94084100      0.51101600
| 21>  H     -1.30078000      1.75227100      1.42557700
| 22>  H     -0.89035300      2.14233500     -0.25380300
| 23>  H     -3.82218300      2.17445700     -1.33931300
| 24>  H     -2.46717500      1.42776400     -2.17083100
| 25>  H     -3.91664700      0.45868600     -1.77353100
| 26>  C     -2.58852000     -0.49327000      2.01609100
| 27>  H     -3.33322200      0.04499400      2.61634800
| 28>  H     -2.67963900     -1.55165100      2.27049100
| 29>  H     -1.60080900     -0.15242000      2.33327200
| 30>  C     -0.85073600     -2.25757500      0.38947300
| 31>  H     -1.72221400     -2.88630600      0.57707600
| 32>  H     -0.06015500     -2.88083200     -0.05291100
| 33>  H     -0.45925400     -1.85317800      1.32217200
| 34>  C     -1.88233400     -1.61473300     -1.86267800
| 35>  H     -1.21053900     -2.30012900     -2.39781400
| 36>  H     -2.79937600     -2.15713400     -1.62742300
| 37>  H     -2.08718400     -0.77533500     -2.52441900
| 38> *
| 39>
| 40>
| 41>                          ****END OF INPUT****

CARTESIAN COORDINATES (ANGSTROEM)
---------------------------------
  O     -0.257895   -0.264228   -0.804767
  C     -1.121107   -1.184885   -0.632575
  C     -2.861007   -0.253563    0.548692
  C     -2.630305    0.927538   -0.087892
  C     -3.245525    1.243911   -1.418174
  Fe     1.458627    0.146236   -0.013174
  Cl     2.024555    2.047074   -0.926400
  C     -1.720777    1.984348    0.447996
  Cl     2.676722   -1.586342   -0.572765
  Cl     1.166198    0.288140    2.167321
  H     -3.601576   -0.914101    0.100515
  H     -2.255263    2.940841    0.511016
  H     -1.300780    1.752271    1.425577
  H     -0.890353    2.142335   -0.253803
  H     -3.822183    2.174457   -1.339313
  H     -2.467175    1.427764   -2.170831
  H     -3.916647    0.458686   -1.773531
  C     -2.588520   -0.493270    2.016091
  H     -3.333222    0.044994    2.616348
  H     -2.679639   -1.551651    2.270491
  H     -1.600809   -0.152420    2.333272
  C     -0.850736   -2.257575    0.389473
  H     -1.722214   -2.886306    0.577076
  H     -0.060155   -2.880832   -0.052911
  H     -0.459254   -1.853178    1.322172
  C     -1.882334   -1.614733   -1.862678
  H     -1.210539   -2.300129   -2.397814
  H     -2.799376   -2.157134   -1.627423
  H     -2.087184   -0.775335   -2.524419

ORBITAL ENERGIES
----------------
                 SPIN UP ORBITALS
  NO   OCC          E(Eh)            E(eV)
   0   1.0000    -261.567330     -7117.6089
   1   1.0000    -104.788556     -2851.4416
   2   1.0000    -104.784648     -2851.3352
   3   1.0000    -104.783078     -2851.2925
   4   1.0000     -32.235133      -877.1626
   5   1.0000     -27.711436      -754.0665
   6   1.0000     -27.710579      -754.0432
   7   1.0000     -27.710392      -754.0381
   8   1.0000     -20.597779      -560.4941
   9   1.0000     -11.415140      -310.6217
  10   1.0000     -11.296241      -307.3864
  11   1.0000     -11.271323      -306.7083
  12   1.0000     -11.266023      -306.5641
  13   1.0000     -11.256855      -306.3146
  14   1.0000     -11.256447      -306.3035
  15   1.0000     -11.241472      -305.8960
  16   1.0000     -11.239921      -305.8538
  17   1.0000     -10.515247      -286.1344
  18   1.0000     -10.511319      -286.0275
  19   1.0000     -10.509699      -285.9834
  20   1.0000      -7.982102      -217.2040
  21   1.0000      -7.981301      -217.1822
  22   1.0000      -7.981268      -217.1813
  23   1.0000      -7.978180      -217.0973
  24   1.0000      -7.977417      -217.0766
  25   1.0000      -7.977360      -217.0750
  26   1.0000      -7.976503      -217.0517
  27   1.0000      -7.975819      -217.0331
  28   1.0000      -7.975758      -217.0314
  29   1.0000      -4.590208      -124.9059
  30   1.0000      -3.203200       -87.1635
  31   1.0000      -3.201798       -87.1254
  32   1.0000      -3.201584       -87.1195
  33   1.0000      -1.442253       -39.2457
  34   1.0000      -1.144776       -31.1509
  35   1.0000      -1.093250       -29.7488
  36   1.0000      -1.060705       -28.8633
  37   1.0000      -1.054832       -28.7034
  38   1.0000      -1.051846       -28.6222
  39   1.0000      -1.029024       -28.0012
  40   1.0000      -1.002764       -27.2866
  41   1.0000      -0.972201       -26.4549
  42   1.0000      -0.935434       -25.4545
  43   1.0000      -0.919293       -25.0152
  44   1.0000      -0.919212       -25.0130
  45   1.0000      -0.909470       -24.7479
  46   1.0000      -0.908541       -24.7227
  47   1.0000      -0.907662       -24.6988
  48   1.0000      -0.803729       -21.8706
  49   1.0000      -0.744189       -20.2504
  50   1.0000      -0.699618       -19.0376
  51   1.0000      -0.690792       -18.7974
  52   1.0000      -0.683258       -18.5924
  53   1.0000      -0.666153       -18.1269
  54   1.0000      -0.633195       -17.2301
  55   1.0000      -0.622269       -16.9328
  56   1.0000      -0.605198       -16.4683
  57   1.0000      -0.596347       -16.2274
  58   1.0000      -0.582978       -15.8636
  59   1.0000      -0.575159       -15.6509
  60   1.0000      -0.563164       -15.3245
  61   1.0000      -0.558742       -15.2041
  62   1.0000      -0.551478       -15.0065
  63   1.0000      -0.545657       -14.8481
  64   1.0000      -0.536676       -14.6037
  65   1.0000      -0.528451       -14.3799
  66   1.0000      -0.506818       -13.7912
  67   1.0000      -0.493372       -13.4253
  68   1.0000      -0.471880       -12.8405
  69   1.0000      -0.468889       -12.7591
  70   1.0000      -0.440434       -11.9848
  71   1.0000      -0.435517       -11.8510
  72   1.0000      -0.433624       -11.7995
  73   1.0000      -0.424967       -11.5639
  74   1.0000      -0.423721       -11.5300
  75   1.0000      -0.422583       -11.4991
  76   1.0000      -0.369745       -10.0613
  77   0.0000       0.011801         0.3211
  78   0.0000       0.022090         0.6011
  79   0.0000       0.023331         0.6349
  80   0.0000       0.029837         0.8119
  81   0.0000       0.038281         1.0417

                 SPIN DOWN ORBITALS
  NO   OCC          E(Eh)            E(eV)
   0   1.0000    -261.563764     -7117.5119
   1   1.0000    -104.787114     -2851.4023
   2   1.0000    -104.783125     -2851.2938
   3   1.0000    -104.781570     -2851.2515
   4   1.0000     -32.073097      -872.7533
   5   1.0000     -27.551022      -749.7014
   6   1.0000     -27.550969      -749.7000
   7   1.0000     -27.550766      -749.6945
   8   1.0000     -20.593800      -560.3858
   9   1.0000     -11.415050      -310.6193
  10   1.0000     -11.296113      -307.3829
  11   1.0000     -11.271210      -306.7052
  12   1.0000     -11.266008      -306.5637
  13   1.0000     -11.256880      -306.3153
  14   1.0000     -11.256465      -306.3040
  15   1.0000     -11.241467      -305.8959
  16   1.0000     -11.239954      -305.8547
  17   1.0000     -10.513703      -286.0924
  18   1.0000     -10.509692      -285.9833
  19   1.0000     -10.508094      -285.9398
  20   1.0000      -7.979599      -217.1359
  21   1.0000      -7.978950      -217.1183
  22   1.0000      -7.978901      -217.1169
  23   1.0000      -7.975596      -217.0270
  24   1.0000      -7.974899      -217.0080
  25   1.0000      -7.974813      -217.0057
  26   1.0000      -7.974072      -216.9855
  27   1.0000      -7.973253      -216.9632
  28   1.0000      -7.973165      -216.9609
  29   1.0000      -4.147984      -112.8724
  30   1.0000      -2.669614       -72.6439
  31   1.0000      -2.669584       -72.6431
  32   1.0000      -2.668959       -72.6261
  33   1.0000      -1.432270       -38.9740
  34   1.0000      -1.144268       -31.1371
  35   1.0000      -1.090582       -29.6762
  36   1.0000      -1.045561       -28.4512
  37   1.0000      -1.033283       -28.1171
  38   1.0000      -1.029982       -28.0272
  39   1.0000      -1.028293       -27.9813
  40   1.0000      -1.002017       -27.2663
  41   1.0000      -0.972105       -26.4523
  42   1.0000      -0.908385       -24.7184
  43   1.0000      -0.817428       -22.2433
  44   1.0000      -0.744297       -20.2533
  45   1.0000      -0.702345       -19.1118
  46   1.0000      -0.689913       -18.7735
  47   1.0000      -0.682428       -18.5698
  48   1.0000      -0.665987       -18.1224
  49   1.0000      -0.633139       -17.2286
  50   1.0000      -0.621771       -16.9193
  51   1.0000      -0.604689       -16.4544
  52   1.0000      -0.596260       -16.2251
  53   1.0000      -0.582746       -15.8573
  54   1.0000      -0.573823       -15.6145
  55   1.0000      -0.563012       -15.3203
  56   1.0000      -0.558502       -15.1976
  57   1.0000      -0.551265       -15.0007
  58   1.0000      -0.543541       -14.7905
  59   1.0000      -0.535470       -14.5709
  60   1.0000      -0.517701       -14.0874
  61   1.0000      -0.506627       -13.7860
  62   1.0000      -0.493945       -13.4409
  63   1.0000      -0.479065       -13.0360
  64   1.0000      -0.476555       -12.9677
  65   1.0000      -0.448795       -12.2123
  66   1.0000      -0.445422       -12.1205
  67   1.0000      -0.442770       -12.0484
  68   1.0000      -0.427315       -11.6278
  69   1.0000      -0.423299       -11.5185
  70   1.0000      -0.408639       -11.1196
  71   1.0000      -0.368362       -10.0236
  72   0.0000       0.011787         0.3208
  73   0.0000       0.022066         0.6004
  74   0.0000       0.023310         0.6343
  75   0.0000       0.029694         0.8080
  76   0.0000       0.037936         1.0323

E(0)                                       ...  -3028.445500546
E(0)                                       ...  -3028.445500546
E(CORR)(strong-pairs)                      ...     -2.872238643
E(CORR)(weak-pairs)                        ...     -0.036002560
E(CORR)(corrected)                         ...     -2.908241204
E(TOT)                                     ...  -3031.353741750
E(CCSD(T))                                 ...  -3031.473099796
FINAL SINGLE POINT ENERGY     -3031.473099796415

DIPOLE MOMENT
-------------
                                X             Y             Z
Electronic contribution:     42.55612       4.91475       1.26880
Nuclear contribution   :    -46.42815      -5.93995      -1.83241
                        -----------------------------------------
Total Dipole Moment    :     -3.87204      -1.02520      -0.56361
                        -----------------------------------------
Magnitude (a.u.)       :      4.04492
Magnitude (Debye)      :     10.28136

Rotational constants in cm-1:     0.019096     0.010961     0.010312
Rotational constants in MHz :   572.491009   328.611991   309.135372

                             ****ORCA TERMINATED NORMALLY****
TOTAL RUN TIME: 0 days 18 hours 25 minutes 25 seconds 480 msec
