                         Program Version 4.1.2  - RELEASE  -
|  1> ! aug-cc-pVTZ aug-cc-pVTZ/C DLPNO-CCSD(T1) TightSCF NormalPNO UNO MiniPrint AutoAux
|  2> %pal nproc 10 end
|  3> %maxcore 20000
|  4> %mdci
|  5>      density none
|  6> end
|  7>
|  8> * xyz 0 6
|  9>  O     -0.36948800     -0.21674800     -0.55851000
| 10>  C     -1.39029300     -1.19720000     -0.40446500
| 11>  C     -2.81708000     -0.12841300     -0.15553300
| 12>  C     -2.02640500      1.12170700     -0.26574600
| 13>  C     -1.91901200      1.81550800     -1.56900500
| 14> Fe      1.37931100      0.04286700      0.03390700
| 15> Cl      1.79730300      2.05188400     -0.81308600
| 16>  C     -1.57127200      1.84905100      0.93922600
| 17> Cl      2.57550300     -1.64074200     -0.70882900
| 18> Cl      1.30259900      0.13127500      2.25276500
| 19>  H     -3.44526800     -0.26179600     -1.03899200
| 20>  H     -2.43479700      2.43980000      1.28898200
| 21>  H     -1.27966800      1.18139900      1.75113300
| 22>  H     -0.75131000      2.53318600      0.71255900
| 23>  H     -2.66291600      2.62997500     -1.55647700
| 24>  H     -0.92991100      2.26818500     -1.68527000
| 25>  H     -2.14401500      1.15942900     -2.41077500
| 26>  C     -3.59605400     -0.37211900      1.12656000
| 27>  H     -4.40703900      0.35720800      1.24117300
| 28>  H     -4.05156200     -1.36602400      1.09660600
| 29>  H     -2.96749700     -0.32156500      2.01835200
| 30>  C     -1.15849700     -2.09191500      0.79190300
| 31>  H     -1.98201100     -2.79893300      0.92982300
| 32>  H     -0.24145600     -2.66641800      0.60958700
| 33>  H     -1.00642300     -1.51986100      1.70869600
| 34>  C     -1.57043700     -1.95939000     -1.70046100
| 35>  H     -0.64332600     -2.50671700     -1.90862000
| 36>  H     -2.39672300     -2.67494100     -1.63289100
| 37>  H     -1.74986200     -1.27794900     -2.53672100
| 38> *
| 39>
| 40>
| 41>                          ****END OF INPUT****

CARTESIAN COORDINATES (ANGSTROEM)
---------------------------------
  O     -0.369488   -0.216748   -0.558510
  C     -1.390293   -1.197200   -0.404465
  C     -2.817080   -0.128413   -0.155533
  C     -2.026405    1.121707   -0.265746
  C     -1.919012    1.815508   -1.569005
  Fe     1.379311    0.042867    0.033907
  Cl     1.797303    2.051884   -0.813086
  C     -1.571272    1.849051    0.939226
  Cl     2.575503   -1.640742   -0.708829
  Cl     1.302599    0.131275    2.252765
  H     -3.445268   -0.261796   -1.038992
  H     -2.434797    2.439800    1.288982
  H     -1.279668    1.181399    1.751133
  H     -0.751310    2.533186    0.712559
  H     -2.662916    2.629975   -1.556477
  H     -0.929911    2.268185   -1.685270
  H     -2.144015    1.159429   -2.410775
  C     -3.596054   -0.372119    1.126560
  H     -4.407039    0.357208    1.241173
  H     -4.051562   -1.366024    1.096606
  H     -2.967497   -0.321565    2.018352
  C     -1.158497   -2.091915    0.791903
  H     -1.982011   -2.798933    0.929823
  H     -0.241456   -2.666418    0.609587
  H     -1.006423   -1.519861    1.708696
  C     -1.570437   -1.959390   -1.700461
  H     -0.643326   -2.506717   -1.908620
  H     -2.396723   -2.674941   -1.632891
  H     -1.749862   -1.277949   -2.536721

ORBITAL ENERGIES
----------------
                 SPIN UP ORBITALS
  NO   OCC          E(Eh)            E(eV)
   0   1.0000    -261.546886     -7117.0526
   1   1.0000    -104.775564     -2851.0880
   2   1.0000    -104.774146     -2851.0495
   3   1.0000    -104.771606     -2850.9803
   4   1.0000     -32.214787      -876.6089
   5   1.0000     -27.690650      -753.5009
   6   1.0000     -27.690564      -753.4986
   7   1.0000     -27.690226      -753.4893
   8   1.0000     -20.550647      -559.2115
   9   1.0000     -11.405466      -310.3585
  10   1.0000     -11.351239      -308.8829
  11   1.0000     -11.291297      -307.2518
  12   1.0000     -11.280960      -306.9705
  13   1.0000     -11.277433      -306.8746
  14   1.0000     -11.263350      -306.4913
  15   1.0000     -11.240728      -305.8758
  16   1.0000     -11.236717      -305.7666
  17   1.0000     -10.502104      -285.7768
  18   1.0000     -10.500780      -285.7408
  19   1.0000     -10.498185      -285.6701
  20   1.0000      -7.968938      -216.8458
  21   1.0000      -7.968181      -216.8252
  22   1.0000      -7.968100      -216.8230
  23   1.0000      -7.967673      -216.8114
  24   1.0000      -7.966815      -216.7881
  25   1.0000      -7.966777      -216.7870
  26   1.0000      -7.964984      -216.7382
  27   1.0000      -7.964304      -216.7197
  28   1.0000      -7.964222      -216.7175
  29   1.0000      -4.570236      -124.3624
  30   1.0000      -3.182660       -86.6046
  31   1.0000      -3.182461       -86.5992
  32   1.0000      -3.181847       -86.5825
  33   1.0000      -1.357423       -36.9374
  34   1.0000      -1.176606       -32.0171
  35   1.0000      -1.086135       -29.5552
  36   1.0000      -1.046459       -28.4756
  37   1.0000      -1.040998       -28.3270
  38   1.0000      -1.039753       -28.2931
  39   1.0000      -1.038745       -28.2657
  40   1.0000      -1.014730       -27.6122
  41   1.0000      -0.968330       -26.3496
  42   1.0000      -0.930825       -25.3290
  43   1.0000      -0.904699       -24.6181
  44   1.0000      -0.899750       -24.4834
  45   1.0000      -0.899495       -24.4765
  46   1.0000      -0.891598       -24.2616
  47   1.0000      -0.891189       -24.2505
  48   1.0000      -0.791464       -21.5368
  49   1.0000      -0.760216       -20.6865
  50   1.0000      -0.699944       -19.0465
  51   1.0000      -0.688039       -18.7225
  52   1.0000      -0.671321       -18.2676
  53   1.0000      -0.639176       -17.3929
  54   1.0000      -0.630258       -17.1502
  55   1.0000      -0.627386       -17.0720
  56   1.0000      -0.599529       -16.3140
  57   1.0000      -0.598371       -16.2825
  58   1.0000      -0.593878       -16.1602
  59   1.0000      -0.580830       -15.8052
  60   1.0000      -0.576274       -15.6812
  61   1.0000      -0.558576       -15.1996
  62   1.0000      -0.549851       -14.9622
  63   1.0000      -0.539691       -14.6857
  64   1.0000      -0.532059       -14.4781
  65   1.0000      -0.523034       -14.2325
  66   1.0000      -0.505694       -13.7606
  67   1.0000      -0.475351       -12.9350
  68   1.0000      -0.462294       -12.5797
  69   1.0000      -0.449670       -12.2362
  70   1.0000      -0.430454       -11.7132
  71   1.0000      -0.426002       -11.5921
  72   1.0000      -0.421843       -11.4789
  73   1.0000      -0.415489       -11.3060
  74   1.0000      -0.413095       -11.2409
  75   1.0000      -0.411314       -11.1924
  76   1.0000      -0.405231       -11.0269
  77   0.0000       0.006759         0.1839
  78   0.0000       0.019102         0.5198
  79   0.0000       0.021617         0.5882
  80   0.0000       0.030563         0.8317
  81   0.0000       0.031925         0.8687

                 SPIN DOWN ORBITALS
  NO   OCC          E(Eh)            E(eV)
   0   1.0000    -261.543340     -7116.9561
   1   1.0000    -104.774267     -2851.0527
   2   1.0000    -104.772788     -2851.0125
   3   1.0000    -104.770166     -2850.9412
   4   1.0000     -32.052789      -872.2007
   5   1.0000     -27.530882      -749.1534
   6   1.0000     -27.530676      -749.1478
   7   1.0000     -27.530192      -749.1346
   8   1.0000     -20.544778      -559.0518
   9   1.0000     -11.405507      -310.3596
  10   1.0000     -11.351070      -308.8783
  11   1.0000     -11.291109      -307.2467
  12   1.0000     -11.280940      -306.9700
  13   1.0000     -11.277444      -306.8749
  14   1.0000     -11.263356      -306.4915
  15   1.0000     -11.240667      -305.8741
  16   1.0000     -11.236695      -305.7660
  17   1.0000     -10.500710      -285.7388
  18   1.0000     -10.499318      -285.7010
  19   1.0000     -10.496645      -285.6282
  20   1.0000      -7.966658      -216.7838
  21   1.0000      -7.966080      -216.7680
  22   1.0000      -7.965999      -216.7658
  23   1.0000      -7.965195      -216.7440
  24   1.0000      -7.964678      -216.7299
  25   1.0000      -7.964612      -216.7281
  26   1.0000      -7.962629      -216.6742
  27   1.0000      -7.961861      -216.6533
  28   1.0000      -7.961800      -216.6516
  29   1.0000      -4.128125      -112.3320
  30   1.0000      -2.649998       -72.1101
  31   1.0000      -2.649950       -72.1088
  32   1.0000      -2.649074       -72.0850
  33   1.0000      -1.341976       -36.5170
  34   1.0000      -1.175275       -31.9809
  35   1.0000      -1.083506       -29.4837
  36   1.0000      -1.038301       -28.2536
  37   1.0000      -1.032220       -28.0881
  38   1.0000      -1.021885       -27.8069
  39   1.0000      -1.018713       -27.7206
  40   1.0000      -1.013971       -27.5916
  41   1.0000      -0.967664       -26.3315
  42   1.0000      -0.927150       -25.2290
  43   1.0000      -0.795210       -21.6388
  44   1.0000      -0.765388       -20.8273
  45   1.0000      -0.700089       -19.0504
  46   1.0000      -0.687392       -18.7049
  47   1.0000      -0.672286       -18.2938
  48   1.0000      -0.640982       -17.4420
  49   1.0000      -0.630383       -17.1536
  50   1.0000      -0.625294       -17.0151
  51   1.0000      -0.599641       -16.3171
  52   1.0000      -0.597487       -16.2584
  53   1.0000      -0.593669       -16.1545
  54   1.0000      -0.579603       -15.7718
  55   1.0000      -0.575504       -15.6603
  56   1.0000      -0.558435       -15.1958
  57   1.0000      -0.547720       -14.9042
  58   1.0000      -0.539213       -14.6727
  59   1.0000      -0.530381       -14.4324
  60   1.0000      -0.517449       -14.0805
  61   1.0000      -0.501512       -13.6468
  62   1.0000      -0.471979       -12.8432
  63   1.0000      -0.465333       -12.6624
  64   1.0000      -0.459316       -12.4986
  65   1.0000      -0.436732       -11.8841
  66   1.0000      -0.432953       -11.7813
  67   1.0000      -0.431892       -11.7524
  68   1.0000      -0.428337       -11.6556
  69   1.0000      -0.411429       -11.1955
  70   1.0000      -0.399435       -10.8692
  71   1.0000      -0.398780       -10.8514
  72   0.0000       0.006728         0.1831
  73   0.0000       0.018933         0.5152
  74   0.0000       0.021598         0.5877
  75   0.0000       0.030600         0.8327
  76   0.0000       0.030984         0.8431

E(0)                                       ...  -3028.428581374
E(0)                                       ...  -3028.428581374
E(CORR)(strong-pairs)                      ...     -2.870833282
E(CORR)(weak-pairs)                        ...     -0.035459131
E(CORR)(corrected)                         ...     -2.906292413
E(TOT)                                     ...  -3031.334873787
E(CCSD(T))                                 ...  -3031.453306149
FINAL SINGLE POINT ENERGY     -3031.453306148528

DIPOLE MOMENT
-------------
                                X             Y             Z
Electronic contribution:     40.05103       4.10621       2.06839
Nuclear contribution   :    -44.80068      -3.63103      -2.50225
                        -----------------------------------------
Total Dipole Moment    :     -4.74965       0.47518      -0.43387
                        -----------------------------------------
Magnitude (a.u.)       :      4.79304
Magnitude (Debye)      :     12.18294

Rotational constants in cm-1:     0.018937     0.011919     0.010753
Rotational constants in MHz :   567.724943   357.329735   322.372717

                             ****ORCA TERMINATED NORMALLY****
TOTAL RUN TIME: 0 days 20 hours 37 minutes 58 seconds 370 msec
