                         Program Version 4.1.2  - RELEASE  -
|  1> ! aug-cc-pVTZ aug-cc-pVTZ/C DLPNO-CCSD(T1) TightSCF NormalPNO UNO MiniPrint AutoAux
|  2> %pal nproc 10 end
|  3> %maxcore 20000
|  4> %mdci
|  5>      density none
|  6> end
|  7>
|  8> * xyz 0 6
|  9>  O     -0.31415100     -0.21763900     -0.70798100
| 10>  C     -1.29309300     -1.12945700     -0.52596100
| 11>  C     -2.66350400     -0.34464100      0.33777500
| 12>  C     -2.42432500      0.98125500     -0.10814800
| 13>  C     -2.89079600      1.46332700     -1.42757400
| 14> Fe      1.38422600      0.11182900     -0.03239600
| 15> Cl      1.82315100      2.14885600     -0.77016500
| 16>  C     -1.62510500      1.93348400      0.68621800
| 17> Cl      2.72080000     -1.48966800     -0.72540800
| 18> Cl      1.16502500      0.10207000      2.19722300
| 19>  H     -3.52150400     -0.80575000     -0.15301600
| 20>  H     -2.34932800      2.53879700      1.25977700
| 21>  H     -0.96317800      1.45131900      1.40549300
| 22>  H     -1.05461400      2.61575900      0.04967800
| 23>  H     -3.23775500      2.50033000     -1.34828100
| 24>  H     -2.00418000      1.49179000     -2.08039400
| 25>  H     -3.66239600      0.84050300     -1.88060800
| 26>  C     -2.63486600     -0.60326500      1.84247900
| 27>  H     -3.40257600     -0.00003200      2.34003600
| 28>  H     -2.85650600     -1.65226500      2.04703700
| 29>  H     -1.66834200     -0.36835400      2.29238700
| 30>  C     -0.88470500     -2.31543700      0.34221900
| 31>  H     -1.70387200     -3.02424600      0.49089500
| 32>  H     -0.07854900     -2.82228800     -0.20187800
| 33>  H     -0.48259700     -2.00112600      1.30519800
| 34>  C     -1.85734600     -1.60001200     -1.86687100
| 35>  H     -1.04718700     -2.12828500     -2.38046700
| 36>  H     -2.69968600     -2.28684800     -1.74136100
| 37>  H     -2.15456100     -0.76866300     -2.50723600
| 38> *
| 39>
| 40>
| 41>                          ****END OF INPUT****

CARTESIAN COORDINATES (ANGSTROEM)
---------------------------------
  O     -0.314151   -0.217639   -0.707981
  C     -1.293093   -1.129457   -0.525961
  C     -2.663504   -0.344641    0.337775
  C     -2.424325    0.981255   -0.108148
  C     -2.890796    1.463327   -1.427574
  Fe     1.384226    0.111829   -0.032396
  Cl     1.823151    2.148856   -0.770165
  C     -1.625105    1.933484    0.686218
  Cl     2.720800   -1.489668   -0.725408
  Cl     1.165025    0.102070    2.197223
  H     -3.521504   -0.805750   -0.153016
  H     -2.349328    2.538797    1.259777
  H     -0.963178    1.451319    1.405493
  H     -1.054614    2.615759    0.049678
  H     -3.237755    2.500330   -1.348281
  H     -2.004180    1.491790   -2.080394
  H     -3.662396    0.840503   -1.880608
  C     -2.634866   -0.603265    1.842479
  H     -3.402576   -0.000032    2.340036
  H     -2.856506   -1.652265    2.047037
  H     -1.668342   -0.368354    2.292387
  C     -0.884705   -2.315437    0.342219
  H     -1.703872   -3.024246    0.490895
  H     -0.078549   -2.822288   -0.201878
  H     -0.482597   -2.001126    1.305198
  C     -1.857346   -1.600012   -1.866871
  H     -1.047187   -2.128285   -2.380467
  H     -2.699686   -2.286848   -1.741361
  H     -2.154561   -0.768663   -2.507236

ORBITAL ENERGIES
----------------
                 SPIN UP ORBITALS
  NO   OCC          E(Eh)            E(eV)
   0   1.0000    -261.544475     -7116.9870
   1   1.0000    -104.774371     -2851.0556
   2   1.0000    -104.770480     -2850.9497
   3   1.0000    -104.767817     -2850.8772
   4   1.0000     -32.212384      -876.5435
   5   1.0000     -27.688306      -753.4371
   6   1.0000     -27.688083      -753.4310
   7   1.0000     -27.687844      -753.4245
   8   1.0000     -20.540584      -558.9377
   9   1.0000     -11.393551      -310.0343
  10   1.0000     -11.361740      -309.1687
  11   1.0000     -11.293127      -307.3016
  12   1.0000     -11.286527      -307.1220
  13   1.0000     -11.275057      -306.8099
  14   1.0000     -11.255960      -306.2902
  15   1.0000     -11.245716      -306.0115
  16   1.0000     -11.236644      -305.7646
  17   1.0000     -10.500939      -285.7451
  18   1.0000     -10.497024      -285.6386
  19   1.0000     -10.494389      -285.5669
  20   1.0000      -7.967848      -216.8162
  21   1.0000      -7.966938      -216.7914
  22   1.0000      -7.966900      -216.7904
  23   1.0000      -7.963852      -216.7074
  24   1.0000      -7.963121      -216.6875
  25   1.0000      -7.963025      -216.6849
  26   1.0000      -7.961205      -216.6354
  27   1.0000      -7.960501      -216.6162
  28   1.0000      -7.960417      -216.6140
  29   1.0000      -4.567823      -124.2968
  30   1.0000      -3.180324       -86.5410
  31   1.0000      -3.179930       -86.5303
  32   1.0000      -3.179512       -86.5189
  33   1.0000      -1.373558       -37.3764
  34   1.0000      -1.193308       -32.4716
  35   1.0000      -1.086032       -29.5524
  36   1.0000      -1.044731       -28.4286
  37   1.0000      -1.043325       -28.3903
  38   1.0000      -1.037924       -28.2433
  39   1.0000      -1.034852       -28.1597
  40   1.0000      -1.014340       -27.6016
  41   1.0000      -0.971486       -26.4355
  42   1.0000      -0.934200       -25.4209
  43   1.0000      -0.908943       -24.7336
  44   1.0000      -0.897416       -24.4199
  45   1.0000      -0.897266       -24.4159
  46   1.0000      -0.889409       -24.2020
  47   1.0000      -0.888613       -24.1804
  48   1.0000      -0.792351       -21.5610
  49   1.0000      -0.765491       -20.8301
  50   1.0000      -0.709092       -19.2954
  51   1.0000      -0.691822       -18.8254
  52   1.0000      -0.675783       -18.3890
  53   1.0000      -0.648029       -17.6338
  54   1.0000      -0.641843       -17.4654
  55   1.0000      -0.629200       -17.1214
  56   1.0000      -0.605021       -16.4635
  57   1.0000      -0.595987       -16.2176
  58   1.0000      -0.594475       -16.1765
  59   1.0000      -0.583105       -15.8671
  60   1.0000      -0.576412       -15.6850
  61   1.0000      -0.558915       -15.2088
  62   1.0000      -0.557076       -15.1588
  63   1.0000      -0.541581       -14.7372
  64   1.0000      -0.532654       -14.4943
  65   1.0000      -0.527477       -14.3534
  66   1.0000      -0.506605       -13.7854
  67   1.0000      -0.467751       -12.7282
  68   1.0000      -0.458993       -12.4898
  69   1.0000      -0.446290       -12.1442
  70   1.0000      -0.425154       -11.5690
  71   1.0000      -0.422214       -11.4890
  72   1.0000      -0.420244       -11.4354
  73   1.0000      -0.411325       -11.1927
  74   1.0000      -0.410413       -11.1679
  75   1.0000      -0.408384       -11.1127
  76   1.0000      -0.403632       -10.9834
  77   0.0000       0.004775         0.1299
  78   0.0000       0.007570         0.2060
  79   0.0000       0.018996         0.5169
  80   0.0000       0.019628         0.5341
  81   0.0000       0.030226         0.8225

                 SPIN DOWN ORBITALS
  NO   OCC          E(Eh)            E(eV)
   0   1.0000    -261.540933     -7116.8906
   1   1.0000    -104.773083     -2851.0205
   2   1.0000    -104.769155     -2850.9136
   3   1.0000    -104.766391     -2850.8384
   4   1.0000     -32.050311      -872.1333
   5   1.0000     -27.528434      -749.0868
   6   1.0000     -27.528247      -749.0817
   7   1.0000     -27.527674      -749.0661
   8   1.0000     -20.534692      -558.7774
   9   1.0000     -11.393546      -310.0342
  10   1.0000     -11.361638      -309.1659
  11   1.0000     -11.293126      -307.3016
  12   1.0000     -11.286347      -307.1171
  13   1.0000     -11.275086      -306.8107
  14   1.0000     -11.255977      -306.2907
  15   1.0000     -11.245602      -306.0084
  16   1.0000     -11.236603      -305.7635
  17   1.0000     -10.499547      -285.7072
  18   1.0000     -10.495603      -285.5999
  19   1.0000     -10.492863      -285.5253
  20   1.0000      -7.965373      -216.7488
  21   1.0000      -7.964989      -216.7384
  22   1.0000      -7.964910      -216.7362
  23   1.0000      -7.961572      -216.6454
  24   1.0000      -7.960942      -216.6283
  25   1.0000      -7.960850      -216.6257
  26   1.0000      -7.958834      -216.5709
  27   1.0000      -7.958106      -216.5511
  28   1.0000      -7.958031      -216.5490
  29   1.0000      -4.125551      -112.2620
  30   1.0000      -2.647484       -72.0417
  31   1.0000      -2.647311       -72.0370
  32   1.0000      -2.646451       -72.0136
  33   1.0000      -1.358307       -36.9614
  34   1.0000      -1.192358       -32.4457
  35   1.0000      -1.083487       -29.4832
  36   1.0000      -1.042720       -28.3738
  37   1.0000      -1.030017       -28.0282
  38   1.0000      -1.018748       -27.7215
  39   1.0000      -1.015170       -27.6242
  40   1.0000      -1.013410       -27.5763
  41   1.0000      -0.970650       -26.4127
  42   1.0000      -0.933132       -25.3918
  43   1.0000      -0.798281       -21.7223
  44   1.0000      -0.772175       -21.0120
  45   1.0000      -0.709651       -19.3106
  46   1.0000      -0.691005       -18.8032
  47   1.0000      -0.676495       -18.4084
  48   1.0000      -0.650112       -17.6904
  49   1.0000      -0.641056       -17.4440
  50   1.0000      -0.627871       -17.0852
  51   1.0000      -0.605167       -16.4674
  52   1.0000      -0.595831       -16.2134
  53   1.0000      -0.593485       -16.1495
  54   1.0000      -0.583361       -15.8740
  55   1.0000      -0.575199       -15.6519
  56   1.0000      -0.557883       -15.1808
  57   1.0000      -0.556889       -15.1537
  58   1.0000      -0.540774       -14.7152
  59   1.0000      -0.527342       -14.3497
  60   1.0000      -0.526312       -14.3217
  61   1.0000      -0.499180       -13.5834
  62   1.0000      -0.467382       -12.7181
  63   1.0000      -0.462002       -12.5717
  64   1.0000      -0.453300       -12.3349
  65   1.0000      -0.434196       -11.8151
  66   1.0000      -0.431527       -11.7424
  67   1.0000      -0.428937       -11.6720
  68   1.0000      -0.425076       -11.5669
  69   1.0000      -0.408343       -11.1116
  70   1.0000      -0.396899       -10.8002
  71   1.0000      -0.393287       -10.7019
  72   0.0000       0.004765         0.1297
  73   0.0000       0.007442         0.2025
  74   0.0000       0.018997         0.5169
  75   0.0000       0.019612         0.5337
  76   0.0000       0.030251         0.8232

E(0)                                       ...  -3028.426945532
E(0)                                       ...  -3028.426945532
E(CORR)(strong-pairs)                      ...     -2.871513255
E(CORR)(weak-pairs)                        ...     -0.035221965
E(CORR)(corrected)                         ...     -2.906735220
E(TOT)                                     ...  -3031.333680752
E(CCSD(T))                                 ...  -3031.452238641
FINAL SINGLE POINT ENERGY     -3031.452238641464

DIPOLE MOMENT
-------------
                                X             Y             Z
Electronic contribution:     39.53147       5.92942       1.53487
Nuclear contribution   :    -44.66483      -5.72313      -1.92107
                        -----------------------------------------
Total Dipole Moment    :     -5.13336       0.20629      -0.38620
                        -----------------------------------------
Magnitude (a.u.)       :      5.15200
Magnitude (Debye)      :     13.09534

Rotational constants in cm-1:     0.019028     0.011686     0.010794
Rotational constants in MHz :   570.441575   350.329850   323.587621

                             ****ORCA TERMINATED NORMALLY****
TOTAL RUN TIME: 0 days 22 hours 40 minutes 47 seconds 496 msec
