                         Program Version 4.1.2  - RELEASE  -
|  1> ! aug-cc-pVTZ aug-cc-pVTZ/C DLPNO-CCSD(T1) TightSCF NormalPNO UNO MiniPrint AutoAux
|  2> %pal nproc 10 end
|  3> %maxcore 20000
|  4> %mdci
|  5>      density none
|  6> end
|  7>
|  8> * xyz 0 6
|  9>  O     -0.29964400     -0.21616600     -0.70700500
| 10>  C     -1.08930700     -1.18998900     -0.59839800
| 11>  C     -3.24169700      0.04746000      0.17356800
| 12>  C     -2.41033000      1.03430100     -0.22607000
| 13>  C     -2.41910600      1.53992000     -1.64094000
| 14> Fe      1.47307100      0.10304800      0.05744500
| 15> Cl      2.10379900      1.97812800     -0.85402500
| 16>  C     -1.55721100      1.83285700      0.71769800
| 17> Cl      2.51364700     -1.70449800     -0.62195200
| 18> Cl      1.31566100      0.16467700      2.24506000
| 19>  H     -3.89493600     -0.39129200     -0.58016100
| 20>  H     -2.11783700      2.72349500      1.03407100
| 21>  H     -1.26811200      1.28927900      1.61801300
| 22>  H     -0.65050400      2.19396500      0.22379800
| 23>  H     -2.70022300      2.60119700     -1.64393000
| 24>  H     -1.41784800      1.48101000     -2.08272800
| 25>  H     -3.13184500      1.00427300     -2.27457400
| 26>  C     -3.52261700     -0.37359900      1.58938600
| 27>  H     -4.44072300      0.11111000      1.94895500
| 28>  H     -3.69000400     -1.45353300      1.66758400
| 29>  H     -2.72201100     -0.10243000      2.28217000
| 30>  C     -1.04166200     -2.07292000      0.60822000
| 31>  H     -1.93948200     -2.68248400      0.71188100
| 32>  H     -0.18282800     -2.74447300      0.45598900
| 33>  H     -0.84801500     -1.50253500      1.51720400
| 34>  C     -1.74443400     -1.70901000     -1.84198300
| 35>  H     -1.02943600     -2.42549600     -2.27413500
| 36>  H     -2.67322600     -2.24154000     -1.63307000
| 37>  H     -1.90030300     -0.91577100     -2.57188400
| 38> *
| 39>
| 40>
| 41>                          ****END OF INPUT****

CARTESIAN COORDINATES (ANGSTROEM)
---------------------------------
  O     -0.299644   -0.216166   -0.707005
  C     -1.089307   -1.189989   -0.598398
  C     -3.241697    0.047460    0.173568
  C     -2.410330    1.034301   -0.226070
  C     -2.419106    1.539920   -1.640940
  Fe     1.473071    0.103048    0.057445
  Cl     2.103799    1.978128   -0.854025
  C     -1.557211    1.832857    0.717698
  Cl     2.513647   -1.704498   -0.621952
  Cl     1.315661    0.164677    2.245060
  H     -3.894936   -0.391292   -0.580161
  H     -2.117837    2.723495    1.034071
  H     -1.268112    1.289279    1.618013
  H     -0.650504    2.193965    0.223798
  H     -2.700223    2.601197   -1.643930
  H     -1.417848    1.481010   -2.082728
  H     -3.131845    1.004273   -2.274574
  C     -3.522617   -0.373599    1.589386
  H     -4.440723    0.111110    1.948955
  H     -3.690004   -1.453533    1.667584
  H     -2.722011   -0.102430    2.282170
  C     -1.041662   -2.072920    0.608220
  H     -1.939482   -2.682484    0.711881
  H     -0.182828   -2.744473    0.455989
  H     -0.848015   -1.502535    1.517204
  C     -1.744434   -1.709010   -1.841983
  H     -1.029436   -2.425496   -2.274135
  H     -2.673226   -2.241540   -1.633070
  H     -1.900303   -0.915771   -2.571884

ORBITAL ENERGIES
----------------
                 SPIN UP ORBITALS
  NO   OCC          E(Eh)            E(eV)
   0   1.0000    -261.575001     -7117.8176
   1   1.0000    -104.792181     -2851.5402
   2   1.0000    -104.790389     -2851.4914
   3   1.0000    -104.789040     -2851.4547
   4   1.0000     -32.242688      -877.3682
   5   1.0000     -27.719160      -754.2767
   6   1.0000     -27.718039      -754.2462
   7   1.0000     -27.717882      -754.2419
   8   1.0000     -20.611528      -560.8682
   9   1.0000     -11.423427      -310.8472
  10   1.0000     -11.277478      -306.8758
  11   1.0000     -11.272515      -306.7407
  12   1.0000     -11.272083      -306.7290
  13   1.0000     -11.243838      -305.9604
  14   1.0000     -11.242932      -305.9357
  15   1.0000     -11.239761      -305.8494
  16   1.0000     -11.232712      -305.6576
  17   1.0000     -10.518875      -286.2331
  18   1.0000     -10.517044      -286.1833
  19   1.0000     -10.515648      -286.1453
  20   1.0000      -7.985711      -217.3022
  21   1.0000      -7.984958      -217.2818
  22   1.0000      -7.984908      -217.2804
  23   1.0000      -7.983940      -217.2540
  24   1.0000      -7.983136      -217.2322
  25   1.0000      -7.983056      -217.2300
  26   1.0000      -7.982434      -217.2131
  27   1.0000      -7.981773      -217.1951
  28   1.0000      -7.981722      -217.1937
  29   1.0000      -4.597624      -125.1077
  30   1.0000      -3.210800       -87.3703
  31   1.0000      -3.209036       -87.3223
  32   1.0000      -3.208884       -87.3182
  33   1.0000      -1.462759       -39.8037
  34   1.0000      -1.129237       -30.7281
  35   1.0000      -1.101872       -29.9835
  36   1.0000      -1.065678       -28.9986
  37   1.0000      -1.060198       -28.8495
  38   1.0000      -1.058031       -28.7905
  39   1.0000      -1.022427       -27.8217
  40   1.0000      -1.011992       -27.5377
  41   1.0000      -0.960773       -26.1440
  42   1.0000      -0.942349       -25.6426
  43   1.0000      -0.926696       -25.2167
  44   1.0000      -0.926533       -25.2122
  45   1.0000      -0.915637       -24.9157
  46   1.0000      -0.915518       -24.9125
  47   1.0000      -0.898996       -24.4629
  48   1.0000      -0.812339       -22.1049
  49   1.0000      -0.731448       -19.9037
  50   1.0000      -0.711150       -19.3514
  51   1.0000      -0.703380       -19.1400
  52   1.0000      -0.690787       -18.7973
  53   1.0000      -0.656289       -17.8585
  54   1.0000      -0.623734       -16.9727
  55   1.0000      -0.621581       -16.9141
  56   1.0000      -0.602444       -16.3933
  57   1.0000      -0.601024       -16.3547
  58   1.0000      -0.585575       -15.9343
  59   1.0000      -0.580016       -15.7830
  60   1.0000      -0.559308       -15.2196
  61   1.0000      -0.557085       -15.1591
  62   1.0000      -0.553583       -15.0638
  63   1.0000      -0.539430       -14.6786
  64   1.0000      -0.532380       -14.4868
  65   1.0000      -0.527322       -14.3491
  66   1.0000      -0.501706       -13.6521
  67   1.0000      -0.495344       -13.4790
  68   1.0000      -0.477346       -12.9892
  69   1.0000      -0.474210       -12.9039
  70   1.0000      -0.446274       -12.1437
  71   1.0000      -0.439896       -11.9702
  72   1.0000      -0.438477       -11.9316
  73   1.0000      -0.429954       -11.6996
  74   1.0000      -0.428280       -11.6541
  75   1.0000      -0.428045       -11.6477
  76   1.0000      -0.358571        -9.7572
  77   0.0000       0.012916         0.3515
  78   0.0000       0.023835         0.6486
  79   0.0000       0.024378         0.6634
  80   0.0000       0.030471         0.8292
  81   0.0000       0.039634         1.0785

                 SPIN DOWN ORBITALS
  NO   OCC          E(Eh)            E(eV)
   0   1.0000    -261.571429     -7117.7204
   1   1.0000    -104.790682     -2851.4994
   2   1.0000    -104.788857     -2851.4498
   3   1.0000    -104.787502     -2851.4129
   4   1.0000     -32.080712      -872.9606
   5   1.0000     -27.558650      -749.9090
   6   1.0000     -27.558558      -749.9065
   7   1.0000     -27.558419      -749.9027
   8   1.0000     -20.608037      -560.7732
   9   1.0000     -11.423260      -310.8427
  10   1.0000     -11.277381      -306.8731
  11   1.0000     -11.272514      -306.7407
  12   1.0000     -11.272200      -306.7322
  13   1.0000     -11.243686      -305.9562
  14   1.0000     -11.242910      -305.9351
  15   1.0000     -11.239741      -305.8489
  16   1.0000     -11.232716      -305.6577
  17   1.0000     -10.517274      -286.1896
  18   1.0000     -10.515407      -286.1388
  19   1.0000     -10.514014      -286.1009
  20   1.0000      -7.983193      -217.2337
  21   1.0000      -7.982455      -217.2136
  22   1.0000      -7.982402      -217.2122
  23   1.0000      -7.981268      -217.1813
  24   1.0000      -7.980639      -217.1642
  25   1.0000      -7.980534      -217.1614
  26   1.0000      -7.980007      -217.1470
  27   1.0000      -7.979126      -217.1231
  28   1.0000      -7.979045      -217.1209
  29   1.0000      -4.155510      -113.0772
  30   1.0000      -2.677066       -72.8467
  31   1.0000      -2.676996       -72.8448
  32   1.0000      -2.676653       -72.8354
  33   1.0000      -1.454022       -39.5660
  34   1.0000      -1.128891       -30.7187
  35   1.0000      -1.099529       -29.9197
  36   1.0000      -1.050128       -28.5754
  37   1.0000      -1.037673       -28.2365
  38   1.0000      -1.035728       -28.1836
  39   1.0000      -1.021816       -27.8050
  40   1.0000      -1.011408       -27.5218
  41   1.0000      -0.960586       -26.1389
  42   1.0000      -0.899257       -24.4700
  43   1.0000      -0.825289       -22.4572
  44   1.0000      -0.731515       -19.9055
  45   1.0000      -0.713524       -19.4160
  46   1.0000      -0.702541       -19.1171
  47   1.0000      -0.690011       -18.7761
  48   1.0000      -0.656263       -17.8578
  49   1.0000      -0.623531       -16.9671
  50   1.0000      -0.621243       -16.9049
  51   1.0000      -0.602252       -16.3881
  52   1.0000      -0.601023       -16.3547
  53   1.0000      -0.585218       -15.9246
  54   1.0000      -0.579281       -15.7631
  55   1.0000      -0.558742       -15.2041
  56   1.0000      -0.556417       -15.1409
  57   1.0000      -0.551600       -15.0098
  58   1.0000      -0.539362       -14.6768
  59   1.0000      -0.529081       -14.3970
  60   1.0000      -0.520580       -14.1657
  61   1.0000      -0.502108       -13.6631
  62   1.0000      -0.495184       -13.4746
  63   1.0000      -0.483943       -13.1688
  64   1.0000      -0.482604       -13.1323
  65   1.0000      -0.453291       -12.3347
  66   1.0000      -0.450123       -12.2485
  67   1.0000      -0.447464       -12.1761
  68   1.0000      -0.431441       -11.7401
  69   1.0000      -0.428941       -11.6721
  70   1.0000      -0.413024       -11.2390
  71   1.0000      -0.357761        -9.7352
  72   0.0000       0.012904         0.3511
  73   0.0000       0.023810         0.6479
  74   0.0000       0.024344         0.6624
  75   0.0000       0.030434         0.8282
  76   0.0000       0.039545         1.0761

E(0)                                       ...  -3028.453201728
E(0)                                       ...  -3028.453201728
E(CORR)(strong-pairs)                      ...     -2.869058933
E(CORR)(weak-pairs)                        ...     -0.035955116
E(CORR)(corrected)                         ...     -2.905014050
E(TOT)                                     ...  -3031.358215777
E(CCSD(T))                                 ...  -3031.476508102
FINAL SINGLE POINT ENERGY     -3031.476508102085

DIPOLE MOMENT
-------------
                                X             Y             Z
Electronic contribution:     43.54603       2.76132       2.22605
Nuclear contribution   :    -46.95885      -3.93117      -2.82511
                        -----------------------------------------
Total Dipole Moment    :     -3.41282      -1.16985      -0.59906
                        -----------------------------------------
Magnitude (a.u.)       :      3.65715
Magnitude (Debye)      :      9.29574

Rotational constants in cm-1:     0.019199     0.010838     0.010216
Rotational constants in MHz :   575.578398   324.905350   306.259490

                             ****ORCA TERMINATED NORMALLY****
TOTAL RUN TIME: 0 days 18 hours 7 minutes 9 seconds 778 msec
