                         Program Version 4.1.2  - RELEASE  -
|  1> ! aug-cc-pVTZ aug-cc-pVTZ/C DLPNO-CCSD(T1) TightSCF NormalPNO UNO MiniPrint AutoAux
|  2> %pal nproc 10 end
|  3> %maxcore 20000
|  4> %mdci
|  5>      density none
|  6> end
|  7>
|  8> * xyz 0 6
|  9>  O      0.28716800      0.19040100     -0.46061500
| 10>  C      1.13583600      1.11838100     -0.17632400
| 11>  C      2.64709200      0.15775000      0.92062500
| 12>  C      3.14602700     -0.63888800     -0.08759000
| 13>  C      4.28631100     -0.20919100     -0.95192500
| 14> Fe     -1.56212700     -0.17072800     -0.10966600
| 15> Cl     -1.90946500     -2.06415500     -1.14769500
| 16>  C      2.49099300     -1.93865500     -0.40557400
| 17> Cl     -2.54088600      1.60540100     -0.95416700
| 18> Cl     -1.86096600     -0.32056100      2.06586600
| 19>  H      3.22577700      1.05279200      1.14583100
| 20>  H      3.00652500     -2.48845900     -1.19602000
| 21>  H      2.39732100     -2.57747100      0.47953700
| 22>  H      1.45891500     -1.72378900     -0.73437500
| 23>  H      5.12403200     -0.90253000     -0.79105600
| 24>  H      4.03237000     -0.28197400     -2.01687600
| 25>  H      4.63295300      0.80219700     -0.72848400
| 26>  C      1.86565500     -0.44229900      2.07279900
| 27>  H      2.44952700     -1.24075800      2.54563600
| 28>  H      1.65257800      0.30456500      2.83887400
| 29>  H      0.91387500     -0.87139700      1.75240200
| 30>  C      0.74500400      2.10789100      0.90691700
| 31>  H      1.58149700      2.73008800      1.23136000
| 32>  H     -0.01282400      2.75686400      0.44668200
| 33>  H      0.27601600      1.61840800      1.75961500
| 34>  C      1.83900600      1.72816700     -1.37055700
| 35>  H      1.12200500      2.42330400     -1.82598700
| 36>  H      2.73213700      2.29212600     -1.09245500
| 37>  H      2.08211300      0.97118800     -2.11671700
| 38> *
| 39>
| 40>
| 41>                          ****END OF INPUT****

CARTESIAN COORDINATES (ANGSTROEM)
---------------------------------
  O      0.287168    0.190401   -0.460615
  C      1.135836    1.118381   -0.176324
  C      2.647092    0.157750    0.920625
  C      3.146027   -0.638888   -0.087590
  C      4.286311   -0.209191   -0.951925
  Fe    -1.562127   -0.170728   -0.109666
  Cl    -1.909465   -2.064155   -1.147695
  C      2.490993   -1.938655   -0.405574
  Cl    -2.540886    1.605401   -0.954167
  Cl    -1.860966   -0.320561    2.065866
  H      3.225777    1.052792    1.145831
  H      3.006525   -2.488459   -1.196020
  H      2.397321   -2.577471    0.479537
  H      1.458915   -1.723789   -0.734375
  H      5.124032   -0.902530   -0.791056
  H      4.032370   -0.281974   -2.016876
  H      4.632953    0.802197   -0.728484
  C      1.865655   -0.442299    2.072799
  H      2.449527   -1.240758    2.545636
  H      1.652578    0.304565    2.838874
  H      0.913875   -0.871397    1.752402
  C      0.745004    2.107891    0.906917
  H      1.581497    2.730088    1.231360
  H     -0.012824    2.756864    0.446682
  H      0.276016    1.618408    1.759615
  C      1.839006    1.728167   -1.370557
  H      1.122005    2.423304   -1.825987
  H      2.732137    2.292126   -1.092455
  H      2.082113    0.971188   -2.116717

ORBITAL ENERGIES
----------------
                 SPIN UP ORBITALS
  NO   OCC          E(Eh)            E(eV)
   0   1.0000    -261.558548     -7117.3699
   1   1.0000    -104.780023     -2851.2094
   2   1.0000    -104.777719     -2851.1467
   3   1.0000    -104.776747     -2851.1202
   4   1.0000     -32.226364      -876.9239
   5   1.0000     -27.702633      -753.8270
   6   1.0000     -27.701817      -753.8048
   7   1.0000     -27.701680      -753.8010
   8   1.0000     -20.582360      -560.0745
   9   1.0000     -11.402297      -310.2723
  10   1.0000     -11.327965      -308.2496
  11   1.0000     -11.275726      -306.8281
  12   1.0000     -11.268488      -306.6312
  13   1.0000     -11.264668      -306.5272
  14   1.0000     -11.259258      -306.3800
  15   1.0000     -11.257018      -306.3190
  16   1.0000     -11.244695      -305.9837
  17   1.0000     -10.506691      -285.9016
  18   1.0000     -10.504357      -285.8381
  19   1.0000     -10.503345      -285.8105
  20   1.0000      -7.973543      -216.9711
  21   1.0000      -7.972749      -216.9495
  22   1.0000      -7.972727      -216.9489
  23   1.0000      -7.971230      -216.9082
  24   1.0000      -7.970453      -216.8871
  25   1.0000      -7.970371      -216.8848
  26   1.0000      -7.970154      -216.8789
  27   1.0000      -7.969478      -216.8605
  28   1.0000      -7.969388      -216.8581
  29   1.0000      -4.581551      -124.6703
  30   1.0000      -3.194548       -86.9281
  31   1.0000      -3.193206       -86.8916
  32   1.0000      -3.192950       -86.8846
  33   1.0000      -1.422928       -38.7198
  34   1.0000      -1.164334       -31.6831
  35   1.0000      -1.084532       -29.5116
  36   1.0000      -1.052235       -28.6328
  37   1.0000      -1.046980       -28.4898
  38   1.0000      -1.044517       -28.4227
  39   1.0000      -1.037802       -28.2400
  40   1.0000      -0.992608       -27.0102
  41   1.0000      -0.991934       -26.9919
  42   1.0000      -0.927320       -25.2337
  43   1.0000      -0.915940       -24.9240
  44   1.0000      -0.910754       -24.7829
  45   1.0000      -0.910668       -24.7805
  46   1.0000      -0.900716       -24.5097
  47   1.0000      -0.900321       -24.4990
  48   1.0000      -0.796096       -21.6629
  49   1.0000      -0.758326       -20.6351
  50   1.0000      -0.690546       -18.7907
  51   1.0000      -0.683942       -18.6110
  52   1.0000      -0.680250       -18.5105
  53   1.0000      -0.675331       -18.3767
  54   1.0000      -0.647632       -17.6230
  55   1.0000      -0.625188       -17.0122
  56   1.0000      -0.604637       -16.4530
  57   1.0000      -0.595753       -16.2113
  58   1.0000      -0.584410       -15.9026
  59   1.0000      -0.578770       -15.7491
  60   1.0000      -0.569759       -15.5039
  61   1.0000      -0.564646       -15.3648
  62   1.0000      -0.560499       -15.2520
  63   1.0000      -0.544404       -14.8140
  64   1.0000      -0.535548       -14.5730
  65   1.0000      -0.521183       -14.1821
  66   1.0000      -0.517704       -14.0874
  67   1.0000      -0.483768       -13.1640
  68   1.0000      -0.465738       -12.6734
  69   1.0000      -0.458595       -12.4790
  70   1.0000      -0.433556       -11.7977
  71   1.0000      -0.428802       -11.6683
  72   1.0000      -0.426284       -11.5998
  73   1.0000      -0.418050       -11.3757
  74   1.0000      -0.416421       -11.3314
  75   1.0000      -0.415657       -11.3106
  76   1.0000      -0.381352       -10.3771
  77   0.0000       0.008468         0.2304
  78   0.0000       0.020118         0.5474
  79   0.0000       0.020857         0.5675
  80   0.0000       0.025800         0.7021
  81   0.0000       0.032583         0.8866

                 SPIN DOWN ORBITALS
  NO   OCC          E(Eh)            E(eV)
   0   1.0000    -261.554983     -7117.2729
   1   1.0000    -104.778566     -2851.1697
   2   1.0000    -104.776239     -2851.1064
   3   1.0000    -104.775268     -2851.0800
   4   1.0000     -32.064300      -872.5140
   5   1.0000     -27.542257      -749.4629
   6   1.0000     -27.542194      -749.4612
   7   1.0000     -27.541918      -749.4537
   8   1.0000     -20.578451      -559.9681
   9   1.0000     -11.402254      -310.2711
  10   1.0000     -11.326863      -308.2196
  11   1.0000     -11.275872      -306.8321
  12   1.0000     -11.269125      -306.6485
  13   1.0000     -11.264568      -306.5245
  14   1.0000     -11.259286      -306.3808
  15   1.0000     -11.257151      -306.3226
  16   1.0000     -11.244644      -305.9823
  17   1.0000     -10.505130      -285.8591
  18   1.0000     -10.502773      -285.7950
  19   1.0000     -10.501768      -285.7676
  20   1.0000      -7.971034      -216.9029
  21   1.0000      -7.970369      -216.8848
  22   1.0000      -7.970312      -216.8832
  23   1.0000      -7.968671      -216.8386
  24   1.0000      -7.968029      -216.8211
  25   1.0000      -7.967931      -216.8184
  26   1.0000      -7.967747      -216.8134
  27   1.0000      -7.966965      -216.7921
  28   1.0000      -7.966869      -216.7895
  29   1.0000      -4.139253      -112.6348
  30   1.0000      -2.660918       -72.4073
  31   1.0000      -2.660842       -72.4052
  32   1.0000      -2.660300       -72.3904
  33   1.0000      -1.412912       -38.4473
  34   1.0000      -1.162440       -31.6316
  35   1.0000      -1.082167       -29.4473
  36   1.0000      -1.039431       -28.2843
  37   1.0000      -1.036132       -28.1946
  38   1.0000      -1.024916       -27.8894
  39   1.0000      -1.023026       -27.8380
  40   1.0000      -0.992395       -27.0044
  41   1.0000      -0.991553       -26.9815
  42   1.0000      -0.916137       -24.9294
  43   1.0000      -0.810885       -22.0653
  44   1.0000      -0.758425       -20.6378
  45   1.0000      -0.693276       -18.8650
  46   1.0000      -0.684095       -18.6152
  47   1.0000      -0.680157       -18.5080
  48   1.0000      -0.674420       -18.3519
  49   1.0000      -0.647498       -17.6193
  50   1.0000      -0.624114       -16.9830
  51   1.0000      -0.604294       -16.4437
  52   1.0000      -0.595332       -16.1998
  53   1.0000      -0.584352       -15.9010
  54   1.0000      -0.578746       -15.7485
  55   1.0000      -0.569240       -15.4898
  56   1.0000      -0.564646       -15.3648
  57   1.0000      -0.560477       -15.2513
  58   1.0000      -0.543403       -14.7868
  59   1.0000      -0.533815       -14.5259
  60   1.0000      -0.521107       -14.1800
  61   1.0000      -0.508557       -13.8386
  62   1.0000      -0.482063       -13.1176
  63   1.0000      -0.470563       -12.8047
  64   1.0000      -0.469038       -12.7632
  65   1.0000      -0.441299       -12.0084
  66   1.0000      -0.438197       -11.9240
  67   1.0000      -0.436028       -11.8649
  68   1.0000      -0.422286       -11.4910
  69   1.0000      -0.416147       -11.3239
  70   1.0000      -0.401357       -10.9215
  71   1.0000      -0.379968       -10.3395
  72   0.0000       0.008469         0.2305
  73   0.0000       0.020167         0.5488
  74   0.0000       0.020978         0.5708
  75   0.0000       0.025909         0.7050
  76   0.0000       0.032315         0.8793

E(0)                                       ...  -3028.435428997
E(0)                                       ...  -3028.435428997
E(CORR)(strong-pairs)                      ...     -2.874222039
E(CORR)(weak-pairs)                        ...     -0.035232584
E(CORR)(corrected)                         ...     -2.909454624
E(TOT)                                     ...  -3031.344883621
E(CCSD(T))                                 ...  -3031.465382465
FINAL SINGLE POINT ENERGY     -3031.465382465306

DIPOLE MOMENT
-------------
                                X             Y             Z
Electronic contribution:    -45.01739      -5.54604      -2.09796
Nuclear contribution   :     49.80040       6.39427       2.08294
                        -----------------------------------------
Total Dipole Moment    :      4.78301       0.84823      -0.01502
                        -----------------------------------------
Magnitude (a.u.)       :      4.85766
Magnitude (Debye)      :     12.34719

Rotational constants in cm-1:     0.020097     0.009846     0.009436
Rotational constants in MHz :   602.478079   295.181765   282.894229

                             ****ORCA TERMINATED NORMALLY****
TOTAL RUN TIME: 1 days 2 hours 14 minutes 1 seconds 453 msec
