                         Program Version 4.1.2  - RELEASE  -
|  1> ! aug-cc-pVTZ aug-cc-pVTZ/C DLPNO-CCSD(T1) TightSCF NormalPNO UNO MiniPrint AutoAux
|  2> %pal nproc 10 end
|  3> %maxcore 20000
|  4> %mdci
|  5>      density none
|  6> end
|  7>
|  8> * xyz 0 6
|  9>  O     -0.32934700     -0.16486800     -0.69834500
| 10>  C     -1.27585500     -1.09035100     -0.55349800
| 11>  C     -2.75242600     -0.28763600      0.33272500
| 12>  C     -2.40983300      0.99227800     -0.11944500
| 13>  C     -2.81456800      1.49441100     -1.45757600
| 14> Fe      1.39216900      0.10501600     -0.01339200
| 15> Cl      1.91373800      2.11708500     -0.74649600
| 16>  C     -1.58684100      1.92111000      0.68867300
| 17> Cl      2.64203500     -1.54899600     -0.74363000
| 18> Cl      1.18218400      0.06707400      2.20877000
| 19>  H     -3.57148300     -0.75372000     -0.21326100
| 20>  H     -2.28952800      2.61334300      1.18228400
| 21>  H     -1.00637500      1.42867200      1.46742000
| 22>  H     -0.92303000      2.52054900      0.05881600
| 23>  H     -3.17447300      2.52636300     -1.36397400
| 24>  H     -1.91378900      1.54222900     -2.08570600
| 25>  H     -3.57756900      0.88549500     -1.94369800
| 26>  C     -2.75387500     -0.59029600      1.82310200
| 27>  H     -3.53712500     -0.00384500      2.31757800
| 28>  H     -2.97286700     -1.64502300      2.00015100
| 29>  H     -1.80189300     -0.35727800      2.30442400
| 30>  C     -0.91592600     -2.25852000      0.35079100
| 31>  H     -1.74507300     -2.95902000      0.47586500
| 32>  H     -0.09284100     -2.77911900     -0.15560800
| 33>  H     -0.54628900     -1.93232800      1.32235300
| 34>  C     -1.84242400     -1.55488900     -1.89007200
| 35>  H     -1.03310600     -2.09861800     -2.39094600
| 36>  H     -2.69307400     -2.23085300     -1.76835600
| 37>  H     -2.11787600     -0.72273700     -2.53754200
| 38> *
| 39>
| 40>
| 41>                          ****END OF INPUT****

CARTESIAN COORDINATES (ANGSTROEM)
---------------------------------
  O     -0.329347   -0.164868   -0.698345
  C     -1.275855   -1.090351   -0.553498
  C     -2.752426   -0.287636    0.332725
  C     -2.409833    0.992278   -0.119445
  C     -2.814568    1.494411   -1.457576
  Fe     1.392169    0.105016   -0.013392
  Cl     1.913738    2.117085   -0.746496
  C     -1.586841    1.921110    0.688673
  Cl     2.642035   -1.548996   -0.743630
  Cl     1.182184    0.067074    2.208770
  H     -3.571483   -0.753720   -0.213261
  H     -2.289528    2.613343    1.182284
  H     -1.006375    1.428672    1.467420
  H     -0.923030    2.520549    0.058816
  H     -3.174473    2.526363   -1.363974
  H     -1.913789    1.542229   -2.085706
  H     -3.577569    0.885495   -1.943698
  C     -2.753875   -0.590296    1.823102
  H     -3.537125   -0.003845    2.317578
  H     -2.972867   -1.645023    2.000151
  H     -1.801893   -0.357278    2.304424
  C     -0.915926   -2.258520    0.350791
  H     -1.745073   -2.959020    0.475865
  H     -0.092841   -2.779119   -0.155608
  H     -0.546289   -1.932328    1.322353
  C     -1.842424   -1.554889   -1.890072
  H     -1.033106   -2.098618   -2.390946
  H     -2.693074   -2.230853   -1.768356
  H     -2.117876   -0.722737   -2.537542

ORBITAL ENERGIES
----------------
                 SPIN UP ORBITALS
  NO   OCC          E(Eh)            E(eV)
   0   1.0000    -261.549333     -7117.1192
   1   1.0000    -104.776929     -2851.1252
   2   1.0000    -104.773332     -2851.0273
   3   1.0000    -104.771550     -2850.9788
   4   1.0000     -32.217236      -876.6756
   5   1.0000     -27.693149      -753.5689
   6   1.0000     -27.692940      -753.5632
   7   1.0000     -27.692690      -753.5564
   8   1.0000     -20.549671      -559.1850
   9   1.0000     -11.377771      -309.6049
  10   1.0000     -11.373397      -309.4859
  11   1.0000     -11.283577      -307.0417
  12   1.0000     -11.281219      -306.9776
  13   1.0000     -11.266379      -306.5738
  14   1.0000     -11.255170      -306.2688
  15   1.0000     -11.251721      -306.1749
  16   1.0000     -11.243314      -305.9461
  17   1.0000     -10.503516      -285.8152
  18   1.0000     -10.499895      -285.7167
  19   1.0000     -10.498141      -285.6689
  20   1.0000      -7.970416      -216.8860
  21   1.0000      -7.969528      -216.8619
  22   1.0000      -7.969489      -216.8608
  23   1.0000      -7.966714      -216.7853
  24   1.0000      -7.965996      -216.7658
  25   1.0000      -7.965911      -216.7635
  26   1.0000      -7.964972      -216.7379
  27   1.0000      -7.964244      -216.7181
  28   1.0000      -7.964168      -216.7160
  29   1.0000      -4.572606      -124.4269
  30   1.0000      -3.185130       -86.6718
  31   1.0000      -3.184689       -86.6598
  32   1.0000      -3.184226       -86.6472
  33   1.0000      -1.388844       -37.7924
  34   1.0000      -1.183493       -32.2045
  35   1.0000      -1.084053       -29.4986
  36   1.0000      -1.047140       -28.4941
  37   1.0000      -1.044137       -28.4124
  38   1.0000      -1.041274       -28.3345
  39   1.0000      -1.038729       -28.2652
  40   1.0000      -1.005449       -27.3597
  41   1.0000      -0.977763       -26.6063
  42   1.0000      -0.932852       -25.3842
  43   1.0000      -0.913972       -24.8704
  44   1.0000      -0.902098       -24.5473
  45   1.0000      -0.901959       -24.5436
  46   1.0000      -0.893630       -24.3169
  47   1.0000      -0.892926       -24.2977
  48   1.0000      -0.786748       -21.4085
  49   1.0000      -0.766130       -20.8475
  50   1.0000      -0.702623       -19.1193
  51   1.0000      -0.691565       -18.8185
  52   1.0000      -0.672738       -18.3061
  53   1.0000      -0.652552       -17.7568
  54   1.0000      -0.647324       -17.6146
  55   1.0000      -0.627641       -17.0790
  56   1.0000      -0.599120       -16.3029
  57   1.0000      -0.597555       -16.2603
  58   1.0000      -0.590118       -16.0579
  59   1.0000      -0.578492       -15.7416
  60   1.0000      -0.577164       -15.7054
  61   1.0000      -0.561566       -15.2810
  62   1.0000      -0.555890       -15.1265
  63   1.0000      -0.546573       -14.8730
  64   1.0000      -0.536465       -14.5979
  65   1.0000      -0.528079       -14.3698
  66   1.0000      -0.511413       -13.9163
  67   1.0000      -0.472921       -12.8688
  68   1.0000      -0.461003       -12.5445
  69   1.0000      -0.451274       -12.2798
  70   1.0000      -0.426193       -11.5973
  71   1.0000      -0.425670       -11.5831
  72   1.0000      -0.423183       -11.5154
  73   1.0000      -0.414164       -11.2700
  74   1.0000      -0.413097       -11.2409
  75   1.0000      -0.411681       -11.2024
  76   1.0000      -0.395215       -10.7544
  77   0.0000       0.007219         0.1964
  78   0.0000       0.017735         0.4826
  79   0.0000       0.020562         0.5595
  80   0.0000       0.021496         0.5849
  81   0.0000       0.030747         0.8367

                 SPIN DOWN ORBITALS
  NO   OCC          E(Eh)            E(eV)
   0   1.0000    -261.545789     -7117.0227
   1   1.0000    -104.775611     -2851.0893
   2   1.0000    -104.771970     -2850.9903
   3   1.0000    -104.770108     -2850.9396
   4   1.0000     -32.055165      -872.2654
   5   1.0000     -27.533238      -749.2175
   6   1.0000     -27.533087      -749.2134
   7   1.0000     -27.532589      -749.1998
   8   1.0000     -20.544212      -559.0364
   9   1.0000     -11.377729      -309.6037
  10   1.0000     -11.373362      -309.4849
  11   1.0000     -11.283580      -307.0418
  12   1.0000     -11.281016      -306.9721
  13   1.0000     -11.266410      -306.5746
  14   1.0000     -11.255191      -306.2693
  15   1.0000     -11.251608      -306.1718
  16   1.0000     -11.243278      -305.9451
  17   1.0000     -10.502095      -285.7765
  18   1.0000     -10.498437      -285.6770
  19   1.0000     -10.496598      -285.6269
  20   1.0000      -7.967938      -216.8186
  21   1.0000      -7.967500      -216.8067
  22   1.0000      -7.967422      -216.8046
  23   1.0000      -7.964413      -216.7227
  24   1.0000      -7.963736      -216.7043
  25   1.0000      -7.963646      -216.7018
  26   1.0000      -7.962546      -216.6719
  27   1.0000      -7.961841      -216.6527
  28   1.0000      -7.961764      -216.6506
  29   1.0000      -4.130306      -112.3913
  30   1.0000      -2.652136       -72.1683
  31   1.0000      -2.652065       -72.1664
  32   1.0000      -2.651176       -72.1422
  33   1.0000      -1.374823       -37.4108
  34   1.0000      -1.182544       -32.1787
  35   1.0000      -1.081398       -29.4263
  36   1.0000      -1.042927       -28.3795
  37   1.0000      -1.033107       -28.1123
  38   1.0000      -1.021592       -27.7989
  39   1.0000      -1.018338       -27.7104
  40   1.0000      -1.005173       -27.3522
  41   1.0000      -0.976934       -26.5837
  42   1.0000      -0.931297       -25.3419
  43   1.0000      -0.796537       -21.6749
  44   1.0000      -0.769327       -20.9345
  45   1.0000      -0.703088       -19.1320
  46   1.0000      -0.690677       -18.7943
  47   1.0000      -0.674033       -18.3414
  48   1.0000      -0.654199       -17.8017
  49   1.0000      -0.645683       -17.5699
  50   1.0000      -0.627031       -17.0624
  51   1.0000      -0.598931       -16.2977
  52   1.0000      -0.596866       -16.2416
  53   1.0000      -0.590037       -16.0557
  54   1.0000      -0.578418       -15.7395
  55   1.0000      -0.576507       -15.6876
  56   1.0000      -0.561004       -15.2657
  57   1.0000      -0.555631       -15.1195
  58   1.0000      -0.545875       -14.8540
  59   1.0000      -0.530661       -14.4400
  60   1.0000      -0.527854       -14.3636
  61   1.0000      -0.503018       -13.6878
  62   1.0000      -0.471726       -12.8363
  63   1.0000      -0.465252       -12.6601
  64   1.0000      -0.459656       -12.5079
  65   1.0000      -0.436764       -11.8850
  66   1.0000      -0.433700       -11.8016
  67   1.0000      -0.432002       -11.7554
  68   1.0000      -0.422646       -11.5008
  69   1.0000      -0.411794       -11.2055
  70   1.0000      -0.399242       -10.8639
  71   1.0000      -0.389038       -10.5863
  72   0.0000       0.007219         0.1964
  73   0.0000       0.017561         0.4779
  74   0.0000       0.020552         0.5592
  75   0.0000       0.021406         0.5825
  76   0.0000       0.030756         0.8369

E(0)                                       ...  -3028.425230849
E(0)                                       ...  -3028.425230849
E(CORR)(strong-pairs)                      ...     -2.872932439
E(CORR)(weak-pairs)                        ...     -0.035876415
E(CORR)(corrected)                         ...     -2.908808854
E(TOT)                                     ...  -3031.334039702
E(CCSD(T))                                 ...  -3031.453380428
FINAL SINGLE POINT ENERGY     -3031.453380427999

DIPOLE MOMENT
-------------
                                X             Y             Z
Electronic contribution:     39.99473       5.09079       1.77774
Nuclear contribution   :    -44.83986      -5.08646      -2.23357
                        -----------------------------------------
Total Dipole Moment    :     -4.84512       0.00433      -0.45583
                        -----------------------------------------
Magnitude (a.u.)       :      4.86652
Magnitude (Debye)      :     12.36971

Rotational constants in cm-1:     0.019086     0.011612     0.010795
Rotational constants in MHz :   572.174265   348.131113   323.629822

                             ****ORCA TERMINATED NORMALLY****
TOTAL RUN TIME: 0 days 20 hours 56 minutes 39 seconds 376 msec
