                         Program Version 4.1.2  - RELEASE  -
|  1> ! aug-cc-pVTZ aug-cc-pVTZ/C DLPNO-CCSD(T1) TightSCF NormalPNO UNO MiniPrint AutoAux
|  2> %pal nproc 10 end
|  3> %maxcore 20000
|  4> %mdci
|  5>      density none
|  6> end
|  7>
|  8> * xyz 0 6
|  9>  O     -0.31171600     -0.09287900     -0.40802200
| 10>  C     -1.25293700     -1.04349300     -0.21713700
| 11>  C     -2.50202800     -0.39380600      0.73558400
| 12>  C     -3.02810700      0.68942400     -0.04508500
| 13>  C     -4.20909800      0.51012500     -0.92355100
| 14> Fe      1.51169100      0.17185800     -0.09018300
| 15> Cl      1.81604800      2.21495500     -0.86093300
| 16>  C     -2.27467100      1.93330600     -0.11032200
| 17> Cl      2.54406000     -1.44234700     -1.17523100
| 18> Cl      1.83703900      0.05806200      2.09882600
| 19>  H     -3.22025200     -1.21527000      0.80054300
| 20>  H     -2.71119400      2.70319000     -0.74713900
| 21>  H     -1.99973500      2.33031500      0.87167700
| 22>  H     -1.28629400      1.58271000     -0.52084400
| 23>  H     -5.03168200      1.09949800     -0.48721300
| 24>  H     -4.03315400      0.93336000     -1.91977800
| 25>  H     -4.53503200     -0.52799700     -1.00152400
| 26>  C     -1.92986800     -0.00959000      2.10901200
| 27>  H     -2.61514000      0.66169000      2.63617800
| 28>  H     -1.80344300     -0.90209900      2.72324100
| 29>  H     -0.95563500      0.47394000      2.01923100
| 30>  C     -0.73502000     -2.23701500      0.60598700
| 31>  H     -1.53649600     -2.94068200      0.85050900
| 32>  H      0.00855300     -2.74911900     -0.01338400
| 33>  H     -0.23590600     -1.91095100      1.51872200
| 34>  C     -1.80859100     -1.52285000     -1.56438400
| 35>  H     -1.00695900     -2.05782700     -2.08173000
| 36>  H     -2.65926800     -2.20271300     -1.44634400
| 37>  H     -2.09816000     -0.68133500     -2.19911800
| 38> *
| 39>
| 40>
| 41>                          ****END OF INPUT****

CARTESIAN COORDINATES (ANGSTROEM)
---------------------------------
  O     -0.311716   -0.092879   -0.408022
  C     -1.252937   -1.043493   -0.217137
  C     -2.502028   -0.393806    0.735584
  C     -3.028107    0.689424   -0.045085
  C     -4.209098    0.510125   -0.923551
  Fe     1.511691    0.171858   -0.090183
  Cl     1.816048    2.214955   -0.860933
  C     -2.274671    1.933306   -0.110322
  Cl     2.544060   -1.442347   -1.175231
  Cl     1.837039    0.058062    2.098826
  H     -3.220252   -1.215270    0.800543
  H     -2.711194    2.703190   -0.747139
  H     -1.999735    2.330315    0.871677
  H     -1.286294    1.582710   -0.520844
  H     -5.031682    1.099498   -0.487213
  H     -4.033154    0.933360   -1.919778
  H     -4.535032   -0.527997   -1.001524
  C     -1.929868   -0.009590    2.109012
  H     -2.615140    0.661690    2.636178
  H     -1.803443   -0.902099    2.723241
  H     -0.955635    0.473940    2.019231
  C     -0.735020   -2.237015    0.605987
  H     -1.536496   -2.940682    0.850509
  H      0.008553   -2.749119   -0.013384
  H     -0.235906   -1.910951    1.518722
  C     -1.808591   -1.522850   -1.564384
  H     -1.006959   -2.057827   -2.081730
  H     -2.659268   -2.202713   -1.446344
  H     -2.098160   -0.681335   -2.199118

ORBITAL ENERGIES
----------------
                 SPIN UP ORBITALS
  NO   OCC          E(Eh)            E(eV)
   0   1.0000    -261.538098     -7116.8135
   1   1.0000    -104.766322     -2850.8365
   2   1.0000    -104.764957     -2850.7994
   3   1.0000    -104.763048     -2850.7475
   4   1.0000     -32.206022      -876.3704
   5   1.0000     -27.681914      -753.2632
   6   1.0000     -27.681717      -753.2578
   7   1.0000     -27.681502      -753.2520
   8   1.0000     -20.537054      -558.8417
   9   1.0000     -11.401964      -310.2632
  10   1.0000     -11.348584      -308.8107
  11   1.0000     -11.309750      -307.7539
  12   1.0000     -11.292133      -307.2746
  13   1.0000     -11.280939      -306.9699
  14   1.0000     -11.255256      -306.2711
  15   1.0000     -11.245441      -306.0040
  16   1.0000     -11.233921      -305.6905
  17   1.0000     -10.492941      -285.5274
  18   1.0000     -10.491538      -285.4893
  19   1.0000     -10.489661      -285.4382
  20   1.0000      -7.959814      -216.5976
  21   1.0000      -7.958993      -216.5752
  22   1.0000      -7.958936      -216.5736
  23   1.0000      -7.958364      -216.5581
  24   1.0000      -7.957644      -216.5385
  25   1.0000      -7.957542      -216.5357
  26   1.0000      -7.956508      -216.5076
  27   1.0000      -7.955760      -216.4872
  28   1.0000      -7.955677      -216.4850
  29   1.0000      -4.561494      -124.1246
  30   1.0000      -3.174022       -86.3695
  31   1.0000      -3.173631       -86.3589
  32   1.0000      -3.173119       -86.3449
  33   1.0000      -1.368143       -37.2291
  34   1.0000      -1.204736       -32.7825
  35   1.0000      -1.088314       -29.6145
  36   1.0000      -1.047362       -28.5002
  37   1.0000      -1.037146       -28.2222
  38   1.0000      -1.031990       -28.0819
  39   1.0000      -1.029867       -28.0241
  40   1.0000      -1.023314       -27.8458
  41   1.0000      -0.967760       -26.3341
  42   1.0000      -0.932637       -25.3783
  43   1.0000      -0.904156       -24.6033
  44   1.0000      -0.891076       -24.2474
  45   1.0000      -0.891013       -24.2457
  46   1.0000      -0.882554       -24.0155
  47   1.0000      -0.882215       -24.0063
  48   1.0000      -0.803939       -21.8763
  49   1.0000      -0.768760       -20.9190
  50   1.0000      -0.715522       -19.4703
  51   1.0000      -0.697944       -18.9920
  52   1.0000      -0.677846       -18.4451
  53   1.0000      -0.650057       -17.6890
  54   1.0000      -0.647291       -17.6137
  55   1.0000      -0.637524       -17.3479
  56   1.0000      -0.611661       -16.6442
  57   1.0000      -0.601765       -16.3749
  58   1.0000      -0.592538       -16.1238
  59   1.0000      -0.583229       -15.8705
  60   1.0000      -0.575096       -15.6491
  61   1.0000      -0.562530       -15.3072
  62   1.0000      -0.553253       -15.0548
  63   1.0000      -0.538903       -14.6643
  64   1.0000      -0.531295       -14.4573
  65   1.0000      -0.516050       -14.0424
  66   1.0000      -0.499501       -13.5921
  67   1.0000      -0.462414       -12.5829
  68   1.0000      -0.457006       -12.4358
  69   1.0000      -0.438142       -11.9225
  70   1.0000      -0.428187       -11.6516
  71   1.0000      -0.417260       -11.3542
  72   1.0000      -0.413027       -11.2390
  73   1.0000      -0.407344       -11.0844
  74   1.0000      -0.404479       -11.0064
  75   1.0000      -0.403714       -10.9856
  76   1.0000      -0.402794       -10.9606
  77   0.0000      -0.005625        -0.1531
  78   0.0000       0.000166         0.0045
  79   0.0000       0.016460         0.4479
  80   0.0000       0.017092         0.4651
  81   0.0000       0.026527         0.7218

                 SPIN DOWN ORBITALS
  NO   OCC          E(Eh)            E(eV)
   0   1.0000    -261.534549     -7116.7169
   1   1.0000    -104.764961     -2850.7995
   2   1.0000    -104.763606     -2850.7626
   3   1.0000    -104.761632     -2850.7089
   4   1.0000     -32.043943      -871.9600
   5   1.0000     -27.522016      -748.9121
   6   1.0000     -27.521862      -748.9080
   7   1.0000     -27.521371      -748.8946
   8   1.0000     -20.531378      -558.6872
   9   1.0000     -11.401929      -310.2623
  10   1.0000     -11.348447      -308.8070
  11   1.0000     -11.309756      -307.7541
  12   1.0000     -11.292004      -307.2711
  13   1.0000     -11.280942      -306.9700
  14   1.0000     -11.255284      -306.2718
  15   1.0000     -11.245344      -306.0014
  16   1.0000     -11.233887      -305.6896
  17   1.0000     -10.491476      -285.4876
  18   1.0000     -10.490089      -285.4498
  19   1.0000     -10.488143      -285.3969
  20   1.0000      -7.957371      -216.5311
  21   1.0000      -7.956823      -216.5162
  22   1.0000      -7.956751      -216.5142
  23   1.0000      -7.956054      -216.4952
  24   1.0000      -7.955419      -216.4780
  25   1.0000      -7.955311      -216.4750
  26   1.0000      -7.954085      -216.4416
  27   1.0000      -7.953426      -216.4237
  28   1.0000      -7.953347      -216.4216
  29   1.0000      -4.119216      -112.0896
  30   1.0000      -2.641105       -71.8681
  31   1.0000      -2.641028       -71.8660
  32   1.0000      -2.640106       -71.8409
  33   1.0000      -1.353665       -36.8351
  34   1.0000      -1.203771       -32.7563
  35   1.0000      -1.085874       -29.5481
  36   1.0000      -1.046462       -28.4757
  37   1.0000      -1.023654       -27.8550
  38   1.0000      -1.021668       -27.8010
  39   1.0000      -1.011745       -27.5310
  40   1.0000      -1.009784       -27.4776
  41   1.0000      -0.967130       -26.3169
  42   1.0000      -0.932355       -25.3707
  43   1.0000      -0.809057       -22.0156
  44   1.0000      -0.776139       -21.1198
  45   1.0000      -0.716187       -19.4884
  46   1.0000      -0.697383       -18.9768
  47   1.0000      -0.677998       -18.4493
  48   1.0000      -0.651143       -17.7185
  49   1.0000      -0.647674       -17.6241
  50   1.0000      -0.636524       -17.3207
  51   1.0000      -0.611668       -16.6443
  52   1.0000      -0.601649       -16.3717
  53   1.0000      -0.592369       -16.1192
  54   1.0000      -0.582107       -15.8399
  55   1.0000      -0.573899       -15.6166
  56   1.0000      -0.562168       -15.2974
  57   1.0000      -0.553307       -15.0563
  58   1.0000      -0.538942       -14.6653
  59   1.0000      -0.529410       -14.4060
  60   1.0000      -0.511489       -13.9183
  61   1.0000      -0.493393       -13.4259
  62   1.0000      -0.460753       -12.5377
  63   1.0000      -0.457609       -12.4522
  64   1.0000      -0.444886       -12.1060
  65   1.0000      -0.434940       -11.8353
  66   1.0000      -0.427459       -11.6318
  67   1.0000      -0.424163       -11.5421
  68   1.0000      -0.423283       -11.5181
  69   1.0000      -0.402384       -10.9494
  70   1.0000      -0.394571       -10.7368
  71   1.0000      -0.389672       -10.6035
  72   0.0000      -0.005748        -0.1564
  73   0.0000       0.000161         0.0044
  74   0.0000       0.016453         0.4477
  75   0.0000       0.017079         0.4647
  76   0.0000       0.026542         0.7222

E(0)                                       ...  -3028.425905639
E(0)                                       ...  -3028.425905639
E(CORR)(strong-pairs)                      ...     -2.873467372
E(CORR)(weak-pairs)                        ...     -0.035120095
E(CORR)(corrected)                         ...     -2.908587466
E(TOT)                                     ...  -3031.334493105
E(CCSD(T))                                 ...  -3031.453533790
FINAL SINGLE POINT ENERGY     -3031.453533790262

DIPOLE MOMENT
-------------
                                X             Y             Z
Electronic contribution:     42.43602       6.92301      -1.22966
Nuclear contribution   :    -48.53727      -6.98626       1.20633
                        -----------------------------------------
Total Dipole Moment    :     -6.10124      -0.06324      -0.02334
                        -----------------------------------------
Magnitude (a.u.)       :      6.10162
Magnitude (Debye)      :     15.50908

Rotational constants in cm-1:     0.020171     0.010229     0.009772
Rotational constants in MHz :   604.708674   306.661904   292.964982

                             ****ORCA TERMINATED NORMALLY****
TOTAL RUN TIME: 0 days 20 hours 24 minutes 44 seconds 720 msec
