                         Program Version 4.1.2  - RELEASE  -
|  1> ! aug-cc-pVTZ aug-cc-pVTZ/C DLPNO-CCSD(T1) TightSCF NormalPNO UNO MiniPrint AutoAux
|  2> %pal nproc 10 end
|  3> %maxcore 20000
|  4> %mdci
|  5>      density none
|  6> end
|  7>
|  8> * xyz 0 6
|  9>  O     -0.35220000     -0.09955500     -0.42928200
| 10>  C     -1.25576100     -1.09109700     -0.28394200
| 11>  C     -2.52663600     -0.45647100      0.64993600
| 12>  C     -2.83266900      0.75203100     -0.04898700
| 13>  C     -3.85317700      0.77442200     -1.12746300
| 14> Fe      1.45999900      0.17170300     -0.07685000
| 15> Cl      1.70716700      2.25528900     -0.77437500
| 16>  C     -2.06929300      1.96520600      0.18761400
| 17> Cl      2.56701500     -1.37620200     -1.18165400
| 18> Cl      1.72369000      0.01614200      2.12083500
| 19>  H     -3.31959900     -1.19907700      0.52891900
| 20>  H     -2.45213400      2.84874500     -0.32440000
| 21>  H     -1.85141800      2.16005800      1.24023800
| 22>  H     -1.07519800      1.68142700     -0.24641900
| 23>  H     -4.68493500      1.40354200     -0.77365500
| 24>  H     -3.46462300      1.27072000     -2.02556100
| 25>  H     -4.24612200     -0.21121400     -1.37729600
| 26>  C     -2.08036900     -0.29739500      2.10790400
| 27>  H     -2.77822900      0.34864100      2.65051700
| 28>  H     -2.07347200     -1.26797400      2.60609000
| 29>  H     -1.07636800      0.12636000      2.18183700
| 30>  C     -0.72878300     -2.29388500      0.51616700
| 31>  H     -1.51995400     -3.02124500      0.72291800
| 32>  H      0.03660800     -2.77330800     -0.10304500
| 33>  H     -0.25507400     -1.98647800      1.44818200
| 34>  C     -1.77402300     -1.55710000     -1.65079600
| 35>  H     -0.95139900     -2.07884000     -2.14865300
| 36>  H     -2.61954700     -2.24793000     -1.56429600
| 37>  H     -2.05048200     -0.71443800     -2.28731600
| 38> *
| 39>
| 40>
| 41>                          ****END OF INPUT****

CARTESIAN COORDINATES (ANGSTROEM)
---------------------------------
  O     -0.352200   -0.099555   -0.429282
  C     -1.255761   -1.091097   -0.283942
  C     -2.526636   -0.456471    0.649936
  C     -2.832669    0.752031   -0.048987
  C     -3.853177    0.774422   -1.127463
  Fe     1.459999    0.171703   -0.076850
  Cl     1.707167    2.255289   -0.774375
  C     -2.069293    1.965206    0.187614
  Cl     2.567015   -1.376202   -1.181654
  Cl     1.723690    0.016142    2.120835
  H     -3.319599   -1.199077    0.528919
  H     -2.452134    2.848745   -0.324400
  H     -1.851418    2.160058    1.240238
  H     -1.075198    1.681427   -0.246419
  H     -4.684935    1.403542   -0.773655
  H     -3.464623    1.270720   -2.025561
  H     -4.246122   -0.211214   -1.377296
  C     -2.080369   -0.297395    2.107904
  H     -2.778229    0.348641    2.650517
  H     -2.073472   -1.267974    2.606090
  H     -1.076368    0.126360    2.181837
  C     -0.728783   -2.293885    0.516167
  H     -1.519954   -3.021245    0.722918
  H      0.036608   -2.773308   -0.103045
  H     -0.255074   -1.986478    1.448182
  C     -1.774023   -1.557100   -1.650796
  H     -0.951399   -2.078840   -2.148653
  H     -2.619547   -2.247930   -1.564296
  H     -2.050482   -0.714438   -2.287316

ORBITAL ENERGIES
----------------
                 SPIN UP ORBITALS
  NO   OCC          E(Eh)            E(eV)
   0   1.0000    -261.540268     -7116.8725
   1   1.0000    -104.768514     -2850.8962
   2   1.0000    -104.767765     -2850.8758
   3   1.0000    -104.765989     -2850.8275
   4   1.0000     -32.208203      -876.4298
   5   1.0000     -27.684052      -753.3213
   6   1.0000     -27.683947      -753.3185
   7   1.0000     -27.683672      -753.3110
   8   1.0000     -20.536068      -558.8148
   9   1.0000     -11.398453      -310.1677
  10   1.0000     -11.348729      -308.8146
  11   1.0000     -11.305273      -307.6321
  12   1.0000     -11.290591      -307.2326
  13   1.0000     -11.275346      -306.8178
  14   1.0000     -11.254701      -306.2560
  15   1.0000     -11.243934      -305.9630
  16   1.0000     -11.234115      -305.6958
  17   1.0000     -10.495097      -285.5861
  18   1.0000     -10.494305      -285.5645
  19   1.0000     -10.492580      -285.5176
  20   1.0000      -7.961977      -216.6564
  21   1.0000      -7.961145      -216.6338
  22   1.0000      -7.961139      -216.6336
  23   1.0000      -7.961083      -216.6321
  24   1.0000      -7.960398      -216.6134
  25   1.0000      -7.960302      -216.6108
  26   1.0000      -7.959400      -216.5863
  27   1.0000      -7.958684      -216.5668
  28   1.0000      -7.958607      -216.5647
  29   1.0000      -4.563693      -124.1844
  30   1.0000      -3.176177       -86.4282
  31   1.0000      -3.175884       -86.4202
  32   1.0000      -3.175307       -86.4045
  33   1.0000      -1.371983       -37.3335
  34   1.0000      -1.202212       -32.7139
  35   1.0000      -1.089127       -29.6367
  36   1.0000      -1.046501       -28.4767
  37   1.0000      -1.039499       -28.2862
  38   1.0000      -1.034259       -28.1436
  39   1.0000      -1.032513       -28.0961
  40   1.0000      -1.019689       -27.7471
  41   1.0000      -0.968100       -26.3433
  42   1.0000      -0.934078       -25.4176
  43   1.0000      -0.905659       -24.6442
  44   1.0000      -0.893310       -24.3082
  45   1.0000      -0.893228       -24.3060
  46   1.0000      -0.884953       -24.0808
  47   1.0000      -0.884635       -24.0721
  48   1.0000      -0.800700       -21.7882
  49   1.0000      -0.768674       -20.9167
  50   1.0000      -0.713987       -19.4286
  51   1.0000      -0.698556       -19.0087
  52   1.0000      -0.677465       -18.4348
  53   1.0000      -0.649047       -17.6615
  54   1.0000      -0.647977       -17.6323
  55   1.0000      -0.633012       -17.2251
  56   1.0000      -0.609604       -16.5882
  57   1.0000      -0.601290       -16.3619
  58   1.0000      -0.590572       -16.0703
  59   1.0000      -0.585465       -15.9313
  60   1.0000      -0.571293       -15.5457
  61   1.0000      -0.562725       -15.3125
  62   1.0000      -0.555170       -15.1069
  63   1.0000      -0.537891       -14.6367
  64   1.0000      -0.530674       -14.4404
  65   1.0000      -0.515530       -14.0283
  66   1.0000      -0.501518       -13.6470
  67   1.0000      -0.464559       -12.6413
  68   1.0000      -0.458602       -12.4792
  69   1.0000      -0.440493       -11.9864
  70   1.0000      -0.429145       -11.6776
  71   1.0000      -0.419320       -11.4103
  72   1.0000      -0.415106       -11.2956
  73   1.0000      -0.409468       -11.1422
  74   1.0000      -0.406858       -11.0712
  75   1.0000      -0.406162       -11.0522
  76   1.0000      -0.405540       -11.0353
  77   0.0000      -0.000362        -0.0098
  78   0.0000       0.002197         0.0598
  79   0.0000       0.017408         0.4737
  80   0.0000       0.018299         0.4979
  81   0.0000       0.027696         0.7537

                 SPIN DOWN ORBITALS
  NO   OCC          E(Eh)            E(eV)
   0   1.0000    -261.536720     -7116.7760
   1   1.0000    -104.767160     -2850.8594
   2   1.0000    -104.766428     -2850.8395
   3   1.0000    -104.764579     -2850.7891
   4   1.0000     -32.046155      -872.0202
   5   1.0000     -27.524247      -748.9728
   6   1.0000     -27.524054      -748.9676
   7   1.0000     -27.523561      -748.9542
   8   1.0000     -20.530239      -558.6562
   9   1.0000     -11.398446      -310.1675
  10   1.0000     -11.348613      -308.8115
  11   1.0000     -11.305276      -307.6322
  12   1.0000     -11.290438      -307.2284
  13   1.0000     -11.275359      -306.8181
  14   1.0000     -11.254725      -306.2566
  15   1.0000     -11.243834      -305.9603
  16   1.0000     -11.234074      -305.6947
  17   1.0000     -10.493640      -285.5465
  18   1.0000     -10.492871      -285.5255
  19   1.0000     -10.491070      -285.4765
  20   1.0000      -7.959526      -216.5897
  21   1.0000      -7.959000      -216.5754
  22   1.0000      -7.958922      -216.5733
  23   1.0000      -7.958818      -216.5704
  24   1.0000      -7.958220      -216.5542
  25   1.0000      -7.958114      -216.5513
  26   1.0000      -7.957039      -216.5220
  27   1.0000      -7.956331      -216.5028
  28   1.0000      -7.956260      -216.5008
  29   1.0000      -4.121491      -112.1515
  30   1.0000      -2.643397       -71.9305
  31   1.0000      -2.643307       -71.9280
  32   1.0000      -2.642397       -71.9033
  33   1.0000      -1.357203       -36.9314
  34   1.0000      -1.201155       -32.6851
  35   1.0000      -1.086638       -29.5689
  36   1.0000      -1.045533       -28.4504
  37   1.0000      -1.025349       -27.9012
  38   1.0000      -1.018945       -27.7269
  39   1.0000      -1.014136       -27.5961
  40   1.0000      -1.012652       -27.5557
  41   1.0000      -0.967345       -26.3228
  42   1.0000      -0.933420       -25.3996
  43   1.0000      -0.805859       -21.9285
  44   1.0000      -0.775918       -21.1138
  45   1.0000      -0.714685       -19.4476
  46   1.0000      -0.697880       -18.9903
  47   1.0000      -0.677673       -18.4404
  48   1.0000      -0.651038       -17.7156
  49   1.0000      -0.647023       -17.6064
  50   1.0000      -0.631996       -17.1975
  51   1.0000      -0.609684       -16.5903
  52   1.0000      -0.601317       -16.3627
  53   1.0000      -0.590065       -16.0565
  54   1.0000      -0.584534       -15.9060
  55   1.0000      -0.569859       -15.5066
  56   1.0000      -0.562531       -15.3072
  57   1.0000      -0.554933       -15.1005
  58   1.0000      -0.537648       -14.6301
  59   1.0000      -0.528752       -14.3881
  60   1.0000      -0.511127       -13.9085
  61   1.0000      -0.495683       -13.4882
  62   1.0000      -0.462971       -12.5981
  63   1.0000      -0.459940       -12.5156
  64   1.0000      -0.446440       -12.1483
  65   1.0000      -0.435018       -11.8374
  66   1.0000      -0.429794       -11.6953
  67   1.0000      -0.426583       -11.6079
  68   1.0000      -0.425496       -11.5783
  69   1.0000      -0.405244       -11.0273
  70   1.0000      -0.396324       -10.7845
  71   1.0000      -0.392458       -10.6793
  72   0.0000      -0.000456        -0.0124
  73   0.0000       0.002165         0.0589
  74   0.0000       0.017403         0.4736
  75   0.0000       0.018285         0.4975
  76   0.0000       0.027713         0.7541

E(0)                                       ...  -3028.425002657
E(0)                                       ...  -3028.425002657
E(CORR)(strong-pairs)                      ...     -2.873349396
E(CORR)(weak-pairs)                        ...     -0.035681252
E(CORR)(corrected)                         ...     -2.909030648
E(TOT)                                     ...  -3031.334033305
E(CCSD(T))                                 ...  -3031.452737862
FINAL SINGLE POINT ENERGY     -3031.452737862295

DIPOLE MOMENT
-------------
                                X             Y             Z
Electronic contribution:     41.06275       7.25392      -0.67657
Nuclear contribution   :    -46.78357      -7.32310       0.55840
                        -----------------------------------------
Total Dipole Moment    :     -5.72081      -0.06919      -0.11817
                        -----------------------------------------
Magnitude (a.u.)       :      5.72245
Magnitude (Debye)      :     14.54532

Rotational constants in cm-1:     0.019601     0.010791     0.010227
Rotational constants in MHz :   587.633428   323.516233   306.587847

                             ****ORCA TERMINATED NORMALLY****
TOTAL RUN TIME: 0 days 21 hours 30 minutes 25 seconds 661 msec
