                         Program Version 4.1.2  - RELEASE  -
|  1> ! aug-cc-pVTZ aug-cc-pVTZ/C DLPNO-CCSD(T1) TightSCF NormalPNO UNO MiniPrint AutoAux
|  2> %pal nproc 10 end
|  3> %maxcore 20000
|  4> %mdci
|  5>      density none
|  6> end
|  7>
|  8> * xyz 0 6
|  9>  O      0.27264300      0.28153700     -0.56145800
| 10>  C      1.06676300      1.23586900     -0.30543600
| 11>  C      2.77959600      0.17930300      0.90797900
| 12>  C      3.06802100     -0.69988900     -0.08957600
| 13>  C      4.10605300     -0.41095100     -1.13246600
| 14> Fe     -1.55219000     -0.18820000     -0.09144900
| 15> Cl     -1.86374000     -2.08132600     -1.12799100
| 16>  C      2.32588200     -1.99305400     -0.22624100
| 17> Cl     -2.63451500      1.55180900     -0.86996000
| 18> Cl     -1.72719800     -0.35702700      2.09023000
| 19>  H      3.38894600      1.08023900      0.96821100
| 20>  H      2.85673400     -2.70278300     -0.86670300
| 21>  H      2.12497400     -2.46622000      0.73893800
| 22>  H      1.34725800     -1.79206500     -0.69073500
| 23>  H      4.92858400     -1.13153700     -1.02761800
| 24>  H      3.70894500     -0.54801000     -2.14661100
| 25>  H      4.52567600      0.59445600     -1.04501100
| 26>  C      2.02100300     -0.21332900      2.15358100
| 27>  H      2.56475800     -0.99891500      2.69326100
| 28>  H      1.91047100      0.63052700      2.83756000
| 29>  H      1.02235800     -0.60200200      1.93833800
| 30>  C      0.73728500      2.18464300      0.81722600
| 31>  H      1.59815100      2.77446500      1.13639700
| 32>  H     -0.01657900      2.87020300      0.40271000
| 33>  H      0.27958200      1.67498900      1.66409900
| 34>  C      1.85144800      1.79482000     -1.46147400
| 35>  H      1.19009600      2.52570400     -1.94798200
| 36>  H      2.75571500      2.31660600     -1.14385500
| 37>  H      2.08651600      1.02202800     -2.19195600
| 38> *
| 39>
| 40>
| 41>                          ****END OF INPUT****

CARTESIAN COORDINATES (ANGSTROEM)
---------------------------------
  O      0.272643    0.281537   -0.561458
  C      1.066763    1.235869   -0.305436
  C      2.779596    0.179303    0.907979
  C      3.068021   -0.699889   -0.089576
  C      4.106053   -0.410951   -1.132466
  Fe    -1.552190   -0.188200   -0.091449
  Cl    -1.863740   -2.081326   -1.127991
  C      2.325882   -1.993054   -0.226241
  Cl    -2.634515    1.551809   -0.869960
  Cl    -1.727198   -0.357027    2.090230
  H      3.388946    1.080239    0.968211
  H      2.856734   -2.702783   -0.866703
  H      2.124974   -2.466220    0.738938
  H      1.347258   -1.792065   -0.690735
  H      4.928584   -1.131537   -1.027618
  H      3.708945   -0.548010   -2.146611
  H      4.525676    0.594456   -1.045011
  C      2.021003   -0.213329    2.153581
  H      2.564758   -0.998915    2.693261
  H      1.910471    0.630527    2.837560
  H      1.022358   -0.602002    1.938338
  C      0.737285    2.184643    0.817226
  H      1.598151    2.774465    1.136397
  H     -0.016579    2.870203    0.402710
  H      0.279582    1.674989    1.664099
  C      1.851448    1.794820   -1.461474
  H      1.190096    2.525704   -1.947982
  H      2.755715    2.316606   -1.143855
  H      2.086516    1.022028   -2.191956

ORBITAL ENERGIES
----------------
                 SPIN UP ORBITALS
  NO   OCC          E(Eh)            E(eV)
   0   1.0000    -261.568831     -7117.6497
   1   1.0000    -104.788114     -2851.4295
   2   1.0000    -104.785576     -2851.3605
   3   1.0000    -104.783593     -2851.3065
   4   1.0000     -32.236578      -877.2019
   5   1.0000     -27.713005      -754.1092
   6   1.0000     -27.711956      -754.0807
   7   1.0000     -27.711789      -754.0761
   8   1.0000     -20.606679      -560.7362
   9   1.0000     -11.417274      -310.6798
  10   1.0000     -11.290195      -307.2218
  11   1.0000     -11.273297      -306.7620
  12   1.0000     -11.269621      -306.6620
  13   1.0000     -11.258347      -306.3552
  14   1.0000     -11.253935      -306.2352
  15   1.0000     -11.241381      -305.8935
  16   1.0000     -11.238774      -305.8226
  17   1.0000     -10.514786      -286.1219
  18   1.0000     -10.512227      -286.0522
  19   1.0000     -10.510205      -285.9972
  20   1.0000      -7.981619      -217.1909
  21   1.0000      -7.980846      -217.1699
  22   1.0000      -7.980836      -217.1696
  23   1.0000      -7.979101      -217.1224
  24   1.0000      -7.978329      -217.1014
  25   1.0000      -7.978252      -217.0993
  26   1.0000      -7.977010      -217.0655
  27   1.0000      -7.976346      -217.0474
  28   1.0000      -7.976263      -217.0452
  29   1.0000      -4.591627      -124.9445
  30   1.0000      -3.204829       -87.2078
  31   1.0000      -3.203072       -87.1600
  32   1.0000      -3.202908       -87.1556
  33   1.0000      -1.449818       -39.4515
  34   1.0000      -1.142209       -31.0811
  35   1.0000      -1.095018       -29.7970
  36   1.0000      -1.060739       -28.8642
  37   1.0000      -1.055309       -28.7164
  38   1.0000      -1.052405       -28.6374
  39   1.0000      -1.027730       -27.9660
  40   1.0000      -1.004170       -27.3249
  41   1.0000      -0.972913       -26.4743
  42   1.0000      -0.937712       -25.5164
  43   1.0000      -0.920706       -25.0537
  44   1.0000      -0.920674       -25.0528
  45   1.0000      -0.910089       -24.7648
  46   1.0000      -0.909621       -24.7520
  47   1.0000      -0.904189       -24.6042
  48   1.0000      -0.807812       -21.9817
  49   1.0000      -0.742740       -20.2110
  50   1.0000      -0.703696       -19.1485
  51   1.0000      -0.693785       -18.8789
  52   1.0000      -0.683599       -18.6017
  53   1.0000      -0.665710       -18.1149
  54   1.0000      -0.633211       -17.2306
  55   1.0000      -0.622350       -16.9350
  56   1.0000      -0.605676       -16.4813
  57   1.0000      -0.596951       -16.2439
  58   1.0000      -0.584376       -15.9017
  59   1.0000      -0.575288       -15.6544
  60   1.0000      -0.568811       -15.4781
  61   1.0000      -0.560546       -15.2532
  62   1.0000      -0.551561       -15.0087
  63   1.0000      -0.544485       -14.8162
  64   1.0000      -0.532375       -14.4867
  65   1.0000      -0.528719       -14.3872
  66   1.0000      -0.506738       -13.7890
  67   1.0000      -0.496182       -13.5018
  68   1.0000      -0.473385       -12.8815
  69   1.0000      -0.468792       -12.7565
  70   1.0000      -0.441691       -12.0190
  71   1.0000      -0.435717       -11.8565
  72   1.0000      -0.433391       -11.7932
  73   1.0000      -0.425245       -11.5715
  74   1.0000      -0.423847       -11.5335
  75   1.0000      -0.422647       -11.5008
  76   1.0000      -0.367127        -9.9900
  77   0.0000       0.011540         0.3140
  78   0.0000       0.022214         0.6045
  79   0.0000       0.023041         0.6270
  80   0.0000       0.029532         0.8036
  81   0.0000       0.038724         1.0537

                 SPIN DOWN ORBITALS
  NO   OCC          E(Eh)            E(eV)
   0   1.0000    -261.565255     -7117.5524
   1   1.0000    -104.786616     -2851.3888
   2   1.0000    -104.784055     -2851.3191
   3   1.0000    -104.782057     -2851.2647
   4   1.0000     -32.074562      -872.7932
   5   1.0000     -27.552509      -749.7419
   6   1.0000     -27.552414      -749.7393
   7   1.0000     -27.552248      -749.7348
   8   1.0000     -20.603017      -560.6366
   9   1.0000     -11.417098      -310.6750
  10   1.0000     -11.289847      -307.2123
  11   1.0000     -11.273194      -306.7592
  12   1.0000     -11.269619      -306.6619
  13   1.0000     -11.258392      -306.3564
  14   1.0000     -11.254174      -306.2416
  15   1.0000     -11.241426      -305.8947
  16   1.0000     -11.238757      -305.8221
  17   1.0000     -10.513186      -286.0783
  18   1.0000     -10.510601      -286.0080
  19   1.0000     -10.508572      -285.9528
  20   1.0000      -7.979094      -217.1222
  21   1.0000      -7.978371      -217.1025
  22   1.0000      -7.978321      -217.1012
  23   1.0000      -7.976492      -217.0514
  24   1.0000      -7.975824      -217.0332
  25   1.0000      -7.975725      -217.0305
  26   1.0000      -7.974549      -216.9985
  27   1.0000      -7.973714      -216.9758
  28   1.0000      -7.973622      -216.9733
  29   1.0000      -4.149443      -112.9121
  30   1.0000      -2.671042       -72.6827
  31   1.0000      -2.670942       -72.6800
  32   1.0000      -2.670589       -72.6704
  33   1.0000      -1.440587       -39.2004
  34   1.0000      -1.141578       -31.0639
  35   1.0000      -1.092422       -29.7263
  36   1.0000      -1.045241       -28.4425
  37   1.0000      -1.033223       -28.1154
  38   1.0000      -1.030255       -28.0347
  39   1.0000      -1.027135       -27.9498
  40   1.0000      -1.003596       -27.3092
  41   1.0000      -0.972851       -26.4726
  42   1.0000      -0.904489       -24.6124
  43   1.0000      -0.822559       -22.3830
  44   1.0000      -0.742750       -20.2113
  45   1.0000      -0.706581       -19.2271
  46   1.0000      -0.692388       -18.8408
  47   1.0000      -0.683176       -18.5902
  48   1.0000      -0.665637       -18.1129
  49   1.0000      -0.633208       -17.2305
  50   1.0000      -0.621689       -16.9170
  51   1.0000      -0.605345       -16.4723
  52   1.0000      -0.596713       -16.2374
  53   1.0000      -0.584161       -15.8958
  54   1.0000      -0.574035       -15.6203
  55   1.0000      -0.568803       -15.4779
  56   1.0000      -0.560450       -15.2506
  57   1.0000      -0.551459       -15.0060
  58   1.0000      -0.542728       -14.7684
  59   1.0000      -0.532201       -14.4819
  60   1.0000      -0.517639       -14.0857
  61   1.0000      -0.506779       -13.7902
  62   1.0000      -0.496534       -13.5114
  63   1.0000      -0.479268       -13.0415
  64   1.0000      -0.477206       -12.9854
  65   1.0000      -0.449236       -12.2243
  66   1.0000      -0.445405       -12.1201
  67   1.0000      -0.443169       -12.0592
  68   1.0000      -0.427567       -11.6347
  69   1.0000      -0.423662       -11.5284
  70   1.0000      -0.408117       -11.1054
  71   1.0000      -0.366249        -9.9661
  72   0.0000       0.011531         0.3138
  73   0.0000       0.022200         0.6041
  74   0.0000       0.023001         0.6259
  75   0.0000       0.029385         0.7996
  76   0.0000       0.038299         1.0422

E(0)                                       ...  -3028.450367293
E(0)                                       ...  -3028.450367293
E(CORR)(strong-pairs)                      ...     -2.870588634
E(CORR)(weak-pairs)                        ...     -0.035033167
E(CORR)(corrected)                         ...     -2.905621801
E(TOT)                                     ...  -3031.355989094
E(CCSD(T))                                 ...  -3031.475015684
FINAL SINGLE POINT ENERGY     -3031.475015683648

DIPOLE MOMENT
-------------
                                X             Y             Z
Electronic contribution:    -45.29685      -5.69047      -1.62259
Nuclear contribution   :     49.25723       6.97646       1.47232
                        -----------------------------------------
Total Dipole Moment    :      3.96039       1.28599      -0.15026
                        -----------------------------------------
Magnitude (a.u.)       :      4.16665
Magnitude (Debye)      :     10.59079

Rotational constants in cm-1:     0.019543     0.009974     0.009528
Rotational constants in MHz :   585.886686   299.017370   285.641114

                             ****ORCA TERMINATED NORMALLY****
TOTAL RUN TIME: 0 days 17 hours 49 minutes 6 seconds 501 msec
