                         Program Version 4.1.2  - RELEASE  -
|  1> ! aug-cc-pVTZ aug-cc-pVTZ/C DLPNO-CCSD(T1) TightSCF NormalPNO UNO MiniPrint AutoAux
|  2> %pal nproc 10 end
|  3> %maxcore 20000
|  4> %mdci
|  5>      density none
|  6> end
|  7>
|  8> * xyz 0 6
|  9>  O     -0.30376600     -0.20696800     -0.50273900
| 10>  C     -1.13156000     -1.16037400     -0.27202400
| 11>  C     -2.69715900     -0.23435900      0.87423000
| 12>  C     -3.02625400      0.69750400     -0.07847000
| 13>  C     -4.08629900      0.44522800     -1.10369300
| 14> Fe      1.53179700      0.17927300     -0.09353000
| 15> Cl      1.85221500      2.11770400     -1.05377100
| 16>  C     -2.29100700      1.98933100     -0.17228100
| 17> Cl      2.57030400     -1.54029400     -0.97814600
| 18> Cl      1.77555700      0.25814300      2.09240500
| 19>  H     -3.33211700     -1.11802800      0.92455500
| 20>  H     -2.77689800      2.69675400     -0.84841200
| 21>  H     -2.14393900      2.45966000      0.80454000
| 22>  H     -1.28329500      1.77289600     -0.56668300
| 23>  H     -4.90948500      1.15325600     -0.93376900
| 24>  H     -3.71928000      0.64403700     -2.11850000
| 25>  H     -4.49401800     -0.56689100     -1.05618800
| 26>  C     -1.98204200      0.15624200      2.15020500
| 27>  H     -2.55833300      0.92354600      2.68111100
| 28>  H     -1.87739600     -0.69628500      2.82338600
| 29>  H     -0.98447700      0.56231000      1.96578800
| 30>  C     -0.75366500     -2.18695500      0.77651000
| 31>  H     -1.59682900     -2.81203300      1.07734600
| 32>  H     -0.00151600     -2.82757300      0.29517100
| 33>  H     -0.28207800     -1.73184900      1.64635200
| 34>  C     -1.84161400     -1.71579300     -1.48622000
| 35>  H     -1.12936600     -2.39858900     -1.96780200
| 36>  H     -2.73709300     -2.28527600     -1.22806900
| 37>  H     -2.08017800     -0.93062700     -2.20296300
| 38> *
| 39>
| 40>
| 41>                          ****END OF INPUT****

CARTESIAN COORDINATES (ANGSTROEM)
---------------------------------
  O     -0.303766   -0.206968   -0.502739
  C     -1.131560   -1.160374   -0.272024
  C     -2.697159   -0.234359    0.874230
  C     -3.026254    0.697504   -0.078470
  C     -4.086299    0.445228   -1.103693
  Fe     1.531797    0.179273   -0.093530
  Cl     1.852215    2.117704   -1.053771
  C     -2.291007    1.989331   -0.172281
  Cl     2.570304   -1.540294   -0.978146
  Cl     1.775557    0.258143    2.092405
  H     -3.332117   -1.118028    0.924555
  H     -2.776898    2.696754   -0.848412
  H     -2.143939    2.459660    0.804540
  H     -1.283295    1.772896   -0.566683
  H     -4.909485    1.153256   -0.933769
  H     -3.719280    0.644037   -2.118500
  H     -4.494018   -0.566891   -1.056188
  C     -1.982042    0.156242    2.150205
  H     -2.558333    0.923546    2.681111
  H     -1.877396   -0.696285    2.823386
  H     -0.984477    0.562310    1.965788
  C     -0.753665   -2.186955    0.776510
  H     -1.596829   -2.812033    1.077346
  H     -0.001516   -2.827573    0.295171
  H     -0.282078   -1.731849    1.646352
  C     -1.841614   -1.715793   -1.486220
  H     -1.129366   -2.398589   -1.967802
  H     -2.737093   -2.285276   -1.228069
  H     -2.080178   -0.930627   -2.202963

ORBITAL ENERGIES
----------------
                 SPIN UP ORBITALS
  NO   OCC          E(Eh)            E(eV)
   0   1.0000    -261.561328     -7117.4456
   1   1.0000    -104.782623     -2851.2801
   2   1.0000    -104.780089     -2851.2112
   3   1.0000    -104.778954     -2851.1803
   4   1.0000     -32.229141      -876.9995
   5   1.0000     -27.705431      -753.9031
   6   1.0000     -27.704588      -753.8802
   7   1.0000     -27.704439      -753.8761
   8   1.0000     -20.587146      -560.2047
   9   1.0000     -11.406537      -310.3877
  10   1.0000     -11.317385      -307.9617
  11   1.0000     -11.270290      -306.6802
  12   1.0000     -11.266666      -306.5816
  13   1.0000     -11.265381      -306.5466
  14   1.0000     -11.261904      -306.4520
  15   1.0000     -11.250517      -306.1421
  16   1.0000     -11.243654      -305.9554
  17   1.0000     -10.509280      -285.9720
  18   1.0000     -10.506727      -285.9026
  19   1.0000     -10.505555      -285.8707
  20   1.0000      -7.976127      -217.0415
  21   1.0000      -7.975333      -217.0198
  22   1.0000      -7.975318      -217.0194
  23   1.0000      -7.973596      -216.9726
  24   1.0000      -7.972827      -216.9517
  25   1.0000      -7.972746      -216.9495
  26   1.0000      -7.972366      -216.9391
  27   1.0000      -7.971686      -216.9206
  28   1.0000      -7.971599      -216.9182
  29   1.0000      -4.584322      -124.7458
  30   1.0000      -3.197359       -87.0046
  31   1.0000      -3.195947       -86.9661
  32   1.0000      -3.195698       -86.9594
  33   1.0000      -1.429947       -38.9108
  34   1.0000      -1.158390       -31.5214
  35   1.0000      -1.087572       -29.5943
  36   1.0000      -1.054800       -28.7026
  37   1.0000      -1.049481       -28.5578
  38   1.0000      -1.046932       -28.4885
  39   1.0000      -1.035465       -28.1764
  40   1.0000      -0.995429       -27.0870
  41   1.0000      -0.985709       -26.8225
  42   1.0000      -0.930428       -25.3182
  43   1.0000      -0.914026       -24.8719
  44   1.0000      -0.913533       -24.8585
  45   1.0000      -0.913005       -24.8441
  46   1.0000      -0.903369       -24.5819
  47   1.0000      -0.902997       -24.5718
  48   1.0000      -0.798761       -21.7354
  49   1.0000      -0.754371       -20.5275
  50   1.0000      -0.693321       -18.8662
  51   1.0000      -0.683306       -18.5937
  52   1.0000      -0.682481       -18.5713
  53   1.0000      -0.675221       -18.3737
  54   1.0000      -0.643722       -17.5166
  55   1.0000      -0.623554       -16.9678
  56   1.0000      -0.604158       -16.4400
  57   1.0000      -0.596732       -16.2379
  58   1.0000      -0.581365       -15.8197
  59   1.0000      -0.578076       -15.7302
  60   1.0000      -0.570916       -15.5354
  61   1.0000      -0.562125       -15.2962
  62   1.0000      -0.558796       -15.2056
  63   1.0000      -0.542366       -14.7585
  64   1.0000      -0.537012       -14.6129
  65   1.0000      -0.521051       -14.1785
  66   1.0000      -0.517445       -14.0804
  67   1.0000      -0.487013       -13.2523
  68   1.0000      -0.468166       -12.7395
  69   1.0000      -0.461528       -12.5588
  70   1.0000      -0.435851       -11.8601
  71   1.0000      -0.430995       -11.7280
  72   1.0000      -0.428591       -11.6626
  73   1.0000      -0.420368       -11.4388
  74   1.0000      -0.418760       -11.3950
  75   1.0000      -0.417940       -11.3727
  76   1.0000      -0.377536       -10.2733
  77   0.0000       0.009778         0.2661
  78   0.0000       0.020897         0.5686
  79   0.0000       0.021948         0.5972
  80   0.0000       0.027863         0.7582
  81   0.0000       0.035745         0.9727

                 SPIN DOWN ORBITALS
  NO   OCC          E(Eh)            E(eV)
   0   1.0000    -261.557763     -7117.3486
   1   1.0000    -104.781163     -2851.2404
   2   1.0000    -104.778598     -2851.1706
   3   1.0000    -104.777468     -2851.1398
   4   1.0000     -32.067089      -872.5899
   5   1.0000     -27.545040      -749.5387
   6   1.0000     -27.544974      -749.5368
   7   1.0000     -27.544717      -749.5299
   8   1.0000     -20.583141      -560.0958
   9   1.0000     -11.406426      -310.3846
  10   1.0000     -11.316759      -307.9447
  11   1.0000     -11.270372      -306.6824
  12   1.0000     -11.266564      -306.5788
  13   1.0000     -11.265716      -306.5557
  14   1.0000     -11.261909      -306.4521
  15   1.0000     -11.250596      -306.1443
  16   1.0000     -11.243631      -305.9548
  17   1.0000     -10.507716      -285.9295
  18   1.0000     -10.505132      -285.8592
  19   1.0000     -10.503971      -285.8276
  20   1.0000      -7.973616      -216.9731
  21   1.0000      -7.972950      -216.9550
  22   1.0000      -7.972890      -216.9534
  23   1.0000      -7.971033      -216.9028
  24   1.0000      -7.970375      -216.8849
  25   1.0000      -7.970278      -216.8823
  26   1.0000      -7.969946      -216.8732
  27   1.0000      -7.969163      -216.8519
  28   1.0000      -7.969066      -216.8493
  29   1.0000      -4.142046      -112.7108
  30   1.0000      -2.663692       -72.4828
  31   1.0000      -2.663630       -72.4810
  32   1.0000      -2.663111       -72.4669
  33   1.0000      -1.419726       -38.6327
  34   1.0000      -1.157201       -31.4891
  35   1.0000      -1.084970       -29.5235
  36   1.0000      -1.040123       -28.3032
  37   1.0000      -1.035371       -28.1739
  38   1.0000      -1.027289       -27.9540
  39   1.0000      -1.025332       -27.9007
  40   1.0000      -0.994874       -27.0719
  41   1.0000      -0.985580       -26.8190
  42   1.0000      -0.913958       -24.8701
  43   1.0000      -0.813505       -22.1366
  44   1.0000      -0.754440       -20.5293
  45   1.0000      -0.696304       -18.9474
  46   1.0000      -0.683333       -18.5944
  47   1.0000      -0.681175       -18.5357
  48   1.0000      -0.674900       -18.3650
  49   1.0000      -0.643652       -17.5147
  50   1.0000      -0.622730       -16.9453
  51   1.0000      -0.603803       -16.4303
  52   1.0000      -0.596401       -16.2289
  53   1.0000      -0.581234       -15.8162
  54   1.0000      -0.577997       -15.7281
  55   1.0000      -0.570109       -15.5135
  56   1.0000      -0.562134       -15.2964
  57   1.0000      -0.558750       -15.2044
  58   1.0000      -0.541198       -14.7267
  59   1.0000      -0.535168       -14.5627
  60   1.0000      -0.517418       -14.0797
  61   1.0000      -0.511317       -13.9136
  62   1.0000      -0.485674       -13.2159
  63   1.0000      -0.473090       -12.8734
  64   1.0000      -0.471540       -12.8313
  65   1.0000      -0.443782       -12.0759
  66   1.0000      -0.440398       -11.9838
  67   1.0000      -0.438293       -11.9266
  68   1.0000      -0.424036       -11.5386
  69   1.0000      -0.418535       -11.3889
  70   1.0000      -0.403613       -10.9829
  71   1.0000      -0.375998       -10.2314
  72   0.0000       0.009776         0.2660
  73   0.0000       0.020886         0.5683
  74   0.0000       0.021960         0.5976
  75   0.0000       0.027690         0.7535
  76   0.0000       0.034932         0.9506

E(0)                                       ...  -3028.438066355
E(0)                                       ...  -3028.438066355
E(CORR)(strong-pairs)                      ...     -2.873851664
E(CORR)(weak-pairs)                        ...     -0.035275530
E(CORR)(corrected)                         ...     -2.909127194
E(TOT)                                     ...  -3031.347193548
E(CCSD(T))                                 ...  -3031.467370225
FINAL SINGLE POINT ENERGY     -3031.467370224867

DIPOLE MOMENT
-------------
                                X             Y             Z
Electronic contribution:     44.31019       5.81974      -1.61902
Nuclear contribution   :    -48.79225      -6.78252       1.50238
                        -----------------------------------------
Total Dipole Moment    :     -4.48206      -0.96279      -0.11664
                        -----------------------------------------
Magnitude (a.u.)       :      4.58578
Magnitude (Debye)      :     11.65613

Rotational constants in cm-1:     0.019694     0.010134     0.009691
Rotational constants in MHz :   590.420703   303.824364   290.523487

                             ****ORCA TERMINATED NORMALLY****
TOTAL RUN TIME: 0 days 18 hours 31 minutes 35 seconds 753 msec
