                         Program Version 4.1.2  - RELEASE  -
|  1> ! aug-cc-pVTZ aug-cc-pVTZ/C DLPNO-CCSD(T1) TightSCF NormalPNO UNO MiniPrint AutoAux
|  2> %pal nproc 10 end
|  3> %maxcore 20000
|  4> %mdci
|  5>      density none
|  6> end
|  7>
|  8> * xyz 0 6
|  9>  O     -0.26836100     -0.26455000     -0.81093000
| 10>  C     -1.08490300     -1.21408700     -0.65202100
| 11>  C     -3.04786600     -0.09836900      0.42126800
| 12>  C     -2.51557900      0.99009000     -0.17972200
| 13>  C     -2.85370600      1.35804500     -1.59582300
| 14> Fe      1.45515700      0.12763700      0.02503900
| 15> Cl      2.09224700      1.99681400     -0.89493600
| 16>  C     -1.60727400      1.96356400      0.50708400
| 17> Cl      2.61002600     -1.64965600     -0.53023500
| 18> Cl      1.15326400      0.25812500      2.20011300
| 19>  H     -3.77012900     -0.67996000     -0.15034100
| 20>  H     -2.15169600      2.90292100      0.67643900
| 21>  H     -1.22998200      1.61511600      1.46764200
| 22>  H     -0.75376000      2.21489500     -0.13295300
| 23>  H     -3.26462000      2.37536000     -1.62265500
| 24>  H     -1.94750000      1.37465400     -2.21518900
| 25>  H     -3.58972300      0.68568300     -2.04442300
| 26>  C     -2.99095100     -0.40819800      1.89461000
| 27>  H     -3.81867300      0.09512800      2.41226500
| 28>  H     -3.10536300     -1.47911600      2.08628500
| 29>  H     -2.06245200     -0.07709400      2.36642900
| 30>  C     -0.91849900     -2.17561700      0.48560900
| 31>  H     -1.80289000     -2.79537900      0.63630800
| 32>  H     -0.08080900     -2.82887000      0.19823400
| 33>  H     -0.63378700     -1.67349100      1.40985100
| 34>  C     -1.82980600     -1.69730800     -1.86372800
| 35>  H     -1.16163500     -2.42630500     -2.34544000
| 36>  H     -2.75776000     -2.21068300     -1.60860300
| 37>  H     -2.00905800     -0.89355900     -2.57510000
| 38> *
| 39>
| 40>
| 41>                          ****END OF INPUT****

CARTESIAN COORDINATES (ANGSTROEM)
---------------------------------
  O     -0.268361   -0.264550   -0.810930
  C     -1.084903   -1.214087   -0.652021
  C     -3.047866   -0.098369    0.421268
  C     -2.515579    0.990090   -0.179722
  C     -2.853706    1.358045   -1.595823
  Fe     1.455157    0.127637    0.025039
  Cl     2.092247    1.996814   -0.894936
  C     -1.607274    1.963564    0.507084
  Cl     2.610026   -1.649656   -0.530235
  Cl     1.153264    0.258125    2.200113
  H     -3.770129   -0.679960   -0.150341
  H     -2.151696    2.902921    0.676439
  H     -1.229982    1.615116    1.467642
  H     -0.753760    2.214895   -0.132953
  H     -3.264620    2.375360   -1.622655
  H     -1.947500    1.374654   -2.215189
  H     -3.589723    0.685683   -2.044423
  C     -2.990951   -0.408198    1.894610
  H     -3.818673    0.095128    2.412265
  H     -3.105363   -1.479116    2.086285
  H     -2.062452   -0.077094    2.366429
  C     -0.918499   -2.175617    0.485609
  H     -1.802890   -2.795379    0.636308
  H     -0.080809   -2.828870    0.198234
  H     -0.633787   -1.673491    1.409851
  C     -1.829806   -1.697308   -1.863728
  H     -1.161635   -2.426305   -2.345440
  H     -2.757760   -2.210683   -1.608603
  H     -2.009058   -0.893559   -2.575100

ORBITAL ENERGIES
----------------
                 SPIN UP ORBITALS
  NO   OCC          E(Eh)            E(eV)
   0   1.0000    -261.573279     -7117.7708
   1   1.0000    -104.791862     -2851.5315
   2   1.0000    -104.788796     -2851.4481
   3   1.0000    -104.787270     -2851.4066
   4   1.0000     -32.241008      -877.3224
   5   1.0000     -27.717417      -754.2293
   6   1.0000     -27.716386      -754.2012
   7   1.0000     -27.716215      -754.1966
   8   1.0000     -20.610045      -560.8278
   9   1.0000     -11.420821      -310.7763
  10   1.0000     -11.277207      -306.8684
  11   1.0000     -11.275775      -306.8294
  12   1.0000     -11.269627      -306.6621
  13   1.0000     -11.247634      -306.0637
  14   1.0000     -11.245931      -306.0173
  15   1.0000     -11.241010      -305.8834
  16   1.0000     -11.232712      -305.6576
  17   1.0000     -10.518566      -286.2247
  18   1.0000     -10.515472      -286.1406
  19   1.0000     -10.513897      -286.0977
  20   1.0000      -7.985406      -217.2939
  21   1.0000      -7.984637      -217.2730
  22   1.0000      -7.984589      -217.2717
  23   1.0000      -7.982356      -217.2110
  24   1.0000      -7.981565      -217.1894
  25   1.0000      -7.981504      -217.1878
  26   1.0000      -7.980687      -217.1655
  27   1.0000      -7.980019      -217.1474
  28   1.0000      -7.979970      -217.1460
  29   1.0000      -4.595932      -125.0617
  30   1.0000      -3.209004       -87.3214
  31   1.0000      -3.207406       -87.2780
  32   1.0000      -3.207238       -87.2734
  33   1.0000      -1.456763       -39.6405
  34   1.0000      -1.133297       -30.8386
  35   1.0000      -1.099146       -29.9093
  36   1.0000      -1.064743       -28.9731
  37   1.0000      -1.059066       -28.8186
  38   1.0000      -1.056463       -28.7478
  39   1.0000      -1.024293       -27.8724
  40   1.0000      -1.008478       -27.4421
  41   1.0000      -0.962957       -26.2034
  42   1.0000      -0.940403       -25.5897
  43   1.0000      -0.924906       -25.1680
  44   1.0000      -0.924814       -25.1655
  45   1.0000      -0.914323       -24.8800
  46   1.0000      -0.913737       -24.8640
  47   1.0000      -0.901522       -24.5317
  48   1.0000      -0.810029       -22.0420
  49   1.0000      -0.734412       -19.9844
  50   1.0000      -0.708165       -19.2702
  51   1.0000      -0.698978       -19.0202
  52   1.0000      -0.686603       -18.6834
  53   1.0000      -0.659595       -17.9485
  54   1.0000      -0.625770       -17.0281
  55   1.0000      -0.621583       -16.9141
  56   1.0000      -0.604264       -16.4429
  57   1.0000      -0.599331       -16.3086
  58   1.0000      -0.585130       -15.9222
  59   1.0000      -0.577364       -15.7109
  60   1.0000      -0.561185       -15.2706
  61   1.0000      -0.553940       -15.0735
  62   1.0000      -0.550243       -14.9729
  63   1.0000      -0.543573       -14.7914
  64   1.0000      -0.534593       -14.5470
  65   1.0000      -0.528873       -14.3914
  66   1.0000      -0.500300       -13.6139
  67   1.0000      -0.497629       -13.5412
  68   1.0000      -0.475420       -12.9368
  69   1.0000      -0.473782       -12.8923
  70   1.0000      -0.444671       -12.1001
  71   1.0000      -0.438947       -11.9444
  72   1.0000      -0.437257       -11.8984
  73   1.0000      -0.428550       -11.6614
  74   1.0000      -0.427484       -11.6324
  75   1.0000      -0.426444       -11.6041
  76   1.0000      -0.362346        -9.8599
  77   0.0000       0.012582         0.3424
  78   0.0000       0.023315         0.6344
  79   0.0000       0.023908         0.6506
  80   0.0000       0.030517         0.8304
  81   0.0000       0.039185         1.0663

                 SPIN DOWN ORBITALS
  NO   OCC          E(Eh)            E(eV)
   0   1.0000    -261.569707     -7117.6736
   1   1.0000    -104.790394     -2851.4916
   2   1.0000    -104.787257     -2851.4062
   3   1.0000    -104.785733     -2851.3647
   4   1.0000     -32.079002      -872.9140
   5   1.0000     -27.556911      -749.8617
   6   1.0000     -27.556865      -749.8604
   7   1.0000     -27.556718      -749.8564
   8   1.0000     -20.606387      -560.7283
   9   1.0000     -11.420725      -310.7737
  10   1.0000     -11.277223      -306.8688
  11   1.0000     -11.275666      -306.8265
  12   1.0000     -11.269620      -306.6619
  13   1.0000     -11.247554      -306.0615
  14   1.0000     -11.245927      -306.0172
  15   1.0000     -11.241018      -305.8837
  16   1.0000     -11.232728      -305.6581
  17   1.0000     -10.516996      -286.1820
  18   1.0000     -10.513829      -286.0958
  19   1.0000     -10.512262      -286.0532
  20   1.0000      -7.982907      -217.2259
  21   1.0000      -7.982205      -217.2068
  22   1.0000      -7.982158      -217.2055
  23   1.0000      -7.979705      -217.1388
  24   1.0000      -7.979041      -217.1207
  25   1.0000      -7.978947      -217.1182
  26   1.0000      -7.978251      -217.0993
  27   1.0000      -7.977380      -217.0755
  28   1.0000      -7.977299      -217.0733
  29   1.0000      -4.153784      -113.0302
  30   1.0000      -2.675357       -72.8002
  31   1.0000      -2.675320       -72.7992
  32   1.0000      -2.674809       -72.7853
  33   1.0000      -1.447680       -39.3934
  34   1.0000      -1.132927       -30.8285
  35   1.0000      -1.096737       -29.8437
  36   1.0000      -1.049367       -28.5547
  37   1.0000      -1.036910       -28.2157
  38   1.0000      -1.034060       -28.1382
  39   1.0000      -1.023772       -27.8583
  40   1.0000      -1.007767       -27.4227
  41   1.0000      -0.962825       -26.1998
  42   1.0000      -0.901780       -24.5387
  43   1.0000      -0.822854       -22.3910
  44   1.0000      -0.734483       -19.9863
  45   1.0000      -0.710545       -19.3349
  46   1.0000      -0.698127       -18.9970
  47   1.0000      -0.685791       -18.6613
  48   1.0000      -0.659506       -17.9461
  49   1.0000      -0.625690       -17.0259
  50   1.0000      -0.621058       -16.8999
  51   1.0000      -0.603942       -16.4341
  52   1.0000      -0.599268       -16.3069
  53   1.0000      -0.584874       -15.9152
  54   1.0000      -0.576428       -15.6854
  55   1.0000      -0.560355       -15.2480
  56   1.0000      -0.553892       -15.0722
  57   1.0000      -0.547960       -14.9107
  58   1.0000      -0.543543       -14.7905
  59   1.0000      -0.530832       -14.4447
  60   1.0000      -0.521036       -14.1781
  61   1.0000      -0.501338       -13.6421
  62   1.0000      -0.497538       -13.5387
  63   1.0000      -0.483189       -13.1483
  64   1.0000      -0.481071       -13.0906
  65   1.0000      -0.452045       -12.3008
  66   1.0000      -0.449150       -12.2220
  67   1.0000      -0.446381       -12.1467
  68   1.0000      -0.430151       -11.7050
  69   1.0000      -0.427615       -11.6360
  70   1.0000      -0.411944       -11.2096
  71   1.0000      -0.361488        -9.8366
  72   0.0000       0.012567         0.3420
  73   0.0000       0.023290         0.6338
  74   0.0000       0.023881         0.6498
  75   0.0000       0.030453         0.8287
  76   0.0000       0.039058         1.0628

E(0)                                       ...  -3028.454420167
E(0)                                       ...  -3028.454420167
E(CORR)(strong-pairs)                      ...     -2.869977914
E(CORR)(weak-pairs)                        ...     -0.036047496
E(CORR)(corrected)                         ...     -2.906025410
E(TOT)                                     ...  -3031.360445577
E(CCSD(T))                                 ...  -3031.478999581
FINAL SINGLE POINT ENERGY     -3031.478999581264

DIPOLE MOMENT
-------------
                                X             Y             Z
Electronic contribution:     42.82768       3.79233       1.92449
Nuclear contribution   :    -46.33496      -4.97101      -2.56156
                        -----------------------------------------
Total Dipole Moment    :     -3.50727      -1.17868      -0.63706
                        -----------------------------------------
Magnitude (a.u.)       :      3.75448
Magnitude (Debye)      :      9.54312

Rotational constants in cm-1:     0.018984     0.010982     0.010349
Rotational constants in MHz :   569.113713   329.225776   310.267292

                             ****ORCA TERMINATED NORMALLY****
TOTAL RUN TIME: 0 days 17 hours 51 minutes 19 seconds 629 msec
