                         Program Version 4.1.2  - RELEASE  -
|  1> ! aug-cc-pVTZ aug-cc-pVTZ/C DLPNO-CCSD(T1) TightSCF NormalPNO UNO MiniPrint AutoAux
|  2> %pal nproc 10 end
|  3> %maxcore 20000
|  4> %mdci
|  5>      density none
|  6> end
|  7>
|  8> * xyz 0 6
|  9>  O      0.19990200      0.33587300     -0.82034200
| 10>  C      1.05768000      1.24839700     -0.62886500
| 11>  C      2.86802800      0.29213800      0.62341900
| 12>  C      2.78401500     -0.87335100     -0.07027600
| 13>  C      3.51760300     -1.08008900     -1.36314300
| 14> Fe     -1.49973100     -0.17219000     -0.02482500
| 15> Cl     -2.00822500     -2.04016300     -1.02774800
| 16>  C      1.89564700     -2.00451600      0.34381200
| 17> Cl     -2.75806400      1.55548400     -0.49684100
| 18> Cl     -1.18519200     -0.41492300      2.13787100
| 19>  H      3.57182200      1.03475700      0.24933300
| 20>  H      2.43030300     -2.96029800      0.28776600
| 21>  H      1.47898600     -1.89098700      1.34452100
| 22>  H      1.05582000     -2.07691000     -0.36352100
| 23>  H      4.19569900     -1.93802600     -1.26539400
| 24>  H      2.82233700     -1.33050700     -2.17586000
| 25>  H      4.11329400     -0.21133900     -1.65398300
| 26>  C      2.47188600      0.45111900      2.07372600
| 27>  H      3.18755500     -0.08708500      2.70845200
| 28>  H      2.50077100      1.49861900      2.38206800
| 29>  H      1.47712600      0.06072100      2.29711900
| 30>  C      0.79553100      2.29136500      0.42174000
| 31>  H      1.67441400      2.89914600      0.63984700
| 32>  H      0.01908700      2.94141800     -0.00762500
| 33>  H      0.38676900      1.86112400      1.33562700
| 34>  C      1.86879800      1.66212300     -1.82843700
| 35>  H      1.23234500      2.36039000     -2.39030500
| 36>  H      2.78744400      2.18532000     -1.56017700
| 37>  H      2.08005400      0.81373300     -2.47734200
| 38> *
| 39>
| 40>
| 41>                          ****END OF INPUT****

CARTESIAN COORDINATES (ANGSTROEM)
---------------------------------
  O      0.199902    0.335873   -0.820342
  C      1.057680    1.248397   -0.628865
  C      2.868028    0.292138    0.623419
  C      2.784015   -0.873351   -0.070276
  C      3.517603   -1.080089   -1.363143
  Fe    -1.499731   -0.172190   -0.024825
  Cl    -2.008225   -2.040163   -1.027748
  C      1.895647   -2.004516    0.343812
  Cl    -2.758064    1.555484   -0.496841
  Cl    -1.185192   -0.414923    2.137871
  H      3.571822    1.034757    0.249333
  H      2.430303   -2.960298    0.287766
  H      1.478986   -1.890987    1.344521
  H      1.055820   -2.076910   -0.363521
  H      4.195699   -1.938026   -1.265394
  H      2.822337   -1.330507   -2.175860
  H      4.113294   -0.211339   -1.653983
  C      2.471886    0.451119    2.073726
  H      3.187555   -0.087085    2.708452
  H      2.500771    1.498619    2.382068
  H      1.477126    0.060721    2.297119
  C      0.795531    2.291365    0.421740
  H      1.674414    2.899146    0.639847
  H      0.019087    2.941418   -0.007625
  H      0.386769    1.861124    1.335627
  C      1.868798    1.662123   -1.828437
  H      1.232345    2.360390   -2.390305
  H      2.787444    2.185320   -1.560177
  H      2.080054    0.813733   -2.477342

ORBITAL ENERGIES
----------------
                 SPIN UP ORBITALS
  NO   OCC          E(Eh)            E(eV)
   0   1.0000    -261.569718     -7117.6739
   1   1.0000    -104.790293     -2851.4888
   2   1.0000    -104.786548     -2851.3869
   3   1.0000    -104.784152     -2851.3217
   4   1.0000     -32.237498      -877.2269
   5   1.0000     -27.713883      -754.1331
   6   1.0000     -27.712903      -754.1064
   7   1.0000     -27.712697      -754.1008
   8   1.0000     -20.608276      -560.7797
   9   1.0000     -11.418320      -310.7083
  10   1.0000     -11.286167      -307.1122
  11   1.0000     -11.274040      -306.7822
  12   1.0000     -11.269836      -306.6678
  13   1.0000     -11.253483      -306.2229
  14   1.0000     -11.252480      -306.1956
  15   1.0000     -11.237937      -305.7998
  16   1.0000     -11.237932      -305.7997
  17   1.0000     -10.517008      -286.1823
  18   1.0000     -10.513222      -286.0793
  19   1.0000     -10.510777      -286.0128
  20   1.0000      -7.983849      -217.2516
  21   1.0000      -7.983072      -217.2304
  22   1.0000      -7.983039      -217.2295
  23   1.0000      -7.980080      -217.1490
  24   1.0000      -7.979325      -217.1285
  25   1.0000      -7.979272      -217.1270
  26   1.0000      -7.977584      -217.0811
  27   1.0000      -7.976907      -217.0627
  28   1.0000      -7.976840      -217.0609
  29   1.0000      -4.592539      -124.9693
  30   1.0000      -3.205662       -87.2305
  31   1.0000      -3.204036       -87.1862
  32   1.0000      -3.203838       -87.1809
  33   1.0000      -1.450728       -39.4763
  34   1.0000      -1.138233       -30.9729
  35   1.0000      -1.095490       -29.8098
  36   1.0000      -1.062695       -28.9174
  37   1.0000      -1.056756       -28.7558
  38   1.0000      -1.053320       -28.6623
  39   1.0000      -1.025725       -27.9114
  40   1.0000      -1.005987       -27.3743
  41   1.0000      -0.968427       -26.3522
  42   1.0000      -0.938215       -25.5301
  43   1.0000      -0.921624       -25.0787
  44   1.0000      -0.921458       -25.0742
  45   1.0000      -0.911252       -24.7964
  46   1.0000      -0.910453       -24.7747
  47   1.0000      -0.902905       -24.5693
  48   1.0000      -0.808215       -21.9927
  49   1.0000      -0.740066       -20.1382
  50   1.0000      -0.704190       -19.1620
  51   1.0000      -0.694559       -18.8999
  52   1.0000      -0.682179       -18.5630
  53   1.0000      -0.662651       -18.0317
  54   1.0000      -0.629181       -17.1209
  55   1.0000      -0.621482       -16.9114
  56   1.0000      -0.606027       -16.4908
  57   1.0000      -0.597544       -16.2600
  58   1.0000      -0.583946       -15.8900
  59   1.0000      -0.576000       -15.6737
  60   1.0000      -0.561389       -15.2762
  61   1.0000      -0.560067       -15.2402
  62   1.0000      -0.548281       -14.9195
  63   1.0000      -0.545100       -14.8329
  64   1.0000      -0.534341       -14.5402
  65   1.0000      -0.529752       -14.4153
  66   1.0000      -0.502971       -13.6865
  67   1.0000      -0.496920       -13.5219
  68   1.0000      -0.473711       -12.8903
  69   1.0000      -0.471150       -12.8206
  70   1.0000      -0.442599       -12.0437
  71   1.0000      -0.436991       -11.8911
  72   1.0000      -0.434762       -11.8305
  73   1.0000      -0.426564       -11.6074
  74   1.0000      -0.425150       -11.5689
  75   1.0000      -0.423737       -11.5305
  76   1.0000      -0.366014        -9.9597
  77   0.0000       0.011979         0.3260
  78   0.0000       0.022405         0.6097
  79   0.0000       0.023577         0.6416
  80   0.0000       0.029870         0.8128
  81   0.0000       0.038653         1.0518

                 SPIN DOWN ORBITALS
  NO   OCC          E(Eh)            E(eV)
   0   1.0000    -261.566142     -7117.5766
   1   1.0000    -104.788823     -2851.4488
   2   1.0000    -104.785012     -2851.3451
   3   1.0000    -104.782617     -2851.2800
   4   1.0000     -32.075472      -872.8180
   5   1.0000     -27.553388      -749.7658
   6   1.0000     -27.553329      -749.7642
   7   1.0000     -27.553178      -749.7601
   8   1.0000     -20.604487      -560.6766
   9   1.0000     -11.418214      -310.7054
  10   1.0000     -11.286069      -307.1095
  11   1.0000     -11.273931      -306.7793
  12   1.0000     -11.269821      -306.6674
  13   1.0000     -11.253497      -306.2232
  14   1.0000     -11.252521      -306.1967
  15   1.0000     -11.237958      -305.8004
  16   1.0000     -11.237928      -305.7996
  17   1.0000     -10.515436      -286.1396
  18   1.0000     -10.511582      -286.0347
  19   1.0000     -10.509143      -285.9683
  20   1.0000      -7.981339      -217.1833
  21   1.0000      -7.980649      -217.1645
  22   1.0000      -7.980603      -217.1633
  23   1.0000      -7.977489      -217.0785
  24   1.0000      -7.976776      -217.0591
  25   1.0000      -7.976690      -217.0568
  26   1.0000      -7.975119      -217.0140
  27   1.0000      -7.974283      -216.9913
  28   1.0000      -7.974193      -216.9888
  29   1.0000      -4.150360      -112.9370
  30   1.0000      -2.671976       -72.7082
  31   1.0000      -2.671907       -72.7063
  32   1.0000      -2.671417       -72.6930
  33   1.0000      -1.441301       -39.2198
  34   1.0000      -1.137836       -30.9621
  35   1.0000      -1.092830       -29.7374
  36   1.0000      -1.047188       -28.4954
  37   1.0000      -1.034823       -28.1590
  38   1.0000      -1.031036       -28.0559
  39   1.0000      -1.025128       -27.8952
  40   1.0000      -1.005356       -27.3571
  41   1.0000      -0.968362       -26.3505
  42   1.0000      -0.903149       -24.5759
  43   1.0000      -0.822579       -22.3835
  44   1.0000      -0.740159       -20.1408
  45   1.0000      -0.706665       -19.2293
  46   1.0000      -0.693527       -18.8718
  47   1.0000      -0.681558       -18.5461
  48   1.0000      -0.662565       -18.0293
  49   1.0000      -0.629155       -17.1202
  50   1.0000      -0.621016       -16.8987
  51   1.0000      -0.605626       -16.4799
  52   1.0000      -0.597394       -16.2559
  53   1.0000      -0.583617       -15.8810
  54   1.0000      -0.574321       -15.6281
  55   1.0000      -0.561182       -15.2705
  56   1.0000      -0.559905       -15.2358
  57   1.0000      -0.548122       -14.9152
  58   1.0000      -0.543502       -14.7894
  59   1.0000      -0.531878       -14.4731
  60   1.0000      -0.520104       -14.1527
  61   1.0000      -0.502934       -13.6855
  62   1.0000      -0.498232       -13.5576
  63   1.0000      -0.481137       -13.0924
  64   1.0000      -0.478031       -13.0079
  65   1.0000      -0.450826       -12.2676
  66   1.0000      -0.446788       -12.1577
  67   1.0000      -0.444192       -12.0871
  68   1.0000      -0.428529       -11.6609
  69   1.0000      -0.424464       -11.5503
  70   1.0000      -0.409761       -11.1502
  71   1.0000      -0.365034        -9.9331
  72   0.0000       0.011963         0.3255
  73   0.0000       0.022379         0.6090
  74   0.0000       0.023542         0.6406
  75   0.0000       0.029705         0.8083
  76   0.0000       0.038346         1.0435

E(0)                                       ...  -3028.452990586
E(0)                                       ...  -3028.452990586
E(CORR)(strong-pairs)                      ...     -2.869264556
E(CORR)(weak-pairs)                        ...     -0.036353632
E(CORR)(corrected)                         ...     -2.905618188
E(TOT)                                     ...  -3031.358608774
E(CCSD(T))                                 ...  -3031.477304679
FINAL SINGLE POINT ENERGY     -3031.477304678801

DIPOLE MOMENT
-------------
                                X             Y             Z
Electronic contribution:    -43.73764      -5.59784       0.84392
Nuclear contribution   :     47.47261       6.85185      -1.39213
                        -----------------------------------------
Total Dipole Moment    :      3.73497       1.25401      -0.54821
                        -----------------------------------------
Magnitude (a.u.)       :      3.97782
Magnitude (Debye)      :     10.11081

Rotational constants in cm-1:     0.019102     0.010580     0.009968
Rotational constants in MHz :   572.665670   317.168308   298.830246

                             ****ORCA TERMINATED NORMALLY****
TOTAL RUN TIME: 0 days 14 hours 59 minutes 8 seconds 309 msec
