                         Program Version 4.1.2  - RELEASE  -
|  1> ! aug-cc-pVTZ aug-cc-pVTZ/C DLPNO-CCSD(T1) TightSCF NormalPNO UNO MiniPrint AutoAux
|  2> %pal nproc 10 end
|  3> %maxcore 20000
|  4> %mdci
|  5>      density none
|  6> end
|  7>
|  8> * xyz 0 6
|  9>  O     -0.30028100     -0.22367100     -0.52979700
| 10>  C     -1.11818400     -1.18031800     -0.30279300
| 11>  C     -2.72420700     -0.23597200      0.86721000
| 12>  C     -3.00810600      0.71149200     -0.07907400
| 13>  C     -4.04259800      0.49190900     -1.13897100
| 14> Fe      1.52962000      0.18143300     -0.08871000
| 15> Cl      1.85500700      2.11212800     -1.05935300
| 16>  C     -2.25610700      1.99801000     -0.13419600
| 17> Cl      2.58908600     -1.53953700     -0.94289600
| 18> Cl      1.73672300      0.27752500      2.09905700
| 19>  H     -3.36357600     -1.11769100      0.88157700
| 20>  H     -2.74932000      2.73752200     -0.77005100
| 21>  H     -2.08329900      2.42805800      0.85631700
| 22>  H     -1.26175800      1.79129500     -0.56417400
| 23>  H     -4.86069700      1.20875500     -0.98323700
| 24>  H     -3.64313100      0.69927800     -2.13985700
| 25>  H     -4.46626300     -0.51471700     -1.11922800
| 26>  C     -2.01923600      0.10929800      2.16038600
| 27>  H     -2.59263700      0.86812700      2.70679200
| 28>  H     -1.93231500     -0.76269400      2.81106500
| 29>  H     -1.01515600      0.50988100      2.00031100
| 30>  C     -0.75354700     -2.19845700      0.75482100
| 31>  H     -1.60142700     -2.81800300      1.05329800
| 32>  H     -0.00046200     -2.84580400      0.28341800
| 33>  H     -0.28622900     -1.73907300      1.62468300
| 34>  C     -1.84655500     -1.72632900     -1.50795100
| 35>  H     -1.14674300     -2.41848100     -1.99517200
| 36>  H     -2.74556700     -2.28544800     -1.24061900
| 37>  H     -2.08192800     -0.93866800     -2.22259600
| 38> *
| 39>
| 40>
| 41>                          ****END OF INPUT****

CARTESIAN COORDINATES (ANGSTROEM)
---------------------------------
  O     -0.300281   -0.223671   -0.529797
  C     -1.118184   -1.180318   -0.302793
  C     -2.724207   -0.235972    0.867210
  C     -3.008106    0.711492   -0.079074
  C     -4.042598    0.491909   -1.138971
  Fe     1.529620    0.181433   -0.088710
  Cl     1.855007    2.112128   -1.059353
  C     -2.256107    1.998010   -0.134196
  Cl     2.589086   -1.539537   -0.942896
  Cl     1.736723    0.277525    2.099057
  H     -3.363576   -1.117691    0.881577
  H     -2.749320    2.737522   -0.770051
  H     -2.083299    2.428058    0.856317
  H     -1.261758    1.791295   -0.564174
  H     -4.860697    1.208755   -0.983237
  H     -3.643131    0.699278   -2.139857
  H     -4.466263   -0.514717   -1.119228
  C     -2.019236    0.109298    2.160386
  H     -2.592637    0.868127    2.706792
  H     -1.932315   -0.762694    2.811065
  H     -1.015156    0.509881    2.000311
  C     -0.753547   -2.198457    0.754821
  H     -1.601427   -2.818003    1.053298
  H     -0.000462   -2.845804    0.283418
  H     -0.286229   -1.739073    1.624683
  C     -1.846555   -1.726329   -1.507951
  H     -1.146743   -2.418481   -1.995172
  H     -2.745567   -2.285448   -1.240619
  H     -2.081928   -0.938668   -2.222596

ORBITAL ENERGIES
----------------
                 SPIN UP ORBITALS
  NO   OCC          E(Eh)            E(eV)
   0   1.0000    -261.563536     -7117.5057
   1   1.0000    -104.784355     -2851.3273
   2   1.0000    -104.781792     -2851.2575
   3   1.0000    -104.780341     -2851.2180
   4   1.0000     -32.231336      -877.0592
   5   1.0000     -27.707659      -753.9637
   6   1.0000     -27.706766      -753.9394
   7   1.0000     -27.706613      -753.9353
   8   1.0000     -20.592379      -560.3471
   9   1.0000     -11.410058      -310.4835
  10   1.0000     -11.309223      -307.7396
  11   1.0000     -11.268602      -306.6342
  12   1.0000     -11.266522      -306.5777
  13   1.0000     -11.264168      -306.5136
  14   1.0000     -11.262185      -306.4596
  15   1.0000     -11.247339      -306.0557
  16   1.0000     -11.242341      -305.9197
  17   1.0000     -10.511013      -286.0192
  18   1.0000     -10.508434      -285.9490
  19   1.0000     -10.506946      -285.9085
  20   1.0000      -7.977858      -217.0885
  21   1.0000      -7.977065      -217.0670
  22   1.0000      -7.977056      -217.0667
  23   1.0000      -7.975303      -217.0190
  24   1.0000      -7.974535      -216.9981
  25   1.0000      -7.974456      -216.9960
  26   1.0000      -7.973756      -216.9769
  27   1.0000      -7.973079      -216.9585
  28   1.0000      -7.972993      -216.9562
  29   1.0000      -4.586486      -124.8046
  30   1.0000      -3.199564       -87.0646
  31   1.0000      -3.198064       -87.0237
  32   1.0000      -3.197840       -87.0176
  33   1.0000      -1.435629       -39.0655
  34   1.0000      -1.153661       -31.3927
  35   1.0000      -1.089770       -29.6541
  36   1.0000      -1.056620       -28.7521
  37   1.0000      -1.051265       -28.6064
  38   1.0000      -1.048597       -28.5338
  39   1.0000      -1.033243       -28.1160
  40   1.0000      -0.998041       -27.1581
  41   1.0000      -0.981667       -26.7125
  42   1.0000      -0.932580       -25.3768
  43   1.0000      -0.915687       -24.9171
  44   1.0000      -0.915661       -24.9164
  45   1.0000      -0.911080       -24.7917
  46   1.0000      -0.905344       -24.6357
  47   1.0000      -0.904978       -24.6257
  48   1.0000      -0.801221       -21.8023
  49   1.0000      -0.751076       -20.4378
  50   1.0000      -0.695837       -18.9347
  51   1.0000      -0.685689       -18.6586
  52   1.0000      -0.683087       -18.5878
  53   1.0000      -0.673085       -18.3156
  54   1.0000      -0.640612       -17.4319
  55   1.0000      -0.623031       -16.9535
  56   1.0000      -0.604456       -16.4481
  57   1.0000      -0.596808       -16.2400
  58   1.0000      -0.582021       -15.8376
  59   1.0000      -0.575672       -15.6648
  60   1.0000      -0.571750       -15.5581
  61   1.0000      -0.560959       -15.2645
  62   1.0000      -0.557375       -15.1669
  63   1.0000      -0.541881       -14.7453
  64   1.0000      -0.537040       -14.6136
  65   1.0000      -0.523411       -14.2427
  66   1.0000      -0.514387       -13.9972
  67   1.0000      -0.489678       -13.3248
  68   1.0000      -0.469769       -12.7831
  69   1.0000      -0.463778       -12.6200
  70   1.0000      -0.437559       -11.9066
  71   1.0000      -0.432484       -11.7685
  72   1.0000      -0.430083       -11.7031
  73   1.0000      -0.421871       -11.4797
  74   1.0000      -0.420363       -11.4386
  75   1.0000      -0.419388       -11.4121
  76   1.0000      -0.374349       -10.1865
  77   0.0000       0.010455         0.2845
  78   0.0000       0.021296         0.5795
  79   0.0000       0.022390         0.6093
  80   0.0000       0.028557         0.7771
  81   0.0000       0.037079         1.0090

                 SPIN DOWN ORBITALS
  NO   OCC          E(Eh)            E(eV)
   0   1.0000    -261.559969     -7117.4086
   1   1.0000    -104.782886     -2851.2873
   2   1.0000    -104.780293     -2851.2167
   3   1.0000    -104.778842     -2851.1772
   4   1.0000     -32.069294      -872.6498
   5   1.0000     -27.547238      -749.5985
   6   1.0000     -27.547172      -749.5966
   7   1.0000     -27.546938      -749.5903
   8   1.0000     -20.588457      -560.2404
   9   1.0000     -11.409919      -310.4797
  10   1.0000     -11.308692      -307.7251
  11   1.0000     -11.268499      -306.6315
  12   1.0000     -11.266591      -306.5795
  13   1.0000     -11.264170      -306.5136
  14   1.0000     -11.262487      -306.4679
  15   1.0000     -11.247408      -306.0575
  16   1.0000     -11.242319      -305.9191
  17   1.0000     -10.509442      -285.9765
  18   1.0000     -10.506831      -285.9054
  19   1.0000     -10.505349      -285.8651
  20   1.0000      -7.975343      -217.0201
  21   1.0000      -7.974665      -217.0017
  22   1.0000      -7.974606      -217.0001
  23   1.0000      -7.972731      -216.9490
  24   1.0000      -7.972067      -216.9310
  25   1.0000      -7.971970      -216.9283
  26   1.0000      -7.971323      -216.9107
  27   1.0000      -7.970528      -216.8891
  28   1.0000      -7.970432      -216.8865
  29   1.0000      -4.144232      -112.7703
  30   1.0000      -2.665863       -72.5418
  31   1.0000      -2.665798       -72.5401
  32   1.0000      -2.665316       -72.5269
  33   1.0000      -1.425643       -38.7937
  34   1.0000      -1.152671       -31.3658
  35   1.0000      -1.087142       -29.5826
  36   1.0000      -1.041595       -28.3433
  37   1.0000      -1.033537       -28.1240
  38   1.0000      -1.028785       -27.9946
  39   1.0000      -1.026804       -27.9408
  40   1.0000      -0.997451       -27.1420
  41   1.0000      -0.981568       -26.7098
  42   1.0000      -0.911465       -24.8022
  43   1.0000      -0.815953       -22.2032
  44   1.0000      -0.751112       -20.4388
  45   1.0000      -0.698967       -19.0199
  46   1.0000      -0.684405       -18.6236
  47   1.0000      -0.682691       -18.5770
  48   1.0000      -0.672906       -18.3107
  49   1.0000      -0.640568       -17.4307
  50   1.0000      -0.622252       -16.9323
  51   1.0000      -0.604085       -16.4380
  52   1.0000      -0.596531       -16.2324
  53   1.0000      -0.581878       -15.8337
  54   1.0000      -0.575420       -15.6580
  55   1.0000      -0.570966       -15.5368
  56   1.0000      -0.560971       -15.2648
  57   1.0000      -0.557328       -15.1657
  58   1.0000      -0.540083       -14.6964
  59   1.0000      -0.536008       -14.5855
  60   1.0000      -0.514385       -13.9971
  61   1.0000      -0.513241       -13.9660
  62   1.0000      -0.488845       -13.3022
  63   1.0000      -0.474988       -12.9251
  64   1.0000      -0.473321       -12.8797
  65   1.0000      -0.445478       -12.1221
  66   1.0000      -0.441941       -12.0258
  67   1.0000      -0.439805       -11.9677
  68   1.0000      -0.425134       -11.5685
  69   1.0000      -0.420092       -11.4313
  70   1.0000      -0.405046       -11.0219
  71   1.0000      -0.372975       -10.1492
  72   0.0000       0.010450         0.2844
  73   0.0000       0.021284         0.5792
  74   0.0000       0.022384         0.6091
  75   0.0000       0.028388         0.7725
  76   0.0000       0.036281         0.9873

E(0)                                       ...  -3028.440865580
E(0)                                       ...  -3028.440865580
E(CORR)(strong-pairs)                      ...     -2.873281834
E(CORR)(weak-pairs)                        ...     -0.035122309
E(CORR)(corrected)                         ...     -2.908404143
E(TOT)                                     ...  -3031.349269723
E(CCSD(T))                                 ...  -3031.469130776
FINAL SINGLE POINT ENERGY     -3031.469130776149

DIPOLE MOMENT
-------------
                                X             Y             Z
Electronic contribution:     44.37609       5.79968      -1.47706
Nuclear contribution   :    -48.68735      -6.85222       1.32493
                        -----------------------------------------
Total Dipole Moment    :     -4.31126      -1.05254      -0.15213
                        -----------------------------------------
Magnitude (a.u.)       :      4.44049
Magnitude (Debye)      :     11.28684

Rotational constants in cm-1:     0.019593     0.010164     0.009712
Rotational constants in MHz :   587.371039   304.698824   291.147896

                             ****ORCA TERMINATED NORMALLY****
TOTAL RUN TIME: 0 days 18 hours 17 minutes 9 seconds 69 msec
