                         Program Version 4.1.2  - RELEASE  -
|  1> ! aug-cc-pVTZ aug-cc-pVTZ/C DLPNO-CCSD(T1) TightSCF NormalPNO UNO MiniPrint AutoAux
|  2> %pal nproc 10 end
|  3> %maxcore 20000
|  4> %mdci
|  5>      density none
|  6> end
|  7>
|  8> * xyz 0 6
|  9>  O      0.16813200      0.40714500     -0.88910500
| 10>  C      0.95471500      1.36066900     -0.68395100
| 11>  C      3.07489500      0.13560800      0.56767500
| 12>  C      2.69858900     -0.92816300     -0.17059700
| 13>  C      3.20793700     -1.13136500     -1.57204800
| 14> Fe     -1.49265800     -0.17195100      0.00960500
| 15> Cl     -2.05426500     -2.00009700     -1.02318700
| 16>  C      1.77401300     -2.00723800      0.31324900
| 17> Cl     -2.76586100      1.56950000     -0.35292000
| 18> Cl     -1.05749200     -0.44587700      2.14261200
| 19>  H      3.79186900      0.82398600      0.11868400
| 20>  H      2.29527300     -2.97381500      0.31618800
| 21>  H      1.37862100     -1.83079800      1.31321800
| 22>  H      0.92635200     -2.12040800     -0.37541000
| 23>  H      3.75285600     -2.08202600     -1.64003300
| 24>  H      2.37518600     -1.20384800     -2.28463400
| 25>  H      3.88390500     -0.33336300     -1.89250100
| 26>  C      2.80963700      0.35008500      2.03451400
| 27>  H      3.60781200     -0.11020900      2.63287300
| 28>  H      2.80469200      1.41444500      2.28948000
| 29>  H      1.86145800     -0.07992200      2.36609800
| 30>  C      0.78769600      2.25331700      0.50484200
| 31>  H      1.67460400      2.85933900      0.69237200
| 32>  H     -0.05159300      2.92358900      0.26552100
| 33>  H      0.50751700      1.69120900      1.39615300
| 34>  C      1.79922100      1.83385700     -1.82733300
| 35>  H      1.22863300      2.63798800     -2.31538400
| 36>  H      2.74748300      2.25612800     -1.49235900
| 37>  H      1.95868500      1.04068700     -2.55584900
| 38> *
| 39>
| 40>
| 41>                          ****END OF INPUT****

CARTESIAN COORDINATES (ANGSTROEM)
---------------------------------
  O      0.168132    0.407145   -0.889105
  C      0.954715    1.360669   -0.683951
  C      3.074895    0.135608    0.567675
  C      2.698589   -0.928163   -0.170597
  C      3.207937   -1.131365   -1.572048
  Fe    -1.492658   -0.171951    0.009605
  Cl    -2.054265   -2.000097   -1.023187
  C      1.774013   -2.007238    0.313249
  Cl    -2.765861    1.569500   -0.352920
  Cl    -1.057492   -0.445877    2.142612
  H      3.791869    0.823986    0.118684
  H      2.295273   -2.973815    0.316188
  H      1.378621   -1.830798    1.313218
  H      0.926352   -2.120408   -0.375410
  H      3.752856   -2.082026   -1.640033
  H      2.375186   -1.203848   -2.284634
  H      3.883905   -0.333363   -1.892501
  C      2.809637    0.350085    2.034514
  H      3.607812   -0.110209    2.632873
  H      2.804692    1.414445    2.289480
  H      1.861458   -0.079922    2.366098
  C      0.787696    2.253317    0.504842
  H      1.674604    2.859339    0.692372
  H     -0.051593    2.923589    0.265521
  H      0.507517    1.691209    1.396153
  C      1.799221    1.833857   -1.827333
  H      1.228633    2.637988   -2.315384
  H      2.747483    2.256128   -1.492359
  H      1.958685    1.040687   -2.555849

ORBITAL ENERGIES
----------------
                 SPIN UP ORBITALS
  NO   OCC          E(Eh)            E(eV)
   0   1.0000    -261.576921     -7117.8699
   1   1.0000    -104.794869     -2851.6134
   2   1.0000    -104.791570     -2851.5236
   3   1.0000    -104.789417     -2851.4650
   4   1.0000     -32.244617      -877.4206
   5   1.0000     -27.721127      -754.3302
   6   1.0000     -27.719942      -754.2980
   7   1.0000     -27.719737      -754.2924
   8   1.0000     -20.624268      -561.2149
   9   1.0000     -11.422026      -310.8091
  10   1.0000     -11.278588      -306.9060
  11   1.0000     -11.273232      -306.7602
  12   1.0000     -11.263628      -306.4989
  13   1.0000     -11.242429      -305.9220
  14   1.0000     -11.241735      -305.9032
  15   1.0000     -11.235098      -305.7225
  16   1.0000     -11.228031      -305.5303
  17   1.0000     -10.521600      -286.3073
  18   1.0000     -10.518265      -286.2165
  19   1.0000     -10.516063      -286.1566
  20   1.0000      -7.988427      -217.3761
  21   1.0000      -7.987683      -217.3559
  22   1.0000      -7.987630      -217.3545
  23   1.0000      -7.985141      -217.2867
  24   1.0000      -7.984363      -217.2656
  25   1.0000      -7.984311      -217.2641
  26   1.0000      -7.982850      -217.2244
  27   1.0000      -7.982196      -217.2066
  28   1.0000      -7.982148      -217.2053
  29   1.0000      -4.599445      -125.1573
  30   1.0000      -3.212614       -87.4197
  31   1.0000      -3.210824       -87.3710
  32   1.0000      -3.210662       -87.3666
  33   1.0000      -1.467420       -39.9305
  34   1.0000      -1.123393       -30.5691
  35   1.0000      -1.101790       -29.9812
  36   1.0000      -1.068089       -29.0642
  37   1.0000      -1.062212       -28.9042
  38   1.0000      -1.059157       -28.8211
  39   1.0000      -1.021392       -27.7935
  40   1.0000      -1.009242       -27.4629
  41   1.0000      -0.956518       -26.0282
  42   1.0000      -0.943761       -25.6810
  43   1.0000      -0.928337       -25.2613
  44   1.0000      -0.928185       -25.2572
  45   1.0000      -0.917426       -24.9644
  46   1.0000      -0.916774       -24.9467
  47   1.0000      -0.894038       -24.3280
  48   1.0000      -0.815740       -22.1974
  49   1.0000      -0.727198       -19.7881
  50   1.0000      -0.714214       -19.4348
  51   1.0000      -0.704045       -19.1580
  52   1.0000      -0.684085       -18.6149
  53   1.0000      -0.652870       -17.7655
  54   1.0000      -0.621221       -16.9043
  55   1.0000      -0.619078       -16.8460
  56   1.0000      -0.604816       -16.4579
  57   1.0000      -0.599827       -16.3221
  58   1.0000      -0.586157       -15.9501
  59   1.0000      -0.579465       -15.7681
  60   1.0000      -0.561034       -15.2665
  61   1.0000      -0.550215       -14.9721
  62   1.0000      -0.546123       -14.8608
  63   1.0000      -0.538834       -14.6624
  64   1.0000      -0.537613       -14.6292
  65   1.0000      -0.524333       -14.2678
  66   1.0000      -0.505077       -13.7438
  67   1.0000      -0.490852       -13.3568
  68   1.0000      -0.477721       -12.9995
  69   1.0000      -0.477482       -12.9930
  70   1.0000      -0.447827       -12.1860
  71   1.0000      -0.441470       -12.0130
  72   1.0000      -0.439567       -11.9612
  73   1.0000      -0.431027       -11.7289
  74   1.0000      -0.430063       -11.7026
  75   1.0000      -0.428696       -11.6654
  76   1.0000      -0.358063        -9.7434
  77   0.0000       0.012639         0.3439
  78   0.0000       0.023745         0.6461
  79   0.0000       0.024453         0.6654
  80   0.0000       0.030739         0.8364
  81   0.0000       0.039351         1.0708

                 SPIN DOWN ORBITALS
  NO   OCC          E(Eh)            E(eV)
   0   1.0000    -261.573335     -7117.7723
   1   1.0000    -104.793375     -2851.5727
   2   1.0000    -104.790008     -2851.4811
   3   1.0000    -104.787843     -2851.4222
   4   1.0000     -32.082632      -873.0128
   5   1.0000     -27.560570      -749.9612
   6   1.0000     -27.560463      -749.9583
   7   1.0000     -27.560374      -749.9559
   8   1.0000     -20.620828      -561.1212
   9   1.0000     -11.421960      -310.8073
  10   1.0000     -11.278481      -306.9031
  11   1.0000     -11.273223      -306.7600
  12   1.0000     -11.263657      -306.4997
  13   1.0000     -11.242382      -305.9208
  14   1.0000     -11.241731      -305.9031
  15   1.0000     -11.235101      -305.7226
  16   1.0000     -11.228040      -305.5305
  17   1.0000     -10.520005      -286.2639
  18   1.0000     -10.516597      -286.1712
  19   1.0000     -10.514392      -286.1111
  20   1.0000      -7.985930      -217.3082
  21   1.0000      -7.985176      -217.2877
  22   1.0000      -7.985139      -217.2867
  23   1.0000      -7.982480      -217.2143
  24   1.0000      -7.981784      -217.1954
  25   1.0000      -7.981693      -217.1929
  26   1.0000      -7.980385      -217.1573
  27   1.0000      -7.979477      -217.1326
  28   1.0000      -7.979394      -217.1304
  29   1.0000      -4.157395      -113.1285
  30   1.0000      -2.678937       -72.8976
  31   1.0000      -2.678910       -72.8968
  32   1.0000      -2.678473       -72.8849
  33   1.0000      -1.459046       -39.7027
  34   1.0000      -1.123095       -30.5610
  35   1.0000      -1.099508       -29.9191
  36   1.0000      -1.052327       -28.6353
  37   1.0000      -1.039726       -28.2924
  38   1.0000      -1.036311       -28.1995
  39   1.0000      -1.020516       -27.7696
  40   1.0000      -1.008921       -27.4541
  41   1.0000      -0.956418       -26.0255
  42   1.0000      -0.894128       -24.3305
  43   1.0000      -0.828589       -22.5471
  44   1.0000      -0.727271       -19.7900
  45   1.0000      -0.715976       -19.4827
  46   1.0000      -0.703253       -19.1365
  47   1.0000      -0.683498       -18.5989
  48   1.0000      -0.652818       -17.7641
  49   1.0000      -0.620695       -16.8900
  50   1.0000      -0.618984       -16.8434
  51   1.0000      -0.604629       -16.4528
  52   1.0000      -0.599733       -16.3196
  53   1.0000      -0.585853       -15.9419
  54   1.0000      -0.577947       -15.7267
  55   1.0000      -0.560271       -15.2457
  56   1.0000      -0.549831       -14.9617
  57   1.0000      -0.544592       -14.8191
  58   1.0000      -0.538559       -14.6549
  59   1.0000      -0.527020       -14.3409
  60   1.0000      -0.523481       -14.2446
  61   1.0000      -0.507074       -13.7982
  62   1.0000      -0.490752       -13.3540
  63   1.0000      -0.486195       -13.2300
  64   1.0000      -0.483575       -13.1587
  65   1.0000      -0.455042       -12.3823
  66   1.0000      -0.451705       -12.2915
  67   1.0000      -0.448696       -12.2096
  68   1.0000      -0.432362       -11.7652
  69   1.0000      -0.430031       -11.7017
  70   1.0000      -0.414131       -11.2691
  71   1.0000      -0.357625        -9.7315
  72   0.0000       0.012622         0.3435
  73   0.0000       0.023721         0.6455
  74   0.0000       0.024413         0.6643
  75   0.0000       0.030677         0.8348
  76   0.0000       0.039261         1.0683

E(0)                                       ...  -3028.469874970
E(0)                                       ...  -3028.469874970
E(CORR)(strong-pairs)                      ...     -2.865953108
E(CORR)(weak-pairs)                        ...     -0.035456420
E(CORR)(corrected)                         ...     -2.901409528
E(TOT)                                     ...  -3031.371284498
E(CCSD(T))                                 ...  -3031.488997065
FINAL SINGLE POINT ENERGY     -3031.488997065467

DIPOLE MOMENT
-------------
                                X             Y             Z
Electronic contribution:    -43.85733      -5.05194       1.59353
Nuclear contribution   :     47.08362       6.58209      -2.22860
                        -----------------------------------------
Total Dipole Moment    :      3.22629       1.53014      -0.63507
                        -----------------------------------------
Magnitude (a.u.)       :      3.62679
Magnitude (Debye)      :      9.21857

Rotational constants in cm-1:     0.018795     0.010610     0.009984
Rotational constants in MHz :   563.461183   318.083943   299.326048

                             ****ORCA TERMINATED NORMALLY****
TOTAL RUN TIME: 0 days 16 hours 47 minutes 10 seconds 684 msec
