                         Program Version 4.1.2  - RELEASE  -
|  1> ! aug-cc-pVTZ aug-cc-pVTZ/C DLPNO-CCSD(T1) TightSCF NormalPNO UNO MiniPrint AutoAux
|  2> %pal nproc 10 end
|  3> %maxcore 20000
|  4> %mdci
|  5>      density none
|  6> end
|  7>
|  8> * xyz 0 6
|  9>  O     -0.30711900     -0.14389200     -0.43986800
| 10>  C     -1.18283600     -1.08802500     -0.21118400
| 11>  C     -2.60567100     -0.27400200      0.84494500
| 12>  C     -3.06533000      0.67169300     -0.06968300
| 13>  C     -4.18491100      0.38194300     -1.00972300
| 14> Fe      1.53170300      0.17282600     -0.09954000
| 15> Cl      1.86530600      2.13548100     -1.02101600
| 16>  C     -2.36004800      1.96389800     -0.21228000
| 17> Cl      2.53024900     -1.53853800     -1.05320300
| 18> Cl      1.83893100      0.20419600      2.08594300
| 19>  H     -3.24986700     -1.14676600      0.95307200
| 20>  H     -2.83711600      2.63906200     -0.92517700
| 21>  H     -2.21619000      2.47004500      0.74780700
| 22>  H     -1.33982500      1.71661900     -0.56905400
| 23>  H     -5.01707700      1.05805600     -0.76427500
| 24>  H     -3.90513200      0.61147100     -2.04545800
| 25>  H     -4.54663400     -0.64573000     -0.94327900
| 26>  C     -1.91935000      0.18986600      2.12155200
| 27>  H     -2.53988300      0.93494000      2.63182600
| 28>  H     -1.77464500     -0.64391300      2.80980700
| 29>  H     -0.94190000      0.63585600      1.92664900
| 30>  C     -0.74680100     -2.17471500      0.76809400
| 31>  H     -1.57014300     -2.83247200      1.05691200
| 32>  H      0.00525100     -2.76960900      0.23440100
| 33>  H     -0.26478700     -1.75853000      1.65204800
| 34>  C     -1.82096300     -1.64473100     -1.47487900
| 35>  H     -1.06470400     -2.27660300     -1.95495000
| 36>  H     -2.70038100     -2.26018900     -1.26666400
| 37>  H     -2.07509000     -0.84950200     -2.17706500
| 38> *
| 39>
| 40>
| 41>                          ****END OF INPUT****

CARTESIAN COORDINATES (ANGSTROEM)
---------------------------------
  O     -0.307119   -0.143892   -0.439868
  C     -1.182836   -1.088025   -0.211184
  C     -2.605671   -0.274002    0.844945
  C     -3.065330    0.671693   -0.069683
  C     -4.184911    0.381943   -1.009723
  Fe     1.531703    0.172826   -0.099540
  Cl     1.865306    2.135481   -1.021016
  C     -2.360048    1.963898   -0.212280
  Cl     2.530249   -1.538538   -1.053203
  Cl     1.838931    0.204196    2.085943
  H     -3.249867   -1.146766    0.953072
  H     -2.837116    2.639062   -0.925177
  H     -2.216190    2.470045    0.747807
  H     -1.339825    1.716619   -0.569054
  H     -5.017077    1.058056   -0.764275
  H     -3.905132    0.611471   -2.045458
  H     -4.546634   -0.645730   -0.943279
  C     -1.919350    0.189866    2.121552
  H     -2.539883    0.934940    2.631826
  H     -1.774645   -0.643913    2.809807
  H     -0.941900    0.635856    1.926649
  C     -0.746801   -2.174715    0.768094
  H     -1.570143   -2.832472    1.056912
  H      0.005251   -2.769609    0.234401
  H     -0.264787   -1.758530    1.652048
  C     -1.820963   -1.644731   -1.474879
  H     -1.064704   -2.276603   -1.954950
  H     -2.700381   -2.260189   -1.266664
  H     -2.075090   -0.849502   -2.177065

ORBITAL ENERGIES
----------------
                 SPIN UP ORBITALS
  NO   OCC          E(Eh)            E(eV)
   0   1.0000    -261.550609     -7117.1539
   1   1.0000    -104.774779     -2851.0667
   2   1.0000    -104.772158     -2850.9954
   3   1.0000    -104.772041     -2850.9922
   4   1.0000     -32.218485      -876.7095
   5   1.0000     -27.694605      -753.6085
   6   1.0000     -27.694025      -753.5927
   7   1.0000     -27.693876      -753.5887
   8   1.0000     -20.563233      -559.5540
   9   1.0000     -11.385569      -309.8171
  10   1.0000     -11.356690      -309.0313
  11   1.0000     -11.288315      -307.1707
  12   1.0000     -11.278992      -306.9170
  13   1.0000     -11.265812      -306.5583
  14   1.0000     -11.257052      -306.3200
  15   1.0000     -11.249880      -306.1248
  16   1.0000     -11.249015      -306.1013
  17   1.0000     -10.501426      -285.7583
  18   1.0000     -10.498756      -285.6857
  19   1.0000     -10.498671      -285.6834
  20   1.0000      -7.968287      -216.8281
  21   1.0000      -7.967481      -216.8062
  22   1.0000      -7.967444      -216.8052
  23   1.0000      -7.965571      -216.7542
  24   1.0000      -7.965535      -216.7532
  25   1.0000      -7.964878      -216.7353
  26   1.0000      -7.964782      -216.7328
  27   1.0000      -7.964768      -216.7324
  28   1.0000      -7.964686      -216.7301
  29   1.0000      -4.573798      -124.4594
  30   1.0000      -3.186597       -86.7117
  31   1.0000      -3.185663       -86.6863
  32   1.0000      -3.185288       -86.6761
  33   1.0000      -1.402295       -38.1584
  34   1.0000      -1.180055       -32.1109
  35   1.0000      -1.080443       -29.4004
  36   1.0000      -1.046536       -28.4777
  37   1.0000      -1.044417       -28.4200
  38   1.0000      -1.040724       -28.3196
  39   1.0000      -1.038921       -28.2705
  40   1.0000      -1.004906       -27.3449
  41   1.0000      -0.982525       -26.7359
  42   1.0000      -0.925699       -25.1895
  43   1.0000      -0.917317       -24.9615
  44   1.0000      -0.903145       -24.5758
  45   1.0000      -0.903127       -24.5753
  46   1.0000      -0.893738       -24.3198
  47   1.0000      -0.893338       -24.3090
  48   1.0000      -0.790647       -21.5146
  49   1.0000      -0.767255       -20.8781
  50   1.0000      -0.696663       -18.9572
  51   1.0000      -0.690111       -18.7789
  52   1.0000      -0.669987       -18.2313
  53   1.0000      -0.665175       -18.1003
  54   1.0000      -0.655722       -17.8431
  55   1.0000      -0.629173       -17.1207
  56   1.0000      -0.603970       -16.4349
  57   1.0000      -0.594679       -16.1820
  58   1.0000      -0.591754       -16.1024
  59   1.0000      -0.577413       -15.7122
  60   1.0000      -0.575337       -15.6557
  61   1.0000      -0.565292       -15.3824
  62   1.0000      -0.558956       -15.2100
  63   1.0000      -0.543272       -14.7832
  64   1.0000      -0.533297       -14.5118
  65   1.0000      -0.525559       -14.3012
  66   1.0000      -0.510906       -13.9025
  67   1.0000      -0.474729       -12.9180
  68   1.0000      -0.460942       -12.5429
  69   1.0000      -0.450766       -12.2660
  70   1.0000      -0.428012       -11.6468
  71   1.0000      -0.424633       -11.5549
  72   1.0000      -0.421390       -11.4666
  73   1.0000      -0.413233       -11.2446
  74   1.0000      -0.411374       -11.1941
  75   1.0000      -0.410937       -11.1822
  76   1.0000      -0.392762       -10.6876
  77   0.0000       0.005786         0.1574
  78   0.0000       0.015151         0.4123
  79   0.0000       0.019074         0.5190
  80   0.0000       0.020629         0.5613
  81   0.0000       0.029076         0.7912

                 SPIN DOWN ORBITALS
  NO   OCC          E(Eh)            E(eV)
   0   1.0000    -261.547052     -7117.0571
   1   1.0000    -104.773363     -2851.0281
   2   1.0000    -104.770732     -2850.9565
   3   1.0000    -104.770587     -2850.9526
   4   1.0000     -32.056400      -872.2990
   5   1.0000     -27.534398      -749.2491
   6   1.0000     -27.534308      -749.2466
   7   1.0000     -27.533943      -749.2367
   8   1.0000     -20.558592      -559.4277
   9   1.0000     -11.385569      -309.8171
  10   1.0000     -11.356255      -309.0194
  11   1.0000     -11.288375      -307.1723
  12   1.0000     -11.279037      -306.9182
  13   1.0000     -11.265869      -306.5599
  14   1.0000     -11.256947      -306.3171
  15   1.0000     -11.249881      -306.1248
  16   1.0000     -11.249031      -306.1017
  17   1.0000     -10.499907      -285.7170
  18   1.0000     -10.497231      -285.6442
  19   1.0000     -10.497114      -285.6410
  20   1.0000      -7.965805      -216.7606
  21   1.0000      -7.965193      -216.7439
  22   1.0000      -7.965126      -216.7421
  23   1.0000      -7.963206      -216.6899
  24   1.0000      -7.963027      -216.6850
  25   1.0000      -7.962482      -216.6702
  26   1.0000      -7.962382      -216.6674
  27   1.0000      -7.962381      -216.6674
  28   1.0000      -7.962291      -216.6650
  29   1.0000      -4.131464      -112.4229
  30   1.0000      -2.653206       -72.1974
  31   1.0000      -2.653154       -72.1960
  32   1.0000      -2.652423       -72.1761
  33   1.0000      -1.390415       -37.8351
  34   1.0000      -1.178740       -32.0752
  35   1.0000      -1.077892       -29.3309
  36   1.0000      -1.044167       -28.4132
  37   1.0000      -1.031488       -28.0682
  38   1.0000      -1.019785       -27.7497
  39   1.0000      -1.018091       -27.7037
  40   1.0000      -1.004737       -27.3403
  41   1.0000      -0.981915       -26.7193
  42   1.0000      -0.924415       -25.1546
  43   1.0000      -0.803496       -21.8642
  44   1.0000      -0.768835       -20.9211
  45   1.0000      -0.697338       -18.9755
  46   1.0000      -0.689617       -18.7654
  47   1.0000      -0.672002       -18.2861
  48   1.0000      -0.664714       -18.0878
  49   1.0000      -0.654986       -17.8231
  50   1.0000      -0.628696       -17.1077
  51   1.0000      -0.603701       -16.4275
  52   1.0000      -0.594333       -16.1726
  53   1.0000      -0.591279       -16.0895
  54   1.0000      -0.577251       -15.7078
  55   1.0000      -0.575170       -15.6512
  56   1.0000      -0.564898       -15.3717
  57   1.0000      -0.558865       -15.2075
  58   1.0000      -0.542540       -14.7633
  59   1.0000      -0.532438       -14.4884
  60   1.0000      -0.522561       -14.2196
  61   1.0000      -0.502810       -13.6821
  62   1.0000      -0.472221       -12.8498
  63   1.0000      -0.464970       -12.6525
  64   1.0000      -0.461031       -12.5453
  65   1.0000      -0.436007       -11.8643
  66   1.0000      -0.433162       -11.7869
  67   1.0000      -0.431163       -11.7326
  68   1.0000      -0.421498       -11.4695
  69   1.0000      -0.410892       -11.1809
  70   1.0000      -0.396911       -10.8005
  71   1.0000      -0.388818       -10.5803
  72   0.0000       0.005791         0.1576
  73   0.0000       0.015331         0.4172
  74   0.0000       0.019083         0.5193
  75   0.0000       0.020559         0.5594
  76   0.0000       0.029029         0.7899

E(0)                                       ...  -3028.429209228
E(0)                                       ...  -3028.429209228
E(CORR)(strong-pairs)                      ...     -2.875005837
E(CORR)(weak-pairs)                        ...     -0.035820678
E(CORR)(corrected)                         ...     -2.910826515
E(TOT)                                     ...  -3031.340035742
E(CCSD(T))                                 ...  -3031.460692066
FINAL SINGLE POINT ENERGY     -3031.460692065904

DIPOLE MOMENT
-------------
                                X             Y             Z
Electronic contribution:     43.70000       6.13201      -1.71486
Nuclear contribution   :    -48.96916      -6.67430       1.66087
                        -----------------------------------------
Total Dipole Moment    :     -5.26916      -0.54229      -0.05400
                        -----------------------------------------
Magnitude (a.u.)       :      5.29727
Magnitude (Debye)      :     13.46459

Rotational constants in cm-1:     0.019999     0.010089     0.009662
Rotational constants in MHz :   599.567967   302.453107   289.649869

                             ****ORCA TERMINATED NORMALLY****
TOTAL RUN TIME: 0 days 21 hours 7 minutes 22 seconds 850 msec
