                         Program Version 4.1.2  - RELEASE  -
|  1> ! aug-cc-pVTZ aug-cc-pVTZ/C DLPNO-CCSD(T1) TightSCF NormalPNO UNO MiniPrint AutoAux
|  2> %pal nproc 10 end
|  3> %maxcore 20000
|  4> %mdci
|  5>      density none
|  6> end
|  7>
|  8> * xyz 0 6
|  9>  O     -0.27992000     -0.38661100     -0.70360400
| 10>  C     -1.41127400     -1.20583800     -0.48913100
| 11>  C     -2.64736500     -0.20059000     -0.06011100
| 12>  C     -2.06012600      1.15491500     -0.24034800
| 13>  C     -1.92733300      1.74817800     -1.57838100
| 14> Fe      1.35668200      0.02149200      0.00380300
| 15> Cl      1.66988000      2.07611900     -0.81480500
| 16>  C     -1.63282700      1.95108500      0.90811900
| 17> Cl      2.84816400     -1.50041400     -0.50714100
| 18> Cl      1.03239000      0.18470300      2.23146000
| 19>  H     -3.41707600     -0.32603300     -0.83068800
| 20>  H     -2.45166100      2.03760500      1.63421400
| 21>  H     -0.84672700      1.38561200      1.45046700
| 22>  H     -1.23665900      2.92869100      0.63455900
| 23>  H     -2.53672900      2.66613100     -1.60036900
| 24>  H     -0.88300000      2.07619900     -1.70238100
| 25>  H     -2.22186000      1.08428400     -2.38937600
| 26>  C     -3.25921200     -0.46195100      1.31710000
| 27>  H     -4.07178100      0.24396000      1.52343200
| 28>  H     -3.68572100     -1.46711000      1.34789600
| 29>  H     -2.52323300     -0.38596900      2.12073000
| 30>  C     -1.11954800     -2.24887000      0.58653900
| 31>  H     -1.96236900     -2.92862300      0.74397200
| 32>  H     -0.26424000     -2.83899900      0.23924500
| 33>  H     -0.83799700     -1.78909100      1.53519900
| 34>  C     -1.76506300     -1.88694600     -1.81170000
| 35>  H     -0.92264900     -2.51456400     -2.11783300
| 36>  H     -2.65742100     -2.51513500     -1.71175100
| 37>  H     -1.93613400     -1.14969600     -2.60163300
| 38> *
| 39>
| 40>
| 41>                          ****END OF INPUT****

CARTESIAN COORDINATES (ANGSTROEM)
---------------------------------
  O     -0.279920   -0.386611   -0.703604
  C     -1.411274   -1.205838   -0.489131
  C     -2.647365   -0.200590   -0.060111
  C     -2.060126    1.154915   -0.240348
  C     -1.927333    1.748178   -1.578381
  Fe     1.356682    0.021492    0.003803
  Cl     1.669880    2.076119   -0.814805
  C     -1.632827    1.951085    0.908119
  Cl     2.848164   -1.500414   -0.507141
  Cl     1.032390    0.184703    2.231460
  H     -3.417076   -0.326033   -0.830688
  H     -2.451661    2.037605    1.634214
  H     -0.846727    1.385612    1.450467
  H     -1.236659    2.928691    0.634559
  H     -2.536729    2.666131   -1.600369
  H     -0.883000    2.076199   -1.702381
  H     -2.221860    1.084284   -2.389376
  C     -3.259212   -0.461951    1.317100
  H     -4.071781    0.243960    1.523432
  H     -3.685721   -1.467110    1.347896
  H     -2.523233   -0.385969    2.120730
  C     -1.119548   -2.248870    0.586539
  H     -1.962369   -2.928623    0.743972
  H     -0.264240   -2.838999    0.239245
  H     -0.837997   -1.789091    1.535199
  C     -1.765063   -1.886946   -1.811700
  H     -0.922649   -2.514564   -2.117833
  H     -2.657421   -2.515135   -1.711751
  H     -1.936134   -1.149696   -2.601633

ORBITAL ENERGIES
----------------
                 SPIN UP ORBITALS
  NO   OCC          E(Eh)            E(eV)
   0   1.0000    -261.543183     -7116.9518
   1   1.0000    -104.775574     -2851.0883
   2   1.0000    -104.773680     -2851.0368
   3   1.0000    -104.768532     -2850.8967
   4   1.0000     -32.211004      -876.5060
   5   1.0000     -27.687113      -753.4046
   6   1.0000     -27.686734      -753.3943
   7   1.0000     -27.686297      -753.3824
   8   1.0000     -20.534722      -558.7782
   9   1.0000     -11.413355      -310.5732
  10   1.0000     -11.336016      -308.4687
  11   1.0000     -11.295643      -307.3701
  12   1.0000     -11.286507      -307.1215
  13   1.0000     -11.280359      -306.9542
  14   1.0000     -11.263677      -306.5002
  15   1.0000     -11.237174      -305.7791
  16   1.0000     -11.229678      -305.5751
  17   1.0000     -10.502156      -285.7782
  18   1.0000     -10.500175      -285.7243
  19   1.0000     -10.495075      -285.5855
  20   1.0000      -7.969058      -216.8491
  21   1.0000      -7.968127      -216.8238
  22   1.0000      -7.968084      -216.8226
  23   1.0000      -7.967035      -216.7940
  24   1.0000      -7.966242      -216.7725
  25   1.0000      -7.966132      -216.7695
  26   1.0000      -7.961831      -216.6524
  27   1.0000      -7.961211      -216.6356
  28   1.0000      -7.961116      -216.6330
  29   1.0000      -4.566542      -124.2619
  30   1.0000      -3.179140       -86.5088
  31   1.0000      -3.178592       -86.4939
  32   1.0000      -3.178336       -86.4869
  33   1.0000      -1.348438       -36.6929
  34   1.0000      -1.192567       -32.4514
  35   1.0000      -1.094409       -29.7804
  36   1.0000      -1.045143       -28.4398
  37   1.0000      -1.040288       -28.3077
  38   1.0000      -1.037692       -28.2370
  39   1.0000      -1.035599       -28.1801
  40   1.0000      -1.020126       -27.7590
  41   1.0000      -0.963392       -26.2152
  42   1.0000      -0.933477       -25.4012
  43   1.0000      -0.903658       -24.5898
  44   1.0000      -0.896383       -24.3918
  45   1.0000      -0.896146       -24.3854
  46   1.0000      -0.889166       -24.1954
  47   1.0000      -0.888229       -24.1699
  48   1.0000      -0.803207       -21.8564
  49   1.0000      -0.759372       -20.6636
  50   1.0000      -0.708992       -19.2926
  51   1.0000      -0.690429       -18.7875
  52   1.0000      -0.677272       -18.4295
  53   1.0000      -0.635428       -17.2909
  54   1.0000      -0.633464       -17.2374
  55   1.0000      -0.624941       -17.0055
  56   1.0000      -0.606599       -16.5064
  57   1.0000      -0.598569       -16.2879
  58   1.0000      -0.595204       -16.1963
  59   1.0000      -0.582619       -15.8539
  60   1.0000      -0.578972       -15.7546
  61   1.0000      -0.555234       -15.1087
  62   1.0000      -0.548404       -14.9228
  63   1.0000      -0.538233       -14.6461
  64   1.0000      -0.524454       -14.2711
  65   1.0000      -0.521352       -14.1867
  66   1.0000      -0.501817       -13.6551
  67   1.0000      -0.467245       -12.7144
  68   1.0000      -0.465660       -12.6712
  69   1.0000      -0.444005       -12.0820
  70   1.0000      -0.434487       -11.8230
  71   1.0000      -0.423909       -11.5351
  72   1.0000      -0.420027       -11.4295
  73   1.0000      -0.416623       -11.3369
  74   1.0000      -0.412526       -11.2254
  75   1.0000      -0.411679       -11.2024
  76   1.0000      -0.409240       -11.1360
  77   0.0000       0.003781         0.1029
  78   0.0000       0.008296         0.2257
  79   0.0000       0.019854         0.5403
  80   0.0000       0.020914         0.5691
  81   0.0000       0.030252         0.8232

                 SPIN DOWN ORBITALS
  NO   OCC          E(Eh)            E(eV)
   0   1.0000    -261.539644     -7116.8555
   1   1.0000    -104.774325     -2851.0543
   2   1.0000    -104.772435     -2851.0029
   3   1.0000    -104.767119     -2850.8583
   4   1.0000     -32.048991      -872.0974
   5   1.0000     -27.527218      -749.0537
   6   1.0000     -27.526948      -749.0463
   7   1.0000     -27.526252      -749.0274
   8   1.0000     -20.527827      -558.5906
   9   1.0000     -11.413367      -310.5735
  10   1.0000     -11.335759      -308.4617
  11   1.0000     -11.295520      -307.3667
  12   1.0000     -11.286493      -307.1211
  13   1.0000     -11.280395      -306.9552
  14   1.0000     -11.263683      -306.5004
  15   1.0000     -11.237081      -305.7765
  16   1.0000     -11.229644      -305.5741
  17   1.0000     -10.500802      -285.7413
  18   1.0000     -10.498833      -285.6878
  19   1.0000     -10.493566      -285.5445
  20   1.0000      -7.966562      -216.7812
  21   1.0000      -7.966300      -216.7740
  22   1.0000      -7.966195      -216.7712
  23   1.0000      -7.964744      -216.7317
  24   1.0000      -7.964283      -216.7192
  25   1.0000      -7.964177      -216.7163
  26   1.0000      -7.959608      -216.5919
  27   1.0000      -7.958764      -216.5690
  28   1.0000      -7.958698      -216.5672
  29   1.0000      -4.124487      -112.2330
  30   1.0000      -2.646550       -72.0163
  31   1.0000      -2.646296       -72.0094
  32   1.0000      -2.645622       -71.9910
  33   1.0000      -1.330294       -36.1991
  34   1.0000      -1.191110       -32.4117
  35   1.0000      -1.091661       -29.7056
  36   1.0000      -1.036782       -28.2123
  37   1.0000      -1.031352       -28.0645
  38   1.0000      -1.023653       -27.8550
  39   1.0000      -1.017506       -27.6877
  40   1.0000      -1.015592       -27.6357
  41   1.0000      -0.962623       -26.1943
  42   1.0000      -0.931634       -25.3510
  43   1.0000      -0.806950       -21.9582
  44   1.0000      -0.765805       -20.8386
  45   1.0000      -0.709903       -19.3174
  46   1.0000      -0.690343       -18.7852
  47   1.0000      -0.677724       -18.4418
  48   1.0000      -0.636260       -17.3135
  49   1.0000      -0.635176       -17.2840
  50   1.0000      -0.623078       -16.9548
  51   1.0000      -0.606845       -16.5131
  52   1.0000      -0.597047       -16.2465
  53   1.0000      -0.595090       -16.1932
  54   1.0000      -0.582385       -15.8475
  55   1.0000      -0.577144       -15.7049
  56   1.0000      -0.555007       -15.1025
  57   1.0000      -0.545646       -14.8478
  58   1.0000      -0.537383       -14.6229
  59   1.0000      -0.521169       -14.1817
  60   1.0000      -0.516940       -14.0667
  61   1.0000      -0.498449       -13.5635
  62   1.0000      -0.467517       -12.7218
  63   1.0000      -0.463993       -12.6259
  64   1.0000      -0.449432       -12.2297
  65   1.0000      -0.443171       -12.0593
  66   1.0000      -0.435046       -11.8382
  67   1.0000      -0.429906       -11.6983
  68   1.0000      -0.429549       -11.6886
  69   1.0000      -0.409098       -11.1321
  70   1.0000      -0.400869       -10.9082
  71   1.0000      -0.398874       -10.8539
  72   0.0000       0.003683         0.1002
  73   0.0000       0.008129         0.2212
  74   0.0000       0.019838         0.5398
  75   0.0000       0.020896         0.5686
  76   0.0000       0.030283         0.8240

E(0)                                       ...  -3028.430062866
E(0)                                       ...  -3028.430062866
E(CORR)(strong-pairs)                      ...     -2.869252865
E(CORR)(weak-pairs)                        ...     -0.036295982
E(CORR)(corrected)                         ...     -2.905548847
E(TOT)                                     ...  -3031.335611713
E(CCSD(T))                                 ...  -3031.452929730
FINAL SINGLE POINT ENERGY     -3031.452929729616

DIPOLE MOMENT
-------------
                                X             Y             Z
Electronic contribution:     39.00866       5.11610       2.50113
Nuclear contribution   :    -43.92839      -4.49867      -2.93989
                        -----------------------------------------
Total Dipole Moment    :     -4.91973       0.61742      -0.43876
                        -----------------------------------------
Magnitude (a.u.)       :      4.97770
Magnitude (Debye)      :     12.65230

Rotational constants in cm-1:     0.018927     0.012122     0.010909
Rotational constants in MHz :   567.415520   363.399417   327.043060

                             ****ORCA TERMINATED NORMALLY****
TOTAL RUN TIME: 0 days 20 hours 28 minutes 10 seconds 350 msec
