                         Program Version 4.1.2  - RELEASE  -
|  1> ! aug-cc-pVTZ aug-cc-pVTZ/C DLPNO-CCSD(T1) TightSCF NormalPNO UNO MiniPrint AutoAux
|  2> %pal nproc 10 end
|  3> %maxcore 20000
|  4> %mdci
|  5>      density none
|  6> end
|  7>
|  8> * xyz 0 6
|  9>  O     -0.23282300     -0.30716300     -0.84027600
| 10>  C     -1.07013700     -1.23696200     -0.65810600
| 11>  C     -2.93872500     -0.20338200      0.54297900
| 12>  C     -2.63438000      0.93896700     -0.11939100
| 13>  C     -3.18657900      1.23392300     -1.48418200
| 14> Fe      1.46812700      0.15065400     -0.00233300
| 15> Cl      2.04457400      2.02812700     -0.94670500
| 16>  C     -1.72183800      1.99470200      0.42245400
| 17> Cl      2.69411500     -1.59224900     -0.50480200
| 18> Cl      1.12830100      0.32591900      2.16466700
| 19>  H     -3.66543500     -0.86701000      0.07598900
| 20>  H     -2.25776500      2.95042500      0.49224700
| 21>  H     -1.30764200      1.75911700      1.40191600
| 22>  H     -0.88825400      2.16124900     -0.27274200
| 23>  H     -3.73443700      2.18476200     -1.46193600
| 24>  H     -2.37418100      1.36447400     -2.21171700
| 25>  H     -3.87017700      0.45927800     -1.84070700
| 26>  C     -2.69059400     -0.44864500      2.01124500
| 27>  H     -3.45839500      0.06552600      2.60437200
| 28>  H     -2.76093200     -1.51114700      2.25788100
| 29>  H     -1.71745400     -0.08638700      2.35027900
| 30>  C     -0.84477600     -2.24485700      0.43114200
| 31>  H     -1.72591100     -2.85944400      0.61847200
| 32>  H     -0.03825100     -2.89542900      0.06139800
| 33>  H     -0.49091600     -1.78450000      1.35308600
| 34>  C     -1.86204200     -1.68296100     -1.85669800
| 35>  H     -1.21930000     -2.40457800     -2.38131900
| 36>  H     -2.78708500     -2.19338700     -1.58560900
| 37>  H     -2.05696800     -0.85791000     -2.53912100
| 38> *
| 39>
| 40>
| 41>                          ****END OF INPUT****

CARTESIAN COORDINATES (ANGSTROEM)
---------------------------------
  O     -0.232823   -0.307163   -0.840276
  C     -1.070137   -1.236962   -0.658106
  C     -2.938725   -0.203382    0.542979
  C     -2.634380    0.938967   -0.119391
  C     -3.186579    1.233923   -1.484182
  Fe     1.468127    0.150654   -0.002333
  Cl     2.044574    2.028127   -0.946705
  C     -1.721838    1.994702    0.422454
  Cl     2.694115   -1.592249   -0.504802
  Cl     1.128301    0.325919    2.164667
  H     -3.665435   -0.867010    0.075989
  H     -2.257765    2.950425    0.492247
  H     -1.307642    1.759117    1.401916
  H     -0.888254    2.161249   -0.272742
  H     -3.734437    2.184762   -1.461936
  H     -2.374181    1.364474   -2.211717
  H     -3.870177    0.459278   -1.840707
  C     -2.690594   -0.448645    2.011245
  H     -3.458395    0.065526    2.604372
  H     -2.760932   -1.511147    2.257881
  H     -1.717454   -0.086387    2.350279
  C     -0.844776   -2.244857    0.431142
  H     -1.725911   -2.859444    0.618472
  H     -0.038251   -2.895429    0.061398
  H     -0.490916   -1.784500    1.353086
  C     -1.862042   -1.682961   -1.856698
  H     -1.219300   -2.404578   -2.381319
  H     -2.787085   -2.193387   -1.585609
  H     -2.056968   -0.857910   -2.539121

ORBITAL ENERGIES
----------------
                 SPIN UP ORBITALS
  NO   OCC          E(Eh)            E(eV)
   0   1.0000    -261.571698     -7117.7277
   1   1.0000    -104.791389     -2851.5187
   2   1.0000    -104.787765     -2851.4201
   3   1.0000    -104.785895     -2851.3692
   4   1.0000     -32.239456      -877.2802
   5   1.0000     -27.715846      -754.1865
   6   1.0000     -27.714851      -754.1594
   7   1.0000     -27.714658      -754.1542
   8   1.0000     -20.609504      -560.8131
   9   1.0000     -11.419458      -310.7393
  10   1.0000     -11.280854      -306.9676
  11   1.0000     -11.274879      -306.8051
  12   1.0000     -11.269512      -306.6590
  13   1.0000     -11.250150      -306.1322
  14   1.0000     -11.249568      -306.1163
  15   1.0000     -11.239007      -305.8289
  16   1.0000     -11.234405      -305.7037
  17   1.0000     -10.518092      -286.2118
  18   1.0000     -10.514444      -286.1126
  19   1.0000     -10.512525      -286.0604
  20   1.0000      -7.984935      -217.2811
  21   1.0000      -7.984158      -217.2600
  22   1.0000      -7.984116      -217.2588
  23   1.0000      -7.981314      -217.1826
  24   1.0000      -7.980543      -217.1616
  25   1.0000      -7.980487      -217.1601
  26   1.0000      -7.979322      -217.1284
  27   1.0000      -7.978651      -217.1101
  28   1.0000      -7.978596      -217.1086
  29   1.0000      -4.594429      -125.0208
  30   1.0000      -3.207505       -87.2806
  31   1.0000      -3.205922       -87.2376
  32   1.0000      -3.205739       -87.2326
  33   1.0000      -1.453755       -39.5587
  34   1.0000      -1.135429       -30.8966
  35   1.0000      -1.097307       -29.8592
  36   1.0000      -1.063976       -28.9523
  37   1.0000      -1.058125       -28.7930
  38   1.0000      -1.055109       -28.7110
  39   1.0000      -1.024895       -27.8888
  40   1.0000      -1.007012       -27.4022
  41   1.0000      -0.965063       -26.2607
  42   1.0000      -0.939349       -25.5610
  43   1.0000      -0.923426       -25.1277
  44   1.0000      -0.923325       -25.1249
  45   1.0000      -0.913008       -24.8442
  46   1.0000      -0.912274       -24.8242
  47   1.0000      -0.902108       -24.5476
  48   1.0000      -0.809114       -22.0171
  49   1.0000      -0.736866       -20.0511
  50   1.0000      -0.706288       -19.2191
  51   1.0000      -0.696604       -18.9556
  52   1.0000      -0.684016       -18.6130
  53   1.0000      -0.661000       -17.9867
  54   1.0000      -0.627050       -17.0629
  55   1.0000      -0.621508       -16.9121
  56   1.0000      -0.605240       -16.4694
  57   1.0000      -0.598316       -16.2810
  58   1.0000      -0.584657       -15.9093
  59   1.0000      -0.576574       -15.6894
  60   1.0000      -0.561200       -15.2710
  61   1.0000      -0.555786       -15.1237
  62   1.0000      -0.546965       -14.8837
  63   1.0000      -0.545791       -14.8517
  64   1.0000      -0.534917       -14.5558
  65   1.0000      -0.529355       -14.4045
  66   1.0000      -0.500659       -13.6236
  67   1.0000      -0.497897       -13.5485
  68   1.0000      -0.474576       -12.9139
  69   1.0000      -0.472827       -12.8663
  70   1.0000      -0.443789       -12.0761
  71   1.0000      -0.438176       -11.9234
  72   1.0000      -0.436299       -11.8723
  73   1.0000      -0.427670       -11.6375
  74   1.0000      -0.426580       -11.6078
  75   1.0000      -0.425310       -11.5733
  76   1.0000      -0.364391        -9.9156
  77   0.0000       0.012321         0.3353
  78   0.0000       0.022935         0.6241
  79   0.0000       0.023763         0.6466
  80   0.0000       0.030302         0.8246
  81   0.0000       0.038934         1.0594

                 SPIN DOWN ORBITALS
  NO   OCC          E(Eh)            E(eV)
   0   1.0000    -261.568125     -7117.6305
   1   1.0000    -104.789926     -2851.4789
   2   1.0000    -104.786224     -2851.3781
   3   1.0000    -104.784358     -2851.3273
   4   1.0000     -32.077441      -872.8715
   5   1.0000     -27.555350      -749.8192
   6   1.0000     -27.555302      -749.8179
   7   1.0000     -27.555153      -749.8138
   8   1.0000     -20.605768      -560.7114
   9   1.0000     -11.419371      -310.7369
  10   1.0000     -11.280820      -306.9667
  11   1.0000     -11.274768      -306.8020
  12   1.0000     -11.269500      -306.6587
  13   1.0000     -11.250129      -306.1316
  14   1.0000     -11.249573      -306.1164
  15   1.0000     -11.239007      -305.8289
  16   1.0000     -11.234425      -305.7043
  17   1.0000     -10.516527      -286.1692
  18   1.0000     -10.512799      -286.0678
  19   1.0000     -10.510891      -286.0159
  20   1.0000      -7.982434      -217.2131
  21   1.0000      -7.981741      -217.1942
  22   1.0000      -7.981698      -217.1931
  23   1.0000      -7.978692      -217.1112
  24   1.0000      -7.977998      -217.0924
  25   1.0000      -7.977909      -217.0900
  26   1.0000      -7.976875      -217.0618
  27   1.0000      -7.976018      -217.0385
  28   1.0000      -7.975933      -217.0362
  29   1.0000      -4.152269      -112.9890
  30   1.0000      -2.673849       -72.7591
  31   1.0000      -2.673833       -72.7587
  32   1.0000      -2.673291       -72.7439
  33   1.0000      -1.444483       -39.3064
  34   1.0000      -1.135056       -30.8865
  35   1.0000      -1.094786       -29.7906
  36   1.0000      -1.048568       -28.5330
  37   1.0000      -1.036103       -28.1938
  38   1.0000      -1.032736       -28.1022
  39   1.0000      -1.024346       -27.8739
  40   1.0000      -1.006329       -27.3836
  41   1.0000      -0.964972       -26.2582
  42   1.0000      -0.902356       -24.5544
  43   1.0000      -0.822533       -22.3822
  44   1.0000      -0.736948       -20.0534
  45   1.0000      -0.708692       -19.2845
  46   1.0000      -0.695660       -18.9299
  47   1.0000      -0.683310       -18.5938
  48   1.0000      -0.660905       -17.9841
  49   1.0000      -0.627008       -17.0617
  50   1.0000      -0.620997       -16.8982
  51   1.0000      -0.604868       -16.4593
  52   1.0000      -0.598208       -16.2781
  53   1.0000      -0.584381       -15.9018
  54   1.0000      -0.575193       -15.6518
  55   1.0000      -0.560652       -15.2561
  56   1.0000      -0.555619       -15.1191
  57   1.0000      -0.545748       -14.8506
  58   1.0000      -0.545127       -14.8336
  59   1.0000      -0.531164       -14.4537
  60   1.0000      -0.521020       -14.1777
  61   1.0000      -0.501124       -13.6363
  62   1.0000      -0.498655       -13.5691
  63   1.0000      -0.482384       -13.1263
  64   1.0000      -0.479765       -13.0551
  65   1.0000      -0.451566       -12.2877
  66   1.0000      -0.448249       -12.1975
  67   1.0000      -0.445471       -12.1219
  68   1.0000      -0.429470       -11.6865
  69   1.0000      -0.426327       -11.6009
  70   1.0000      -0.411100       -11.1866
  71   1.0000      -0.363479        -9.8908
  72   0.0000       0.012306         0.3349
  73   0.0000       0.022910         0.6234
  74   0.0000       0.023734         0.6458
  75   0.0000       0.030200         0.8218
  76   0.0000       0.038762         1.0548

E(0)                                       ...  -3028.454794325
E(0)                                       ...  -3028.454794325
E(CORR)(strong-pairs)                      ...     -2.869899816
E(CORR)(weak-pairs)                        ...     -0.036075558
E(CORR)(corrected)                         ...     -2.905975374
E(TOT)                                     ...  -3031.360769699
E(CCSD(T))                                 ...  -3031.479435659
FINAL SINGLE POINT ENERGY     -3031.479435659465

DIPOLE MOMENT
-------------
                                X             Y             Z
Electronic contribution:     43.01066       4.73665       1.41701
Nuclear contribution   :    -46.60351      -5.96047      -2.02546
                        -----------------------------------------
Total Dipole Moment    :     -3.59284      -1.22382      -0.60845
                        -----------------------------------------
Magnitude (a.u.)       :      3.84402
Magnitude (Debye)      :      9.77072

Rotational constants in cm-1:     0.018990     0.010873     0.010231
Rotational constants in MHz :   569.291325   325.964438   306.711450

                             ****ORCA TERMINATED NORMALLY****
TOTAL RUN TIME: 0 days 17 hours 51 minutes 58 seconds 99 msec
