                         Program Version 4.1.2  - RELEASE  -
|  1> ! aug-cc-pVTZ aug-cc-pVTZ/C DLPNO-CCSD(T1) TightSCF NormalPNO UNO MiniPrint AutoAux
|  2> %pal nproc 10 end
|  3> %maxcore 20000
|  4> %mdci
|  5>      density none
|  6> end
|  7>
|  8> * xyz 0 6
|  9>  O      0.28594800      0.22243000     -0.48558900
| 10>  C      1.10893200      1.15995000     -0.20275100
| 11>  C      2.69261900      0.14230600      0.93581900
| 12>  C      3.12877000     -0.65128900     -0.09197500
| 13>  C      4.24490600     -0.23898100     -0.99943800
| 14> Fe     -1.56180700     -0.17550300     -0.10740100
| 15> Cl     -1.89227900     -2.06185900     -1.15751000
| 16>  C      2.45374600     -1.95076900     -0.38538100
| 17> Cl     -2.56159700      1.59765600     -0.92843600
| 18> Cl     -1.83711700     -0.34149400      2.06722400
| 19>  H      3.27184400      1.04324500      1.13312100
| 20>  H      2.96674600     -2.52038500     -1.16385200
| 21>  H      2.35504400     -2.57403700      0.50980400
| 22>  H      1.42707200     -1.73851500     -0.72754000
| 23>  H      5.08007400     -0.94141000     -0.87005300
| 24>  H      3.95227200     -0.30577400     -2.05488800
| 25>  H      4.61320200      0.76805500     -0.78963300
| 26>  C      1.89647900     -0.41974300      2.09263300
| 27>  H      2.45176200     -1.23753000      2.56783600
| 28>  H      1.71388100      0.33729200      2.85705500
| 29>  H      0.92857200     -0.81951900      1.78114800
| 30>  C      0.74350200      2.11752400      0.91026600
| 31>  H      1.58895400      2.72436700      1.23946900
| 32>  H     -0.01475600      2.78581200      0.47765400
| 33>  H      0.28056900      1.60825300      1.75451400
| 34>  C      1.84410700      1.76557700     -1.37407100
| 35>  H      1.14784000      2.48199800     -1.83054000
| 36>  H      2.74259700      2.30844300     -1.07415100
| 37>  H      2.08226700      1.01273300     -2.12515000
| 38> *
| 39>
| 40>
| 41>                          ****END OF INPUT****

CARTESIAN COORDINATES (ANGSTROEM)
---------------------------------
  O      0.285948    0.222430   -0.485589
  C      1.108932    1.159950   -0.202751
  C      2.692619    0.142306    0.935819
  C      3.128770   -0.651289   -0.091975
  C      4.244906   -0.238981   -0.999438
  Fe    -1.561807   -0.175503   -0.107401
  Cl    -1.892279   -2.061859   -1.157510
  C      2.453746   -1.950769   -0.385381
  Cl    -2.561597    1.597656   -0.928436
  Cl    -1.837117   -0.341494    2.067224
  H      3.271844    1.043245    1.133121
  H      2.966746   -2.520385   -1.163852
  H      2.355044   -2.574037    0.509804
  H      1.427072   -1.738515   -0.727540
  H      5.080074   -0.941410   -0.870053
  H      3.952272   -0.305774   -2.054888
  H      4.613202    0.768055   -0.789633
  C      1.896479   -0.419743    2.092633
  H      2.451762   -1.237530    2.567836
  H      1.713881    0.337292    2.857055
  H      0.928572   -0.819519    1.781148
  C      0.743502    2.117524    0.910266
  H      1.588954    2.724367    1.239469
  H     -0.014756    2.785812    0.477654
  H      0.280569    1.608253    1.754514
  C      1.844107    1.765577   -1.374071
  H      1.147840    2.481998   -1.830540
  H      2.742597    2.308443   -1.074151
  H      2.082267    1.012733   -2.125150

ORBITAL ENERGIES
----------------
                 SPIN UP ORBITALS
  NO   OCC          E(Eh)            E(eV)
   0   1.0000    -261.563355     -7117.5007
   1   1.0000    -104.783612     -2851.3070
   2   1.0000    -104.781423     -2851.2475
   3   1.0000    -104.779939     -2851.2071
   4   1.0000     -32.231140      -877.0539
   5   1.0000     -27.707484      -753.9590
   6   1.0000     -27.706555      -753.9337
   7   1.0000     -27.706409      -753.9297
   8   1.0000     -20.593418      -560.3754
   9   1.0000     -11.410000      -310.4819
  10   1.0000     -11.310369      -307.7708
  11   1.0000     -11.268722      -306.6375
  12   1.0000     -11.267827      -306.6132
  13   1.0000     -11.264248      -306.5158
  14   1.0000     -11.262093      -306.4571
  15   1.0000     -11.249905      -306.1255
  16   1.0000     -11.242138      -305.9141
  17   1.0000     -10.510281      -285.9993
  18   1.0000     -10.508065      -285.9390
  19   1.0000     -10.506539      -285.8975
  20   1.0000      -7.977126      -217.0686
  21   1.0000      -7.976339      -217.0472
  22   1.0000      -7.976327      -217.0469
  23   1.0000      -7.974939      -217.0091
  24   1.0000      -7.974163      -216.9880
  25   1.0000      -7.974082      -216.9858
  26   1.0000      -7.973345      -216.9658
  27   1.0000      -7.972676      -216.9475
  28   1.0000      -7.972588      -216.9452
  29   1.0000      -4.586268      -124.7987
  30   1.0000      -3.199369       -87.0593
  31   1.0000      -3.197818       -87.0171
  32   1.0000      -3.197615       -87.0115
  33   1.0000      -1.435537       -39.0629
  34   1.0000      -1.154423       -31.4135
  35   1.0000      -1.089137       -29.6369
  36   1.0000      -1.056083       -28.7375
  37   1.0000      -1.050778       -28.5931
  38   1.0000      -1.048180       -28.5224
  39   1.0000      -1.033379       -28.1197
  40   1.0000      -0.998136       -27.1607
  41   1.0000      -0.983398       -26.7596
  42   1.0000      -0.932151       -25.3651
  43   1.0000      -0.915510       -24.9123
  44   1.0000      -0.915419       -24.9098
  45   1.0000      -0.910824       -24.7848
  46   1.0000      -0.905017       -24.6268
  47   1.0000      -0.904669       -24.6173
  48   1.0000      -0.801225       -21.8024
  49   1.0000      -0.751565       -20.4511
  50   1.0000      -0.695417       -18.9233
  51   1.0000      -0.685348       -18.6493
  52   1.0000      -0.682804       -18.5800
  53   1.0000      -0.674550       -18.3554
  54   1.0000      -0.641285       -17.4502
  55   1.0000      -0.623153       -16.9568
  56   1.0000      -0.605152       -16.4670
  57   1.0000      -0.596788       -16.2394
  58   1.0000      -0.581474       -15.8227
  59   1.0000      -0.578788       -15.7496
  60   1.0000      -0.569885       -15.5074
  61   1.0000      -0.560693       -15.2572
  62   1.0000      -0.558861       -15.2074
  63   1.0000      -0.544862       -14.8265
  64   1.0000      -0.535685       -14.5767
  65   1.0000      -0.522527       -14.2187
  66   1.0000      -0.515104       -14.0167
  67   1.0000      -0.489527       -13.3207
  68   1.0000      -0.469268       -12.7694
  69   1.0000      -0.463284       -12.6066
  70   1.0000      -0.437327       -11.9003
  71   1.0000      -0.431941       -11.7537
  72   1.0000      -0.429580       -11.6895
  73   1.0000      -0.421380       -11.4663
  74   1.0000      -0.419844       -11.4245
  75   1.0000      -0.418875       -11.3982
  76   1.0000      -0.374935       -10.2025
  77   0.0000       0.010033         0.2730
  78   0.0000       0.021180         0.5763
  79   0.0000       0.021971         0.5978
  80   0.0000       0.028213         0.7677
  81   0.0000       0.036671         0.9979

                 SPIN DOWN ORBITALS
  NO   OCC          E(Eh)            E(eV)
   0   1.0000    -261.559786     -7117.4036
   1   1.0000    -104.782135     -2851.2668
   2   1.0000    -104.779926     -2851.2067
   3   1.0000    -104.778433     -2851.1661
   4   1.0000     -32.069097      -872.6445
   5   1.0000     -27.547045      -749.5932
   6   1.0000     -27.546974      -749.5913
   7   1.0000     -27.546748      -749.5851
   8   1.0000     -20.589607      -560.2717
   9   1.0000     -11.409859      -310.4780
  10   1.0000     -11.309602      -307.7499
  11   1.0000     -11.268621      -306.6348
  12   1.0000     -11.267926      -306.6159
  13   1.0000     -11.264259      -306.5161
  14   1.0000     -11.262595      -306.4708
  15   1.0000     -11.249997      -306.1280
  16   1.0000     -11.242096      -305.9130
  17   1.0000     -10.508701      -285.9563
  18   1.0000     -10.506464      -285.8954
  19   1.0000     -10.504935      -285.8538
  20   1.0000      -7.974607      -217.0001
  21   1.0000      -7.973915      -216.9813
  22   1.0000      -7.973861      -216.9798
  23   1.0000      -7.972357      -216.9389
  24   1.0000      -7.971706      -216.9212
  25   1.0000      -7.971607      -216.9185
  26   1.0000      -7.970914      -216.8996
  27   1.0000      -7.970107      -216.8776
  28   1.0000      -7.970012      -216.8751
  29   1.0000      -4.144017      -112.7644
  30   1.0000      -2.665648       -72.5360
  31   1.0000      -2.665558       -72.5335
  32   1.0000      -2.665118       -72.5216
  33   1.0000      -1.425823       -38.7986
  34   1.0000      -1.153202       -31.3802
  35   1.0000      -1.086564       -29.5669
  36   1.0000      -1.041042       -28.3282
  37   1.0000      -1.033755       -28.1299
  38   1.0000      -1.028253       -27.9802
  39   1.0000      -1.026332       -27.9279
  40   1.0000      -0.997559       -27.1450
  41   1.0000      -0.983325       -26.7576
  42   1.0000      -0.911094       -24.7921
  43   1.0000      -0.815986       -22.2041
  44   1.0000      -0.751547       -20.4506
  45   1.0000      -0.698680       -19.0120
  46   1.0000      -0.683672       -18.6037
  47   1.0000      -0.682836       -18.5809
  48   1.0000      -0.674412       -18.3517
  49   1.0000      -0.641254       -17.4494
  50   1.0000      -0.622184       -16.9305
  51   1.0000      -0.604836       -16.4584
  52   1.0000      -0.596437       -16.2299
  53   1.0000      -0.581378       -15.8201
  54   1.0000      -0.578512       -15.7421
  55   1.0000      -0.569327       -15.4922
  56   1.0000      -0.560701       -15.2574
  57   1.0000      -0.558836       -15.2067
  58   1.0000      -0.542958       -14.7746
  59   1.0000      -0.534922       -14.5560
  60   1.0000      -0.515316       -14.0225
  61   1.0000      -0.512351       -13.9418
  62   1.0000      -0.488621       -13.2961
  63   1.0000      -0.474490       -12.9115
  64   1.0000      -0.472984       -12.8706
  65   1.0000      -0.444888       -12.1060
  66   1.0000      -0.441524       -12.0145
  67   1.0000      -0.439314       -11.9543
  68   1.0000      -0.424477       -11.5506
  69   1.0000      -0.419650       -11.4193
  70   1.0000      -0.404459       -11.0059
  71   1.0000      -0.373848       -10.1729
  72   0.0000       0.010030         0.2729
  73   0.0000       0.021171         0.5761
  74   0.0000       0.021980         0.5981
  75   0.0000       0.028076         0.7640
  76   0.0000       0.035845         0.9754

E(0)                                       ...  -3028.441185338
E(0)                                       ...  -3028.441185338
E(CORR)(strong-pairs)                      ...     -2.873007850
E(CORR)(weak-pairs)                        ...     -0.035012169
E(CORR)(corrected)                         ...     -2.908020018
E(TOT)                                     ...  -3031.349205356
E(CCSD(T))                                 ...  -3031.469077695
FINAL SINGLE POINT ENERGY     -3031.469077695101

DIPOLE MOMENT
-------------
                                X             Y             Z
Electronic contribution:    -45.27150      -5.47429      -2.07377
Nuclear contribution   :     49.68747       6.51412       2.03771
                        -----------------------------------------
Total Dipole Moment    :      4.41598       1.03984      -0.03606
                        -----------------------------------------
Magnitude (a.u.)       :      4.53689
Magnitude (Debye)      :     11.53187

Rotational constants in cm-1:     0.019932     0.009869     0.009451
Rotational constants in MHz :   597.531829   295.864069   283.328012

                             ****ORCA TERMINATED NORMALLY****
TOTAL RUN TIME: 0 days 23 hours 42 minutes 35 seconds 319 msec
