                         Program Version 4.1.2  - RELEASE  -
|  1> ! aug-cc-pVTZ aug-cc-pVTZ/C DLPNO-CCSD(T1) TightSCF NormalPNO UNO MiniPrint AutoAux
|  2> %pal nproc 10 end
|  3> %maxcore 20000
|  4> %mdci
|  5>      density none
|  6> end
|  7>
|  8> * xyz 0 6
|  9>  O     -0.22964700     -0.30058100     -0.81520800
| 10>  C     -1.09001400     -1.21692200     -0.63333000
| 11>  C     -2.86134100     -0.27436700      0.58998400
| 12>  C     -2.70596400      0.90117700     -0.07617000
| 13>  C     -3.38777300      1.16448500     -1.38633700
| 14> Fe      1.47824600      0.15953900     -0.01937900
| 15> Cl      2.01467100      2.04544400     -0.97634400
| 16>  C     -1.80089400      1.99414100      0.39448000
| 17> Cl      2.71763600     -1.57015100     -0.53559500
| 18> Cl      1.17427000      0.35063600      2.15271200
| 19>  H     -3.58624200     -0.97639700      0.18021000
| 20>  H     -2.32863500      2.95580600      0.39339200
| 21>  H     -1.38175100      1.82281400      1.38538900
| 22>  H     -0.96589800      2.09997500     -0.31322300
| 23>  H     -4.01943900      2.05766000     -1.29505500
| 24>  H     -2.65345100      1.38726400     -2.17216100
| 25>  H     -4.02124900      0.33451100     -1.70821500
| 26>  C     -2.52273000     -0.47650500      2.04932900
| 27>  H     -3.25310400      0.05895300      2.66943000
| 28>  H     -2.58099500     -1.53065600      2.32956400
| 29>  H     -1.53046900     -0.10924800      2.31872700
| 30>  C     -0.82238100     -2.27671100      0.40089100
| 31>  H     -1.69755600     -2.89498800      0.60459600
| 32>  H     -0.03999100     -2.91310900     -0.03765400
| 33>  H     -0.42032100     -1.86095200      1.32423100
| 34>  C     -1.87881500     -1.63648000     -1.84757200
| 35>  H     -1.22710700     -2.33014300     -2.39711800
| 36>  H     -2.79805200     -2.16685300     -1.59504200
| 37>  H     -2.08529900     -0.79171300     -2.50234400
| 38> *
| 39>
| 40>
| 41>                          ****END OF INPUT****

CARTESIAN COORDINATES (ANGSTROEM)
---------------------------------
  O     -0.229647   -0.300581   -0.815208
  C     -1.090014   -1.216922   -0.633330
  C     -2.861341   -0.274367    0.589984
  C     -2.705964    0.901177   -0.076170
  C     -3.387773    1.164485   -1.386337
  Fe     1.478246    0.159539   -0.019379
  Cl     2.014671    2.045444   -0.976344
  C     -1.800894    1.994141    0.394480
  Cl     2.717636   -1.570151   -0.535595
  Cl     1.174270    0.350636    2.152712
  H     -3.586242   -0.976397    0.180210
  H     -2.328635    2.955806    0.393392
  H     -1.381751    1.822814    1.385389
  H     -0.965898    2.099975   -0.313223
  H     -4.019439    2.057660   -1.295055
  H     -2.653451    1.387264   -2.172161
  H     -4.021249    0.334511   -1.708215
  C     -2.522730   -0.476505    2.049329
  H     -3.253104    0.058953    2.669430
  H     -2.580995   -1.530656    2.329564
  H     -1.530469   -0.109248    2.318727
  C     -0.822381   -2.276711    0.400891
  H     -1.697556   -2.894988    0.604596
  H     -0.039991   -2.913109   -0.037654
  H     -0.420321   -1.860952    1.324231
  C     -1.878815   -1.636480   -1.847572
  H     -1.227107   -2.330143   -2.397118
  H     -2.798052   -2.166853   -1.595042
  H     -2.085299   -0.791713   -2.502344

ORBITAL ENERGIES
----------------
                 SPIN UP ORBITALS
  NO   OCC          E(Eh)            E(eV)
   0   1.0000    -261.568619     -7117.6440
   1   1.0000    -104.789510     -2851.4675
   2   1.0000    -104.785656     -2851.3627
   3   1.0000    -104.783663     -2851.3084
   4   1.0000     -32.236411      -877.1973
   5   1.0000     -27.712757      -754.1024
   6   1.0000     -27.711835      -754.0774
   7   1.0000     -27.711638      -754.0720
   8   1.0000     -20.603356      -560.6458
   9   1.0000     -11.416811      -310.6672
  10   1.0000     -11.290769      -307.2374
  11   1.0000     -11.272755      -306.7473
  12   1.0000     -11.268033      -306.6188
  13   1.0000     -11.254897      -306.2613
  14   1.0000     -11.254632      -306.2541
  15   1.0000     -11.239574      -305.8444
  16   1.0000     -11.238730      -305.8214
  17   1.0000     -10.516214      -286.1607
  18   1.0000     -10.512330      -286.0550
  19   1.0000     -10.510286      -285.9994
  20   1.0000      -7.983061      -217.2301
  21   1.0000      -7.982273      -217.2087
  22   1.0000      -7.982240      -217.2078
  23   1.0000      -7.979190      -217.1248
  24   1.0000      -7.978431      -217.1041
  25   1.0000      -7.978376      -217.1026
  26   1.0000      -7.977091      -217.0677
  27   1.0000      -7.976411      -217.0492
  28   1.0000      -7.976347      -217.0474
  29   1.0000      -4.591468      -124.9402
  30   1.0000      -3.204528       -87.1996
  31   1.0000      -3.203006       -87.1582
  32   1.0000      -3.202808       -87.1528
  33   1.0000      -1.446720       -39.3673
  34   1.0000      -1.141308       -31.0566
  35   1.0000      -1.094364       -29.7792
  36   1.0000      -1.061792       -28.8928
  37   1.0000      -1.055870       -28.7317
  38   1.0000      -1.052653       -28.6442
  39   1.0000      -1.027226       -27.9523
  40   1.0000      -1.004481       -27.3333
  41   1.0000      -0.970193       -26.4003
  42   1.0000      -0.936902       -25.4944
  43   1.0000      -0.920548       -25.0494
  44   1.0000      -0.920428       -25.0461
  45   1.0000      -0.910374       -24.7725
  46   1.0000      -0.909547       -24.7500
  47   1.0000      -0.905240       -24.6328
  48   1.0000      -0.806085       -21.9347
  49   1.0000      -0.742020       -20.1914
  50   1.0000      -0.701930       -19.1005
  51   1.0000      -0.692553       -18.8453
  52   1.0000      -0.682714       -18.5776
  53   1.0000      -0.664458       -18.0808
  54   1.0000      -0.631067       -17.1722
  55   1.0000      -0.621864       -16.9218
  56   1.0000      -0.605604       -16.4793
  57   1.0000      -0.596903       -16.2426
  58   1.0000      -0.583429       -15.8759
  59   1.0000      -0.575790       -15.6680
  60   1.0000      -0.561954       -15.2916
  61   1.0000      -0.559649       -15.2288
  62   1.0000      -0.549842       -14.9620
  63   1.0000      -0.545040       -14.8313
  64   1.0000      -0.535128       -14.5616
  65   1.0000      -0.529523       -14.4090
  66   1.0000      -0.504699       -13.7336
  67   1.0000      -0.495310       -13.4781
  68   1.0000      -0.472840       -12.8666
  69   1.0000      -0.470131       -12.7929
  70   1.0000      -0.441597       -12.0165
  71   1.0000      -0.436312       -11.8727
  72   1.0000      -0.434268       -11.8170
  73   1.0000      -0.425821       -11.5872
  74   1.0000      -0.424486       -11.5509
  75   1.0000      -0.423227       -11.5166
  76   1.0000      -0.367868       -10.0102
  77   0.0000       0.011907         0.3240
  78   0.0000       0.022264         0.6058
  79   0.0000       0.023477         0.6388
  80   0.0000       0.029841         0.8120
  81   0.0000       0.038493         1.0474

                 SPIN DOWN ORBITALS
  NO   OCC          E(Eh)            E(eV)
   0   1.0000    -261.565048     -7117.5468
   1   1.0000    -104.788053     -2851.4279
   2   1.0000    -104.784126     -2851.3210
   3   1.0000    -104.782140     -2851.2670
   4   1.0000     -32.074380      -872.7883
   5   1.0000     -27.552299      -749.7362
   6   1.0000     -27.552245      -749.7347
   7   1.0000     -27.552070      -749.7299
   8   1.0000     -20.599476      -560.5402
   9   1.0000     -11.416714      -310.6646
  10   1.0000     -11.290659      -307.2345
  11   1.0000     -11.272644      -306.7442
  12   1.0000     -11.268019      -306.6184
  13   1.0000     -11.254912      -306.2617
  14   1.0000     -11.254665      -306.2550
  15   1.0000     -11.239568      -305.8442
  16   1.0000     -11.238758      -305.8222
  17   1.0000     -10.514655      -286.1183
  18   1.0000     -10.510696      -286.0106
  19   1.0000     -10.508665      -285.9553
  20   1.0000      -7.980555      -217.1619
  21   1.0000      -7.979884      -217.1437
  22   1.0000      -7.979837      -217.1424
  23   1.0000      -7.976601      -217.0543
  24   1.0000      -7.975895      -217.0351
  25   1.0000      -7.975809      -217.0328
  26   1.0000      -7.974642      -217.0010
  27   1.0000      -7.973814      -216.9785
  28   1.0000      -7.973725      -216.9761
  29   1.0000      -4.149268      -112.9073
  30   1.0000      -2.670890       -72.6786
  31   1.0000      -2.670841       -72.6773
  32   1.0000      -2.670285       -72.6621
  33   1.0000      -1.437031       -39.1036
  34   1.0000      -1.140867       -31.0446
  35   1.0000      -1.091696       -29.7066
  36   1.0000      -1.046456       -28.4755
  37   1.0000      -1.034103       -28.1394
  38   1.0000      -1.030530       -28.0421
  39   1.0000      -1.026623       -27.9358
  40   1.0000      -1.003785       -27.3144
  41   1.0000      -0.970114       -26.3981
  42   1.0000      -0.905598       -24.6426
  43   1.0000      -0.820118       -22.3165
  44   1.0000      -0.742119       -20.1941
  45   1.0000      -0.704535       -19.1714
  46   1.0000      -0.691549       -18.8180
  47   1.0000      -0.682021       -18.5587
  48   1.0000      -0.664343       -18.0777
  49   1.0000      -0.631029       -17.1712
  50   1.0000      -0.621384       -16.9087
  51   1.0000      -0.605149       -16.4669
  52   1.0000      -0.596785       -16.2393
  53   1.0000      -0.583151       -15.8684
  54   1.0000      -0.574259       -15.6264
  55   1.0000      -0.561789       -15.2870
  56   1.0000      -0.559421       -15.2226
  57   1.0000      -0.549657       -14.9569
  58   1.0000      -0.543170       -14.7804
  59   1.0000      -0.533641       -14.5211
  60   1.0000      -0.518985       -14.1223
  61   1.0000      -0.504558       -13.7297
  62   1.0000      -0.496310       -13.5053
  63   1.0000      -0.480200       -13.0669
  64   1.0000      -0.477361       -12.9897
  65   1.0000      -0.449895       -12.2423
  66   1.0000      -0.446176       -12.1411
  67   1.0000      -0.443535       -12.0692
  68   1.0000      -0.427958       -11.6453
  69   1.0000      -0.423945       -11.5361
  70   1.0000      -0.409261       -11.1366
  71   1.0000      -0.366695        -9.9783
  72   0.0000       0.011891         0.3236
  73   0.0000       0.022238         0.6051
  74   0.0000       0.023450         0.6381
  75   0.0000       0.029685         0.8078
  76   0.0000       0.038166         1.0386

E(0)                                       ...  -3028.449475239
E(0)                                       ...  -3028.449475239
E(CORR)(strong-pairs)                      ...     -2.871226149
E(CORR)(weak-pairs)                        ...     -0.035749672
E(CORR)(corrected)                         ...     -2.906975821
E(TOT)                                     ...  -3031.356451060
E(CCSD(T))                                 ...  -3031.475572349
FINAL SINGLE POINT ENERGY     -3031.475572349113

DIPOLE MOMENT
-------------
                                X             Y             Z
Electronic contribution:     43.12324       5.26605       1.05294
Nuclear contribution   :    -46.92316      -6.41117      -1.60978
                        -----------------------------------------
Total Dipole Moment    :     -3.79993      -1.14512      -0.55684
                        -----------------------------------------
Magnitude (a.u.)       :      4.00759
Magnitude (Debye)      :     10.18649

Rotational constants in cm-1:     0.019097     0.010777     0.010146
Rotational constants in MHz :   572.519825   323.100581   304.166424

                             ****ORCA TERMINATED NORMALLY****
TOTAL RUN TIME: 0 days 18 hours 16 minutes 8 seconds 948 msec
