                         Program Version 4.1.2  - RELEASE  -
|  1> ! aug-cc-pVTZ aug-cc-pVTZ/C DLPNO-CCSD(T1) TightSCF NormalPNO UNO MiniPrint AutoAux
|  2> %pal nproc 10 end
|  3> %maxcore 20000
|  4> %mdci
|  5>      density none
|  6> end
|  7>
|  8> * xyz 0 6
|  9>  O     -0.28507300     -0.13363100     -0.42512100
| 10>  C     -1.18702200     -1.04973300     -0.14372000
| 11>  C     -2.56003100     -0.21164900      0.86745100
| 12>  C     -3.16713200      0.62462900     -0.08045300
| 13>  C     -4.35029200      0.19560200     -0.87326200
| 14> Fe      1.55697800      0.16450500     -0.10962900
| 15> Cl      1.93400400      2.08158700     -1.10810000
| 16>  C     -2.52916100      1.91815100     -0.40987700
| 17> Cl      2.52198100     -1.60112100     -1.00111500
| 18> Cl      1.88012700      0.27249100      2.07189800
| 19>  H     -3.15807900     -1.08752900      1.12089900
| 20>  H     -3.05148600      2.47454800     -1.19024400
| 21>  H     -2.40052200      2.54930400      0.47679300
| 22>  H     -1.49833800      1.67927200     -0.74292300
| 23>  H     -5.18525400      0.86914500     -0.62873200
| 24>  H     -4.17162900      0.31696400     -1.94909400
| 25>  H     -4.65981600     -0.82947200     -0.66176100
| 26>  C     -1.83582200      0.42698600      2.04823500
| 27>  H     -2.48526700      1.16247700      2.53525400
| 28>  H     -1.57238400     -0.32469700      2.79290000
| 29>  H     -0.91535500      0.92624300      1.74198200
| 30>  C     -0.73870800     -2.11257800      0.86085700
| 31>  H     -1.55778000     -2.76683800      1.16936400
| 32>  H      0.01530900     -2.71603300      0.34058000
| 33>  H     -0.25665800     -1.67173400      1.73312100
| 34>  C     -1.82507500     -1.65102000     -1.38980300
| 35>  H     -1.06945600     -2.29373000     -1.85514500
| 36>  H     -2.70267500     -2.26181400     -1.15982500
| 37>  H     -2.08590800     -0.87678400     -2.11404100
| 38> *
| 39>
| 40>
| 41>                          ****END OF INPUT****

CARTESIAN COORDINATES (ANGSTROEM)
---------------------------------
  O     -0.285073   -0.133631   -0.425121
  C     -1.187022   -1.049733   -0.143720
  C     -2.560031   -0.211649    0.867451
  C     -3.167132    0.624629   -0.080453
  C     -4.350292    0.195602   -0.873262
  Fe     1.556978    0.164505   -0.109629
  Cl     1.934004    2.081587   -1.108100
  C     -2.529161    1.918151   -0.409877
  Cl     2.521981   -1.601121   -1.001115
  Cl     1.880127    0.272491    2.071898
  H     -3.158079   -1.087529    1.120899
  H     -3.051486    2.474548   -1.190244
  H     -2.400522    2.549304    0.476793
  H     -1.498338    1.679272   -0.742923
  H     -5.185254    0.869145   -0.628732
  H     -4.171629    0.316964   -1.949094
  H     -4.659816   -0.829472   -0.661761
  C     -1.835822    0.426986    2.048235
  H     -2.485267    1.162477    2.535254
  H     -1.572384   -0.324697    2.792900
  H     -0.915355    0.926243    1.741982
  C     -0.738708   -2.112578    0.860857
  H     -1.557780   -2.766838    1.169364
  H      0.015309   -2.716033    0.340580
  H     -0.256658   -1.671734    1.733121
  C     -1.825075   -1.651020   -1.389803
  H     -1.069456   -2.293730   -1.855145
  H     -2.702675   -2.261814   -1.159825
  H     -2.085908   -0.876784   -2.114041

ORBITAL ENERGIES
----------------
                 SPIN UP ORBITALS
  NO   OCC          E(Eh)            E(eV)
   0   1.0000    -261.546657     -7117.0463
   1   1.0000    -104.771499     -2850.9774
   2   1.0000    -104.769044     -2850.9106
   3   1.0000    -104.768676     -2850.9006
   4   1.0000     -32.214537      -876.6021
   5   1.0000     -27.690618      -753.5000
   6   1.0000     -27.690095      -753.4858
   7   1.0000     -27.689952      -753.4819
   8   1.0000     -20.556926      -559.3824
   9   1.0000     -11.378615      -309.6278
  10   1.0000     -11.370004      -309.3935
  11   1.0000     -11.295296      -307.3606
  12   1.0000     -11.281918      -306.9966
  13   1.0000     -11.274088      -306.7835
  14   1.0000     -11.254633      -306.2541
  15   1.0000     -11.250070      -306.1300
  16   1.0000     -11.245937      -306.0175
  17   1.0000     -10.498160      -285.6694
  18   1.0000     -10.495644      -285.6010
  19   1.0000     -10.495313      -285.5920
  20   1.0000      -7.965025      -216.7393
  21   1.0000      -7.964218      -216.7174
  22   1.0000      -7.964175      -216.7162
  23   1.0000      -7.962458      -216.6695
  24   1.0000      -7.962182      -216.6620
  25   1.0000      -7.961767      -216.6507
  26   1.0000      -7.961670      -216.6481
  27   1.0000      -7.961406      -216.6409
  28   1.0000      -7.961323      -216.6386
  29   1.0000      -4.569865      -124.3523
  30   1.0000      -3.182598       -86.6029
  31   1.0000      -3.181779       -86.5806
  32   1.0000      -3.181392       -86.5701
  33   1.0000      -1.392978       -37.9049
  34   1.0000      -1.186887       -32.2968
  35   1.0000      -1.079371       -29.3712
  36   1.0000      -1.046245       -28.4698
  37   1.0000      -1.042880       -28.3782
  38   1.0000      -1.037529       -28.2326
  39   1.0000      -1.035569       -28.1793
  40   1.0000      -1.012369       -27.5480
  41   1.0000      -0.978955       -26.6387
  42   1.0000      -0.927050       -25.2263
  43   1.0000      -0.913740       -24.8641
  44   1.0000      -0.899217       -24.4689
  45   1.0000      -0.899199       -24.4685
  46   1.0000      -0.890000       -24.2181
  47   1.0000      -0.889565       -24.2063
  48   1.0000      -0.791733       -21.5442
  49   1.0000      -0.768816       -20.9206
  50   1.0000      -0.701402       -19.0861
  51   1.0000      -0.691197       -18.8084
  52   1.0000      -0.667506       -18.1638
  53   1.0000      -0.662959       -18.0400
  54   1.0000      -0.655269       -17.8308
  55   1.0000      -0.632846       -17.2206
  56   1.0000      -0.605959       -16.4890
  57   1.0000      -0.598014       -16.2728
  58   1.0000      -0.591195       -16.0872
  59   1.0000      -0.579679       -15.7739
  60   1.0000      -0.579064       -15.7571
  61   1.0000      -0.564092       -15.3497
  62   1.0000      -0.559122       -15.2145
  63   1.0000      -0.542811       -14.7706
  64   1.0000      -0.532698       -14.4954
  65   1.0000      -0.525101       -14.2887
  66   1.0000      -0.507319       -13.8049
  67   1.0000      -0.470618       -12.8062
  68   1.0000      -0.458073       -12.4648
  69   1.0000      -0.446910       -12.1610
  70   1.0000      -0.425294       -11.5728
  71   1.0000      -0.421932       -11.4814
  72   1.0000      -0.418224       -11.3804
  73   1.0000      -0.410046       -11.1579
  74   1.0000      -0.408240       -11.1088
  75   1.0000      -0.407771       -11.0960
  76   1.0000      -0.396431       -10.7874
  77   0.0000       0.003702         0.1007
  78   0.0000       0.006669         0.1815
  79   0.0000       0.017967         0.4889
  80   0.0000       0.019164         0.5215
  81   0.0000       0.027660         0.7527

                 SPIN DOWN ORBITALS
  NO   OCC          E(Eh)            E(eV)
   0   1.0000    -261.543099     -7116.9495
   1   1.0000    -104.770091     -2850.9391
   2   1.0000    -104.767628     -2850.8721
   3   1.0000    -104.767232     -2850.8613
   4   1.0000     -32.052444      -872.1913
   5   1.0000     -27.530451      -749.1416
   6   1.0000     -27.530362      -749.1392
   7   1.0000     -27.529967      -749.1285
   8   1.0000     -20.552139      -559.2521
   9   1.0000     -11.378613      -309.6278
  10   1.0000     -11.369641      -309.3837
  11   1.0000     -11.295346      -307.3620
  12   1.0000     -11.281909      -306.9963
  13   1.0000     -11.274133      -306.7848
  14   1.0000     -11.254528      -306.2513
  15   1.0000     -11.250096      -306.1307
  16   1.0000     -11.245936      -306.0175
  17   1.0000     -10.496648      -285.6283
  18   1.0000     -10.494131      -285.5598
  19   1.0000     -10.493765      -285.5499
  20   1.0000      -7.962551      -216.6720
  21   1.0000      -7.961942      -216.6555
  22   1.0000      -7.961881      -216.6538
  23   1.0000      -7.960111      -216.6056
  24   1.0000      -7.959675      -216.5938
  25   1.0000      -7.959389      -216.5860
  26   1.0000      -7.959289      -216.5833
  27   1.0000      -7.959047      -216.5767
  28   1.0000      -7.958957      -216.5742
  29   1.0000      -4.127520      -112.3155
  30   1.0000      -2.649296       -72.0910
  31   1.0000      -2.649232       -72.0893
  32   1.0000      -2.648439       -72.0677
  33   1.0000      -1.380703       -37.5708
  34   1.0000      -1.185657       -32.2634
  35   1.0000      -1.076875       -29.3032
  36   1.0000      -1.045625       -28.4529
  37   1.0000      -1.028282       -27.9810
  38   1.0000      -1.016598       -27.6630
  39   1.0000      -1.014854       -27.6156
  40   1.0000      -1.012113       -27.5410
  41   1.0000      -0.978361       -26.6226
  42   1.0000      -0.926500       -25.2114
  43   1.0000      -0.802419       -21.8349
  44   1.0000      -0.772238       -21.0137
  45   1.0000      -0.701900       -19.0997
  46   1.0000      -0.690551       -18.7909
  47   1.0000      -0.668389       -18.1878
  48   1.0000      -0.664750       -18.0888
  49   1.0000      -0.653765       -17.7898
  50   1.0000      -0.632445       -17.2097
  51   1.0000      -0.605717       -16.4824
  52   1.0000      -0.597889       -16.2694
  53   1.0000      -0.590442       -16.0668
  54   1.0000      -0.579461       -15.7679
  55   1.0000      -0.578845       -15.7512
  56   1.0000      -0.563768       -15.3409
  57   1.0000      -0.559120       -15.2144
  58   1.0000      -0.542038       -14.7496
  59   1.0000      -0.532553       -14.4915
  60   1.0000      -0.521025       -14.1778
  61   1.0000      -0.499395       -13.5892
  62   1.0000      -0.468107       -12.7378
  63   1.0000      -0.461816       -12.5666
  64   1.0000      -0.456927       -12.4336
  65   1.0000      -0.432788       -11.7768
  66   1.0000      -0.430242       -11.7075
  67   1.0000      -0.428085       -11.6488
  68   1.0000      -0.421221       -11.4620
  69   1.0000      -0.407501       -11.0887
  70   1.0000      -0.393875       -10.7179
  71   1.0000      -0.390879       -10.6363
  72   0.0000       0.003693         0.1005
  73   0.0000       0.007011         0.1908
  74   0.0000       0.017967         0.4889
  75   0.0000       0.019129         0.5205
  76   0.0000       0.027658         0.7526

E(0)                                       ...  -3028.427148165
E(0)                                       ...  -3028.427148165
E(CORR)(strong-pairs)                      ...     -2.874646552
E(CORR)(weak-pairs)                        ...     -0.035369665
E(CORR)(corrected)                         ...     -2.910016216
E(TOT)                                     ...  -3031.337164381
E(CCSD(T))                                 ...  -3031.457738807
FINAL SINGLE POINT ENERGY     -3031.457738806849

DIPOLE MOMENT
-------------
                                X             Y             Z
Electronic contribution:     44.23664       5.90795      -2.00044
Nuclear contribution   :    -49.89311      -6.32018       1.99957
                        -----------------------------------------
Total Dipole Moment    :     -5.65647      -0.41224      -0.00087
                        -----------------------------------------
Magnitude (a.u.)       :      5.67147
Magnitude (Debye)      :     14.41573

Rotational constants in cm-1:     0.020375     0.009832     0.009430
Rotational constants in MHz :   610.812505   294.757621   282.693205

                             ****ORCA TERMINATED NORMALLY****
TOTAL RUN TIME: 0 days 23 hours 27 minutes 32 seconds 366 msec
