                         Program Version 4.1.2  - RELEASE  -
|  1> ! aug-cc-pVTZ aug-cc-pVTZ/C DLPNO-CCSD(T1) TightSCF NormalPNO UNO MiniPrint AutoAux
|  2> %pal nproc 10 end
|  3> %maxcore 20000
|  4> %mdci
|  5>      density none
|  6> end
|  7>
|  8> * xyz 0 6
|  9>  O     -0.42291700     -0.14918800     -0.47173800
| 10>  C     -1.34838300     -1.22991200     -0.37350100
| 11>  C     -2.90436000     -0.07100400     -0.17763200
| 12>  C     -1.98417800      1.08842800     -0.29622200
| 13>  C     -1.85810700      1.77290200     -1.61192200
| 14> Fe      1.37984200      0.05764600      0.05175100
| 15> Cl      1.86425300      2.01433100     -0.85052400
| 16>  C     -1.57287900      1.85992700      0.90788500
| 17> Cl      2.42555100     -1.70668200     -0.73122200
| 18> Cl      1.37259700      0.15152600      2.26131100
| 19>  H     -3.49268300     -0.21943300     -1.08380000
| 20>  H     -2.42162000      2.51008400      1.17274200
| 21>  H     -1.36042700      1.22098300      1.76532600
| 22>  H     -0.70600400      2.49049000      0.70119900
| 23>  H     -2.63802500      2.55069800     -1.64081500
| 24>  H     -0.88417200      2.25668400     -1.71589300
| 25>  H     -2.03241900      1.09097600     -2.44606200
| 26>  C     -3.69271200     -0.28450700      1.09470900
| 27>  H     -4.47452700      0.47683500      1.21576400
| 28>  H     -4.18979300     -1.25890000      1.06329300
| 29>  H     -3.06448200     -0.26101200      1.98853100
| 30>  C     -1.16405100     -2.07355100      0.85611600
| 31>  H     -1.97811400     -2.79660300      0.96323100
| 32>  H     -0.22314300     -2.63153500      0.75321800
| 33>  H     -1.08581500     -1.46684800      1.75983000
| 34>  C     -1.44913600     -1.98502400     -1.67102800
| 35>  H     -0.48314100     -2.47364200     -1.85636200
| 36>  H     -2.22907500     -2.75143700     -1.62570700
| 37>  H     -1.64710900     -1.31216300     -2.50916200
| 38> *
| 39>
| 40>
| 41>                          ****END OF INPUT****

CARTESIAN COORDINATES (ANGSTROEM)
---------------------------------
  O     -0.422917   -0.149188   -0.471738
  C     -1.348383   -1.229912   -0.373501
  C     -2.904360   -0.071004   -0.177632
  C     -1.984178    1.088428   -0.296222
  C     -1.858107    1.772902   -1.611922
  Fe     1.379842    0.057646    0.051751
  Cl     1.864253    2.014331   -0.850524
  C     -1.572879    1.859927    0.907885
  Cl     2.425551   -1.706682   -0.731222
  Cl     1.372597    0.151526    2.261311
  H     -3.492683   -0.219433   -1.083800
  H     -2.421620    2.510084    1.172742
  H     -1.360427    1.220983    1.765326
  H     -0.706004    2.490490    0.701199
  H     -2.638025    2.550698   -1.640815
  H     -0.884172    2.256684   -1.715893
  H     -2.032419    1.090976   -2.446062
  C     -3.692712   -0.284507    1.094709
  H     -4.474527    0.476835    1.215764
  H     -4.189793   -1.258900    1.063293
  H     -3.064482   -0.261012    1.988531
  C     -1.164051   -2.073551    0.856116
  H     -1.978114   -2.796603    0.963231
  H     -0.223143   -2.631535    0.753218
  H     -1.085815   -1.466848    1.759830
  C     -1.449136   -1.985024   -1.671028
  H     -0.483141   -2.473642   -1.856362
  H     -2.229075   -2.751437   -1.625707
  H     -1.647109   -1.312163   -2.509162

ORBITAL ENERGIES
----------------
                 SPIN UP ORBITALS
  NO   OCC          E(Eh)            E(eV)
   0   1.0000    -261.553778     -7117.2401
   1   1.0000    -104.780259     -2851.2158
   2   1.0000    -104.777855     -2851.1504
   3   1.0000    -104.777836     -2851.1499
   4   1.0000     -32.221678      -876.7964
   5   1.0000     -27.697656      -753.6915
   6   1.0000     -27.697328      -753.6826
   7   1.0000     -27.697096      -753.6763
   8   1.0000     -20.567037      -559.6575
   9   1.0000     -11.393695      -310.0382
  10   1.0000     -11.364205      -309.2358
  11   1.0000     -11.284106      -307.0561
  12   1.0000     -11.271908      -306.7242
  13   1.0000     -11.269616      -306.6618
  14   1.0000     -11.257806      -306.3405
  15   1.0000     -11.244820      -305.9871
  16   1.0000     -11.242306      -305.9187
  17   1.0000     -10.506835      -285.9055
  18   1.0000     -10.504465      -285.8410
  19   1.0000     -10.504460      -285.8409
  20   1.0000      -7.973647      -216.9740
  21   1.0000      -7.972924      -216.9543
  22   1.0000      -7.972859      -216.9525
  23   1.0000      -7.971349      -216.9114
  24   1.0000      -7.971263      -216.9091
  25   1.0000      -7.970568      -216.8902
  26   1.0000      -7.970521      -216.8889
  27   1.0000      -7.970505      -216.8885
  28   1.0000      -7.970472      -216.8876
  29   1.0000      -4.577029      -124.5473
  30   1.0000      -3.189531       -86.7916
  31   1.0000      -3.189135       -86.7808
  32   1.0000      -3.188544       -86.7647
  33   1.0000      -1.370844       -37.3026
  34   1.0000      -1.161314       -31.6010
  35   1.0000      -1.082190       -29.4479
  36   1.0000      -1.051861       -28.6226
  37   1.0000      -1.045728       -28.4557
  38   1.0000      -1.044892       -28.4330
  39   1.0000      -1.038573       -28.2610
  40   1.0000      -1.004730       -27.3401
  41   1.0000      -0.973569       -26.4922
  42   1.0000      -0.926053       -25.1992
  43   1.0000      -0.907029       -24.6815
  44   1.0000      -0.906529       -24.6679
  45   1.0000      -0.904825       -24.6215
  46   1.0000      -0.897874       -24.4324
  47   1.0000      -0.897190       -24.4138
  48   1.0000      -0.787309       -21.4238
  49   1.0000      -0.758588       -20.6422
  50   1.0000      -0.691366       -18.8130
  51   1.0000      -0.685088       -18.6422
  52   1.0000      -0.667539       -18.1646
  53   1.0000      -0.643564       -17.5123
  54   1.0000      -0.630165       -17.1477
  55   1.0000      -0.622881       -16.9494
  56   1.0000      -0.596312       -16.2265
  57   1.0000      -0.593463       -16.1490
  58   1.0000      -0.587475       -15.9860
  59   1.0000      -0.580777       -15.8038
  60   1.0000      -0.570541       -15.5252
  61   1.0000      -0.561487       -15.2788
  62   1.0000      -0.547268       -14.8919
  63   1.0000      -0.539963       -14.6931
  64   1.0000      -0.534261       -14.5380
  65   1.0000      -0.527922       -14.3655
  66   1.0000      -0.509143       -13.8545
  67   1.0000      -0.485237       -13.2040
  68   1.0000      -0.466329       -12.6895
  69   1.0000      -0.455899       -12.4057
  70   1.0000      -0.435215       -11.8428
  71   1.0000      -0.429359       -11.6835
  72   1.0000      -0.426204       -11.5976
  73   1.0000      -0.420239       -11.4353
  74   1.0000      -0.417428       -11.3588
  75   1.0000      -0.416495       -11.3334
  76   1.0000      -0.382004       -10.3949
  77   0.0000       0.009789         0.2664
  78   0.0000       0.021008         0.5717
  79   0.0000       0.023297         0.6339
  80   0.0000       0.031154         0.8477
  81   0.0000       0.037891         1.0311

                 SPIN DOWN ORBITALS
  NO   OCC          E(Eh)            E(eV)
   0   1.0000    -261.550225     -7117.1435
   1   1.0000    -104.778901     -2851.1788
   2   1.0000    -104.776430     -2851.1116
   3   1.0000    -104.776402     -2851.1108
   4   1.0000     -32.059731      -872.3896
   5   1.0000     -27.537737      -749.3399
   6   1.0000     -27.537596      -749.3361
   7   1.0000     -27.537217      -749.3258
   8   1.0000     -20.561808      -559.5152
   9   1.0000     -11.393748      -310.0396
  10   1.0000     -11.364290      -309.2380
  11   1.0000     -11.283682      -307.0446
  12   1.0000     -11.271887      -306.7237
  13   1.0000     -11.269625      -306.6621
  14   1.0000     -11.257834      -306.3413
  15   1.0000     -11.244766      -305.9856
  16   1.0000     -11.242282      -305.9180
  17   1.0000     -10.505380      -285.8659
  18   1.0000     -10.502954      -285.7999
  19   1.0000     -10.502907      -285.7986
  20   1.0000      -7.971348      -216.9114
  21   1.0000      -7.970675      -216.8931
  22   1.0000      -7.970607      -216.8912
  23   1.0000      -7.968878      -216.8442
  24   1.0000      -7.968848      -216.8434
  25   1.0000      -7.968264      -216.8275
  26   1.0000      -7.968193      -216.8255
  27   1.0000      -7.968113      -216.8234
  28   1.0000      -7.968059      -216.8219
  29   1.0000      -4.134992      -112.5188
  30   1.0000      -2.656888       -72.2976
  31   1.0000      -2.656676       -72.2918
  32   1.0000      -2.655926       -72.2714
  33   1.0000      -1.357136       -36.9295
  34   1.0000      -1.159972       -31.5644
  35   1.0000      -1.079461       -29.3736
  36   1.0000      -1.038093       -28.2479
  37   1.0000      -1.036680       -28.2095
  38   1.0000      -1.025835       -27.9144
  39   1.0000      -1.024196       -27.8698
  40   1.0000      -1.004455       -27.3326
  41   1.0000      -0.973082       -26.4789
  42   1.0000      -0.917127       -24.9563
  43   1.0000      -0.791933       -21.5496
  44   1.0000      -0.761847       -20.7309
  45   1.0000      -0.691520       -18.8172
  46   1.0000      -0.684878       -18.6365
  47   1.0000      -0.668056       -18.1787
  48   1.0000      -0.644369       -17.5342
  49   1.0000      -0.628493       -17.1022
  50   1.0000      -0.623172       -16.9574
  51   1.0000      -0.595212       -16.1965
  52   1.0000      -0.593509       -16.1502
  53   1.0000      -0.587465       -15.9857
  54   1.0000      -0.578801       -15.7500
  55   1.0000      -0.570401       -15.5214
  56   1.0000      -0.561505       -15.2793
  57   1.0000      -0.545185       -14.8352
  58   1.0000      -0.539476       -14.6799
  59   1.0000      -0.533404       -14.5147
  60   1.0000      -0.522625       -14.2213
  61   1.0000      -0.506562       -13.7843
  62   1.0000      -0.480929       -13.0868
  63   1.0000      -0.470804       -12.8112
  64   1.0000      -0.466467       -12.6932
  65   1.0000      -0.440901       -11.9975
  66   1.0000      -0.438533       -11.9331
  67   1.0000      -0.436195       -11.8695
  68   1.0000      -0.424213       -11.5434
  69   1.0000      -0.415426       -11.3043
  70   1.0000      -0.403570       -10.9817
  71   1.0000      -0.382354       -10.4044
  72   0.0000       0.009770         0.2659
  73   0.0000       0.020906         0.5689
  74   0.0000       0.023276         0.6334
  75   0.0000       0.031204         0.8491
  76   0.0000       0.037879         1.0307

E(0)                                       ...  -3028.413643054
E(0)                                       ...  -3028.413643054
E(CORR)(strong-pairs)                      ...     -2.875583782
E(CORR)(weak-pairs)                        ...     -0.036091754
E(CORR)(corrected)                         ...     -2.911675536
E(TOT)                                     ...  -3031.325318589
E(CCSD(T))                                 ...  -3031.445344836
FINAL SINGLE POINT ENERGY     -3031.445344836251

DIPOLE MOMENT
-------------
                                X             Y             Z
Electronic contribution:     40.29584       3.55980       2.09351
Nuclear contribution   :    -44.60897      -3.32866      -2.57487
                        -----------------------------------------
Total Dipole Moment    :     -4.31313       0.23114      -0.48136
                        -----------------------------------------
Magnitude (a.u.)       :      4.34606
Magnitude (Debye)      :     11.04680

Rotational constants in cm-1:     0.018860     0.011933     0.010792
Rotational constants in MHz :   565.421321   357.756519   323.525564

                             ****ORCA TERMINATED NORMALLY****
TOTAL RUN TIME: 0 days 21 hours 42 minutes 5 seconds 30 msec
