                         Program Version 4.1.2  - RELEASE  -
|  1> ! aug-cc-pVTZ aug-cc-pVTZ/C DLPNO-CCSD(T1) TightSCF NormalPNO UNO MiniPrint AutoAux
|  2> %pal nproc 10 end
|  3> %maxcore 20000
|  4> %mdci
|  5>      density none
|  6> end
|  7>
|  8> * xyz 0 6
|  9>  O      0.23559500      0.36568300     -0.83142000
| 10>  C      0.97750700      1.35508200     -0.64040000
| 11>  C      3.17525300      0.00673000      0.45132400
| 12>  C      2.56683800     -0.97113900     -0.24766900
| 13>  C      2.87977700     -1.20813200     -1.70074900
| 14> Fe     -1.46867300     -0.15298300      0.03442200
| 15> Cl     -2.09327700     -1.95415600     -1.00872500
| 16>  C      1.63016800     -1.98124500      0.34980400
| 17> Cl     -2.65870700      1.63832700     -0.37897100
| 18> Cl     -1.11536200     -0.41306000      2.18297100
| 19>  H      3.90193800      0.62295700     -0.07969900
| 20>  H      2.13714800     -2.95404900      0.41279300
| 21>  H      1.27948700     -1.72200500      1.34847500
| 22>  H      0.75783200     -2.13603300     -0.29532300
| 23>  H      3.29281800     -2.21639700     -1.83555400
| 24>  H      1.96614200     -1.16600000     -2.30767800
| 25>  H      3.60720100     -0.49251300     -2.09527200
| 26>  C      3.08980100      0.24843000      1.93344400
| 27>  H      3.94516500     -0.21290100      2.44602300
| 28>  H      3.12745200      1.31804800      2.16815200
| 29>  H      2.18075700     -0.16250100      2.38017800
| 30>  C      0.85688200      2.18964000      0.59423000
| 31>  H      1.74098500      2.80725600      0.75734300
| 32>  H     -0.00849600      2.85125500      0.43868400
| 33>  H      0.64374200      1.57812400      1.47171700
| 34>  C      1.76823400      1.88971400     -1.79330100
| 35>  H      1.18412600      2.72689000     -2.20374400
| 36>  H      2.73414300      2.28605300     -1.47565600
| 37>  H      1.88841600      1.14057000     -2.57379700
| 38> *
| 39>
| 40>
| 41>                          ****END OF INPUT****

CARTESIAN COORDINATES (ANGSTROEM)
---------------------------------
  O      0.235595    0.365683   -0.831420
  C      0.977507    1.355082   -0.640400
  C      3.175253    0.006730    0.451324
  C      2.566838   -0.971139   -0.247669
  C      2.879777   -1.208132   -1.700749
  Fe    -1.468673   -0.152983    0.034422
  Cl    -2.093277   -1.954156   -1.008725
  C      1.630168   -1.981245    0.349804
  Cl    -2.658707    1.638327   -0.378971
  Cl    -1.115362   -0.413060    2.182971
  H      3.901938    0.622957   -0.079699
  H      2.137148   -2.954049    0.412793
  H      1.279487   -1.722005    1.348475
  H      0.757832   -2.136033   -0.295323
  H      3.292818   -2.216397   -1.835554
  H      1.966142   -1.166000   -2.307678
  H      3.607201   -0.492513   -2.095272
  C      3.089801    0.248430    1.933444
  H      3.945165   -0.212901    2.446023
  H      3.127452    1.318048    2.168152
  H      2.180757   -0.162501    2.380178
  C      0.856882    2.189640    0.594230
  H      1.740985    2.807256    0.757343
  H     -0.008496    2.851255    0.438684
  H      0.643742    1.578124    1.471717
  C      1.768234    1.889714   -1.793301
  H      1.184126    2.726890   -2.203744
  H      2.734143    2.286053   -1.475656
  H      1.888416    1.140570   -2.573797

ORBITAL ENERGIES
----------------
                 SPIN UP ORBITALS
  NO   OCC          E(Eh)            E(eV)
   0   1.0000    -261.578422     -7117.9107
   1   1.0000    -104.795143     -2851.6208
   2   1.0000    -104.792368     -2851.5453
   3   1.0000    -104.790665     -2851.4990
   4   1.0000     -32.246073      -877.4603
   5   1.0000     -27.722601      -754.3703
   6   1.0000     -27.721387      -754.3373
   7   1.0000     -27.721205      -754.3323
   8   1.0000     -20.623943      -561.2060
   9   1.0000     -11.422565      -310.8238
  10   1.0000     -11.279166      -306.9217
  11   1.0000     -11.273209      -306.7596
  12   1.0000     -11.261160      -306.4318
  13   1.0000     -11.240094      -305.8585
  14   1.0000     -11.238769      -305.8225
  15   1.0000     -11.236642      -305.7646
  16   1.0000     -11.226819      -305.4973
  17   1.0000     -10.521870      -286.3146
  18   1.0000     -10.519068      -286.2384
  19   1.0000     -10.517310      -286.1906
  20   1.0000      -7.988693      -217.3834
  21   1.0000      -7.987959      -217.3634
  22   1.0000      -7.987900      -217.3618
  23   1.0000      -7.985967      -217.3092
  24   1.0000      -7.985157      -217.2872
  25   1.0000      -7.985099      -217.2856
  26   1.0000      -7.984091      -217.2582
  27   1.0000      -7.983437      -217.2404
  28   1.0000      -7.983397      -217.2393
  29   1.0000      -4.600844      -125.1953
  30   1.0000      -3.214001       -87.4574
  31   1.0000      -3.212188       -87.4081
  32   1.0000      -3.212082       -87.4052
  33   1.0000      -1.469351       -39.9831
  34   1.0000      -1.121594       -30.5201
  35   1.0000      -1.103362       -30.0240
  36   1.0000      -1.068663       -29.0798
  37   1.0000      -1.062944       -28.9242
  38   1.0000      -1.060419       -28.8555
  39   1.0000      -1.021021       -27.7834
  40   1.0000      -1.009623       -27.4732
  41   1.0000      -0.955314       -25.9954
  42   1.0000      -0.944468       -25.7003
  43   1.0000      -0.929704       -25.2985
  44   1.0000      -0.929576       -25.2951
  45   1.0000      -0.918649       -24.9977
  46   1.0000      -0.918089       -24.9825
  47   1.0000      -0.893227       -24.3059
  48   1.0000      -0.816265       -22.2117
  49   1.0000      -0.725557       -19.7434
  50   1.0000      -0.715162       -19.4606
  51   1.0000      -0.705554       -19.1991
  52   1.0000      -0.686409       -18.6781
  53   1.0000      -0.651673       -17.7329
  54   1.0000      -0.622108       -16.9284
  55   1.0000      -0.618158       -16.8209
  56   1.0000      -0.603390       -16.4191
  57   1.0000      -0.600054       -16.3283
  58   1.0000      -0.586428       -15.9575
  59   1.0000      -0.579845       -15.7784
  60   1.0000      -0.560896       -15.2628
  61   1.0000      -0.549475       -14.9520
  62   1.0000      -0.548857       -14.9352
  63   1.0000      -0.537220       -14.6185
  64   1.0000      -0.536154       -14.5895
  65   1.0000      -0.523916       -14.2565
  66   1.0000      -0.505554       -13.7568
  67   1.0000      -0.489761       -13.3271
  68   1.0000      -0.478295       -13.0151
  69   1.0000      -0.478003       -13.0071
  70   1.0000      -0.448498       -12.2043
  71   1.0000      -0.442113       -12.0305
  72   1.0000      -0.440400       -11.9839
  73   1.0000      -0.431812       -11.7502
  74   1.0000      -0.430653       -11.7187
  75   1.0000      -0.429626       -11.6907
  76   1.0000      -0.356160        -9.6916
  77   0.0000       0.012848         0.3496
  78   0.0000       0.023879         0.6498
  79   0.0000       0.024741         0.6732
  80   0.0000       0.030790         0.8378
  81   0.0000       0.039534         1.0758

                 SPIN DOWN ORBITALS
  NO   OCC          E(Eh)            E(eV)
   0   1.0000    -261.574839     -7117.8132
   1   1.0000    -104.793642     -2851.5800
   2   1.0000    -104.790808     -2851.5029
   3   1.0000    -104.789093     -2851.4562
   4   1.0000     -32.084104      -873.0529
   5   1.0000     -27.562054      -750.0016
   6   1.0000     -27.561928      -749.9982
   7   1.0000     -27.561847      -749.9960
   8   1.0000     -20.620607      -561.1152
   9   1.0000     -11.422479      -310.8214
  10   1.0000     -11.279064      -306.9189
  11   1.0000     -11.273206      -306.7595
  12   1.0000     -11.261221      -306.4334
  13   1.0000     -11.240006      -305.8561
  14   1.0000     -11.238760      -305.8222
  15   1.0000     -11.236651      -305.7648
  16   1.0000     -11.226826      -305.4975
  17   1.0000     -10.520268      -286.2710
  18   1.0000     -10.517404      -286.1931
  19   1.0000     -10.515642      -286.1452
  20   1.0000      -7.986197      -217.3155
  21   1.0000      -7.985431      -217.2946
  22   1.0000      -7.985389      -217.2935
  23   1.0000      -7.983262      -217.2356
  24   1.0000      -7.982610      -217.2179
  25   1.0000      -7.982513      -217.2152
  26   1.0000      -7.981639      -217.1914
  27   1.0000      -7.980718      -217.1664
  28   1.0000      -7.980640      -217.1643
  29   1.0000      -4.158807      -113.1669
  30   1.0000      -2.680355       -72.9362
  31   1.0000      -2.680283       -72.9342
  32   1.0000      -2.679882       -72.9233
  33   1.0000      -1.461193       -39.7611
  34   1.0000      -1.121301       -30.5122
  35   1.0000      -1.101177       -29.9646
  36   1.0000      -1.052948       -28.6522
  37   1.0000      -1.040349       -28.3093
  38   1.0000      -1.037537       -28.2328
  39   1.0000      -1.020129       -27.7591
  40   1.0000      -1.009314       -27.4648
  41   1.0000      -0.955115       -25.9900
  42   1.0000      -0.893332       -24.3088
  43   1.0000      -0.828324       -22.5398
  44   1.0000      -0.725638       -19.7456
  45   1.0000      -0.716861       -19.5068
  46   1.0000      -0.704788       -19.1783
  47   1.0000      -0.685833       -18.6625
  48   1.0000      -0.651624       -17.7316
  49   1.0000      -0.621548       -16.9132
  50   1.0000      -0.618077       -16.8187
  51   1.0000      -0.603219       -16.4144
  52   1.0000      -0.599979       -16.3263
  53   1.0000      -0.586177       -15.9507
  54   1.0000      -0.578718       -15.7477
  55   1.0000      -0.559836       -15.2339
  56   1.0000      -0.549038       -14.9401
  57   1.0000      -0.546790       -14.8789
  58   1.0000      -0.537144       -14.6164
  59   1.0000      -0.526475       -14.3261
  60   1.0000      -0.522897       -14.2288
  61   1.0000      -0.507071       -13.7981
  62   1.0000      -0.489474       -13.3193
  63   1.0000      -0.486830       -13.2473
  64   1.0000      -0.484692       -13.1891
  65   1.0000      -0.455381       -12.3915
  66   1.0000      -0.452512       -12.3135
  67   1.0000      -0.449448       -12.2301
  68   1.0000      -0.432836       -11.7781
  69   1.0000      -0.431118       -11.7313
  70   1.0000      -0.414795       -11.2872
  71   1.0000      -0.355690        -9.6788
  72   0.0000       0.012832         0.3492
  73   0.0000       0.023855         0.6491
  74   0.0000       0.024702         0.6722
  75   0.0000       0.030732         0.8363
  76   0.0000       0.039438         1.0732

E(0)                                       ...  -3028.467795048
E(0)                                       ...  -3028.467795048
E(CORR)(strong-pairs)                      ...     -2.866996652
E(CORR)(weak-pairs)                        ...     -0.035137193
E(CORR)(corrected)                         ...     -2.902133845
E(TOT)                                     ...  -3031.369928893
E(CCSD(T))                                 ...  -3031.487747145
FINAL SINGLE POINT ENERGY     -3031.487747145179

DIPOLE MOMENT
-------------
                                X             Y             Z
Electronic contribution:    -43.46153      -4.19476       2.00694
Nuclear contribution   :     46.63087       5.68735      -2.62652
                        -----------------------------------------
Total Dipole Moment    :      3.16934       1.49259      -0.61958
                        -----------------------------------------
Magnitude (a.u.)       :      3.55758
Magnitude (Debye)      :      9.04266

Rotational constants in cm-1:     0.018755     0.010765     0.010147
Rotational constants in MHz :   562.249858   322.719436   304.200382

                             ****ORCA TERMINATED NORMALLY****
TOTAL RUN TIME: 0 days 18 hours 19 minutes 54 seconds 964 msec
