                         Program Version 4.1.2  - RELEASE  -
|  1> ! aug-cc-pVTZ aug-cc-pVTZ/C DLPNO-CCSD(T1) TightSCF NormalPNO UNO MiniPrint AutoAux
|  2> %pal nproc 10 end
|  3> %maxcore 20000
|  4> %mdci
|  5>      density none
|  6> end
|  7>
|  8> * xyz 0 6
|  9>  O     -0.29662900     -0.19382200     -0.76511800
| 10>  C     -1.16000800     -1.12426200     -0.63209500
| 11>  C     -2.98672900     -0.14060800      0.36063500
| 12>  C     -2.46323700      1.00414300     -0.15419600
| 13>  C     -2.76793400      1.46359900     -1.54699800
| 14> Fe      1.44066300      0.10952900      0.02174300
| 15> Cl      2.07343200      2.02886100     -0.80785200
| 16>  C     -1.57978900      1.92761900      0.62145600
| 17> Cl      2.57672000     -1.64406800     -0.64485600
| 18> Cl      1.19436600      0.13995000      2.21474400
| 19>  H     -3.71279800     -0.67130000     -0.25228300
| 20>  H     -2.16894300      2.80924400      0.91195500
| 21>  H     -1.16560500      1.48694200      1.52712300
| 22>  H     -0.75606500      2.29252000     -0.00129300
| 23>  H     -3.14170000      2.49468800     -1.51323500
| 24>  H     -1.84729800      1.48759400     -2.14415500
| 25>  H     -3.51708200      0.84585400     -2.04758400
| 26>  C     -3.00252800     -0.49261100      1.82775200
| 27>  H     -3.83191800      0.03210500      2.32001600
| 28>  H     -3.16586900     -1.56204700      1.98367900
| 29>  H     -2.08371400     -0.20997200      2.34693400
| 30>  C     -0.96017100     -2.16365200      0.43631000
| 31>  H     -1.83293700     -2.80516400      0.56274800
| 32>  H     -0.12302700     -2.78276000      0.08121300
| 33>  H     -0.65772100     -1.72798400      1.38788300
| 34>  C     -1.83719000     -1.59283600     -1.89558900
| 35>  H     -1.10657800     -2.25099600     -2.38671500
| 36>  H     -2.73994600     -2.17370900     -1.70037900
| 37>  H     -2.04429800     -0.77116900     -2.57854500
| 38> *
| 39>
| 40>
| 41>                          ****END OF INPUT****

CARTESIAN COORDINATES (ANGSTROEM)
---------------------------------
  O     -0.296629   -0.193822   -0.765118
  C     -1.160008   -1.124262   -0.632095
  C     -2.986729   -0.140608    0.360635
  C     -2.463237    1.004143   -0.154196
  C     -2.767934    1.463599   -1.546998
  Fe     1.440663    0.109529    0.021743
  Cl     2.073432    2.028861   -0.807852
  C     -1.579789    1.927619    0.621456
  Cl     2.576720   -1.644068   -0.644856
  Cl     1.194366    0.139950    2.214744
  H     -3.712798   -0.671300   -0.252283
  H     -2.168943    2.809244    0.911955
  H     -1.165605    1.486942    1.527123
  H     -0.756065    2.292520   -0.001293
  H     -3.141700    2.494688   -1.513235
  H     -1.847298    1.487594   -2.144155
  H     -3.517082    0.845854   -2.047584
  C     -3.002528   -0.492611    1.827752
  H     -3.831918    0.032105    2.320016
  H     -3.165869   -1.562047    1.983679
  H     -2.083714   -0.209972    2.346934
  C     -0.960171   -2.163652    0.436310
  H     -1.832937   -2.805164    0.562748
  H     -0.123027   -2.782760    0.081213
  H     -0.657721   -1.727984    1.387883
  C     -1.837190   -1.592836   -1.895589
  H     -1.106578   -2.250996   -2.386715
  H     -2.739946   -2.173709   -1.700379
  H     -2.044298   -0.771169   -2.578545

ORBITAL ENERGIES
----------------
                 SPIN UP ORBITALS
  NO   OCC          E(Eh)            E(eV)
   0   1.0000    -261.567373     -7117.6101
   1   1.0000    -104.787945     -2851.4250
   2   1.0000    -104.784578     -2851.3333
   3   1.0000    -104.783639     -2851.3078
   4   1.0000     -32.235165      -877.1634
   5   1.0000     -27.711445      -754.0668
   6   1.0000     -27.710621      -754.0443
   7   1.0000     -27.710452      -754.0397
   8   1.0000     -20.593448      -560.3762
   9   1.0000     -11.415942      -310.6436
  10   1.0000     -11.298135      -307.4379
  11   1.0000     -11.271238      -306.7060
  12   1.0000     -11.264772      -306.5300
  13   1.0000     -11.256658      -306.3092
  14   1.0000     -11.253769      -306.2306
  15   1.0000     -11.246215      -306.0251
  16   1.0000     -11.240002      -305.8560
  17   1.0000     -10.514622      -286.1174
  18   1.0000     -10.511231      -286.0251
  19   1.0000     -10.510248      -285.9984
  20   1.0000      -7.981478      -217.1871
  21   1.0000      -7.980676      -217.1652
  22   1.0000      -7.980637      -217.1642
  23   1.0000      -7.978105      -217.0953
  24   1.0000      -7.977325      -217.0741
  25   1.0000      -7.977258      -217.0722
  26   1.0000      -7.977047      -217.0665
  27   1.0000      -7.976365      -217.0479
  28   1.0000      -7.976307      -217.0463
  29   1.0000      -4.590230      -124.9065
  30   1.0000      -3.203179       -87.1629
  31   1.0000      -3.201859       -87.1270
  32   1.0000      -3.201611       -87.1203
  33   1.0000      -1.441345       -39.2210
  34   1.0000      -1.146091       -31.1867
  35   1.0000      -1.094244       -29.7759
  36   1.0000      -1.060178       -28.8489
  37   1.0000      -1.054550       -28.6958
  38   1.0000      -1.052067       -28.6282
  39   1.0000      -1.030259       -28.0348
  40   1.0000      -1.003535       -27.3076
  41   1.0000      -0.971873       -26.4460
  42   1.0000      -0.935275       -25.4501
  43   1.0000      -0.919347       -25.0167
  44   1.0000      -0.919255       -25.0142
  45   1.0000      -0.910535       -24.7769
  46   1.0000      -0.909190       -24.7403
  47   1.0000      -0.908481       -24.7210
  48   1.0000      -0.802622       -21.8405
  49   1.0000      -0.743861       -20.2415
  50   1.0000      -0.699893       -19.0451
  51   1.0000      -0.692657       -18.8482
  52   1.0000      -0.685686       -18.6585
  53   1.0000      -0.666231       -18.1291
  54   1.0000      -0.633871       -17.2485
  55   1.0000      -0.621338       -16.9075
  56   1.0000      -0.604498       -16.4492
  57   1.0000      -0.597851       -16.2683
  58   1.0000      -0.583363       -15.8741
  59   1.0000      -0.574837       -15.6421
  60   1.0000      -0.564753       -15.3677
  61   1.0000      -0.558285       -15.1917
  62   1.0000      -0.551358       -15.0032
  63   1.0000      -0.548834       -14.9345
  64   1.0000      -0.538368       -14.6497
  65   1.0000      -0.527048       -14.3417
  66   1.0000      -0.507312       -13.8047
  67   1.0000      -0.493066       -13.4170
  68   1.0000      -0.471836       -12.8393
  69   1.0000      -0.468411       -12.7461
  70   1.0000      -0.440205       -11.9786
  71   1.0000      -0.435235       -11.8434
  72   1.0000      -0.433663       -11.8006
  73   1.0000      -0.424896       -11.5620
  74   1.0000      -0.423697       -11.5294
  75   1.0000      -0.422862       -11.5066
  76   1.0000      -0.369080       -10.0432
  77   0.0000       0.011986         0.3262
  78   0.0000       0.022349         0.6081
  79   0.0000       0.023189         0.6310
  80   0.0000       0.030280         0.8240
  81   0.0000       0.038603         1.0504

                 SPIN DOWN ORBITALS
  NO   OCC          E(Eh)            E(eV)
   0   1.0000    -261.563810     -7117.5131
   1   1.0000    -104.786512     -2851.3859
   2   1.0000    -104.783065     -2851.2922
   3   1.0000    -104.782145     -2851.2671
   4   1.0000     -32.073127      -872.7541
   5   1.0000     -27.551055      -749.7023
   6   1.0000     -27.551009      -749.7011
   7   1.0000     -27.550780      -749.6949
   8   1.0000     -20.589415      -560.2665
   9   1.0000     -11.415846      -310.6410
  10   1.0000     -11.298063      -307.4359
  11   1.0000     -11.271126      -306.7029
  12   1.0000     -11.264760      -306.5297
  13   1.0000     -11.256596      -306.3075
  14   1.0000     -11.253776      -306.2308
  15   1.0000     -11.246221      -306.0252
  16   1.0000     -11.240034      -305.8569
  17   1.0000     -10.513086      -286.0756
  18   1.0000     -10.509614      -285.9811
  19   1.0000     -10.508658      -285.9551
  20   1.0000      -7.978980      -217.1191
  21   1.0000      -7.978345      -217.1018
  22   1.0000      -7.978288      -217.1002
  23   1.0000      -7.975504      -217.0245
  24   1.0000      -7.974839      -217.0064
  25   1.0000      -7.974748      -217.0039
  26   1.0000      -7.974642      -217.0010
  27   1.0000      -7.973821      -216.9787
  28   1.0000      -7.973737      -216.9764
  29   1.0000      -4.147984      -112.8724
  30   1.0000      -2.669600       -72.6435
  31   1.0000      -2.669582       -72.6430
  32   1.0000      -2.668952       -72.6259
  33   1.0000      -1.431196       -38.9448
  34   1.0000      -1.145536       -31.1716
  35   1.0000      -1.091651       -29.7053
  36   1.0000      -1.045183       -28.4409
  37   1.0000      -1.032929       -28.1074
  38   1.0000      -1.030543       -28.0425
  39   1.0000      -1.029500       -28.0141
  40   1.0000      -1.002704       -27.2850
  41   1.0000      -0.971762       -26.4430
  42   1.0000      -0.910889       -24.7865
  43   1.0000      -0.815841       -22.2002
  44   1.0000      -0.743949       -20.2439
  45   1.0000      -0.702679       -19.1209
  46   1.0000      -0.692210       -18.8360
  47   1.0000      -0.684422       -18.6241
  48   1.0000      -0.666012       -18.1231
  49   1.0000      -0.633782       -17.2461
  50   1.0000      -0.620840       -16.8939
  51   1.0000      -0.604036       -16.4367
  52   1.0000      -0.597807       -16.2672
  53   1.0000      -0.583110       -15.8672
  54   1.0000      -0.574182       -15.6243
  55   1.0000      -0.564369       -15.3573
  56   1.0000      -0.558165       -15.1884
  57   1.0000      -0.550509       -14.9801
  58   1.0000      -0.546731       -14.8773
  59   1.0000      -0.537268       -14.6198
  60   1.0000      -0.516580       -14.0569
  61   1.0000      -0.507189       -13.8013
  62   1.0000      -0.493108       -13.4182
  63   1.0000      -0.478539       -13.0217
  64   1.0000      -0.476844       -12.9756
  65   1.0000      -0.448100       -12.1934
  66   1.0000      -0.445236       -12.1155
  67   1.0000      -0.442821       -12.0498
  68   1.0000      -0.427153       -11.6234
  69   1.0000      -0.423671       -11.5287
  70   1.0000      -0.408646       -11.1198
  71   1.0000      -0.367683       -10.0052
  72   0.0000       0.011974         0.3258
  73   0.0000       0.022325         0.6075
  74   0.0000       0.023170         0.6305
  75   0.0000       0.030229         0.8226
  76   0.0000       0.038424         1.0456

E(0)                                       ...  -3028.441621205
E(0)                                       ...  -3028.441621205
E(CORR)(strong-pairs)                      ...     -2.872459578
E(CORR)(weak-pairs)                        ...     -0.036092037
E(CORR)(corrected)                         ...     -2.908551616
E(TOT)                                     ...  -3031.350172821
E(CCSD(T))                                 ...  -3031.469482884
FINAL SINGLE POINT ENERGY     -3031.469482883815

DIPOLE MOMENT
-------------
                                X             Y             Z
Electronic contribution:     42.17283       3.64724       1.97988
Nuclear contribution   :    -46.03134      -4.50835      -2.59007
                        -----------------------------------------
Total Dipole Moment    :     -3.85850      -0.86112      -0.61019
                        -----------------------------------------
Magnitude (a.u.)       :      4.00024
Magnitude (Debye)      :     10.16780

Rotational constants in cm-1:     0.019119     0.011147     0.010492
Rotational constants in MHz :   573.158407   334.171327   314.551237

                             ****ORCA TERMINATED NORMALLY****
TOTAL RUN TIME: 0 days 19 hours 1 minutes 29 seconds 597 msec
