                         Program Version 4.1.2  - RELEASE  -
|  1> ! aug-cc-pVTZ aug-cc-pVTZ/C DLPNO-CCSD(T1) TightSCF NormalPNO UNO MiniPrint AutoAux
|  2> %pal nproc 10 end
|  3> %maxcore 20000
|  4> %mdci
|  5>      density none
|  6> end
|  7>
|  8> * xyz 0 6
|  9>  O     -0.32717900     -0.12064800     -0.62146100
| 10>  C     -1.25207900     -1.03682500     -0.54823800
| 11>  C     -3.01998100     -0.09138900      0.07679800
| 12>  C     -2.31163900      1.05913000     -0.18264400
| 13>  C     -2.30005800      1.69300500     -1.53305100
| 14> Fe      1.43513900      0.06821700      0.04166200
| 15> Cl      2.02184100      2.03702800     -0.73772400
| 16>  C     -1.56761600      1.80109100      0.87655900
| 17> Cl      2.50098000     -1.67819300     -0.76380000
| 18> Cl      1.32269800      0.01858400      2.25143900
| 19>  H     -3.66740100     -0.44628300     -0.72182900
| 20>  H     -2.26446700      2.52983300      1.31799100
| 21>  H     -1.20385500      1.16305500      1.68221300
| 22>  H     -0.72576700      2.35734500      0.45721100
| 23>  H     -2.65233700      2.72791200     -1.42914400
| 24>  H     -1.27140400      1.74564600     -1.90687300
| 25>  H     -2.94031900      1.18256400     -2.25502900
| 26>  C     -3.43433900     -0.52493500      1.46321800
| 27>  H     -4.33229100      0.03106000      1.76221600
| 28>  H     -3.69066500     -1.58697800      1.49074500
| 29>  H     -2.66787700     -0.33967100      2.21846900
| 30>  C     -1.10140100     -2.07070500      0.54041900
| 31>  H     -1.95791800     -2.74242500      0.60922100
| 32>  H     -0.22049000     -2.66259500      0.25262100
| 33>  H     -0.88224900     -1.62000300      1.50850600
| 34>  C     -1.71645900     -1.56728900     -1.88754100
| 35>  H     -0.87311700     -2.15124800     -2.28008600
| 36>  H     -2.58629100     -2.22222000     -1.80211100
| 37>  H     -1.91212100     -0.76308500     -2.59730500
| 38> *
| 39>
| 40>
| 41>                          ****END OF INPUT****

CARTESIAN COORDINATES (ANGSTROEM)
---------------------------------
  O     -0.327179   -0.120648   -0.621461
  C     -1.252079   -1.036825   -0.548238
  C     -3.019981   -0.091389    0.076798
  C     -2.311639    1.059130   -0.182644
  C     -2.300058    1.693005   -1.533051
  Fe     1.435139    0.068217    0.041662
  Cl     2.021841    2.037028   -0.737724
  C     -1.567616    1.801091    0.876559
  Cl     2.500980   -1.678193   -0.763800
  Cl     1.322698    0.018584    2.251439
  H     -3.667401   -0.446283   -0.721829
  H     -2.264467    2.529833    1.317991
  H     -1.203855    1.163055    1.682213
  H     -0.725767    2.357345    0.457211
  H     -2.652337    2.727912   -1.429144
  H     -1.271404    1.745646   -1.906873
  H     -2.940319    1.182564   -2.255029
  C     -3.434339   -0.524935    1.463218
  H     -4.332291    0.031060    1.762216
  H     -3.690665   -1.586978    1.490745
  H     -2.667877   -0.339671    2.218469
  C     -1.101401   -2.070705    0.540419
  H     -1.957918   -2.742425    0.609221
  H     -0.220490   -2.662595    0.252621
  H     -0.882249   -1.620003    1.508506
  C     -1.716459   -1.567289   -1.887541
  H     -0.873117   -2.151248   -2.280086
  H     -2.586291   -2.222220   -1.802111
  H     -1.912121   -0.763085   -2.597305

ORBITAL ENERGIES
----------------
                 SPIN UP ORBITALS
  NO   OCC          E(Eh)            E(eV)
   0   1.0000    -261.557774     -7117.3489
   1   1.0000    -104.781076     -2851.2380
   2   1.0000    -104.778898     -2851.1788
   3   1.0000    -104.778592     -2851.1704
   4   1.0000     -32.225637      -876.9042
   5   1.0000     -27.701735      -753.8025
   6   1.0000     -27.701211      -753.7883
   7   1.0000     -27.701033      -753.7834
   8   1.0000     -20.567716      -559.6760
   9   1.0000     -11.403222      -310.2974
  10   1.0000     -11.335290      -308.4489
  11   1.0000     -11.270462      -306.6849
  12   1.0000     -11.263117      -306.4850
  13   1.0000     -11.262405      -306.4656
  14   1.0000     -11.257201      -306.3240
  15   1.0000     -11.256658      -306.3092
  16   1.0000     -11.254067      -306.2387
  17   1.0000     -10.507700      -285.9291
  18   1.0000     -10.505454      -285.8679
  19   1.0000     -10.505175      -285.8603
  20   1.0000      -7.974575      -216.9992
  21   1.0000      -7.973748      -216.9767
  22   1.0000      -7.973708      -216.9756
  23   1.0000      -7.972263      -216.9363
  24   1.0000      -7.972029      -216.9299
  25   1.0000      -7.971563      -216.9172
  26   1.0000      -7.971483      -216.9151
  27   1.0000      -7.971274      -216.9094
  28   1.0000      -7.971191      -216.9071
  29   1.0000      -4.580959      -124.6542
  30   1.0000      -3.193775       -86.9070
  31   1.0000      -3.192833       -86.8814
  32   1.0000      -3.192421       -86.8702
  33   1.0000      -1.417540       -38.5732
  34   1.0000      -1.164505       -31.6878
  35   1.0000      -1.088481       -29.6191
  36   1.0000      -1.052900       -28.6509
  37   1.0000      -1.047485       -28.5035
  38   1.0000      -1.045464       -28.4485
  39   1.0000      -1.038487       -28.2587
  40   1.0000      -0.997581       -27.1456
  41   1.0000      -0.984343       -26.7853
  42   1.0000      -0.930366       -25.3165
  43   1.0000      -0.919767       -25.0281
  44   1.0000      -0.910426       -24.7739
  45   1.0000      -0.910300       -24.7705
  46   1.0000      -0.900839       -24.5131
  47   1.0000      -0.900648       -24.5079
  48   1.0000      -0.791793       -21.5458
  49   1.0000      -0.756884       -20.5959
  50   1.0000      -0.695625       -18.9289
  51   1.0000      -0.691345       -18.8125
  52   1.0000      -0.681817       -18.5532
  53   1.0000      -0.664380       -18.0787
  54   1.0000      -0.643751       -17.5173
  55   1.0000      -0.621601       -16.9146
  56   1.0000      -0.602509       -16.3951
  57   1.0000      -0.595898       -16.2152
  58   1.0000      -0.584631       -15.9086
  59   1.0000      -0.575885       -15.6706
  60   1.0000      -0.573984       -15.6189
  61   1.0000      -0.564911       -15.3720
  62   1.0000      -0.553814       -15.0701
  63   1.0000      -0.550686       -14.9849
  64   1.0000      -0.542288       -14.7564
  65   1.0000      -0.521810       -14.1992
  66   1.0000      -0.516932       -14.0664
  67   1.0000      -0.483686       -13.1618
  68   1.0000      -0.466922       -12.7056
  69   1.0000      -0.458502       -12.4765
  70   1.0000      -0.434129       -11.8132
  71   1.0000      -0.429604       -11.6901
  72   1.0000      -0.428037       -11.6475
  73   1.0000      -0.419801       -11.4234
  74   1.0000      -0.418169       -11.3790
  75   1.0000      -0.417540       -11.3618
  76   1.0000      -0.379197       -10.3185
  77   0.0000       0.010461         0.2846
  78   0.0000       0.020955         0.5702
  79   0.0000       0.022340         0.6079
  80   0.0000       0.030181         0.8213
  81   0.0000       0.038145         1.0380

                 SPIN DOWN ORBITALS
  NO   OCC          E(Eh)            E(eV)
   0   1.0000    -261.554224     -7117.2523
   1   1.0000    -104.779675     -2851.1999
   2   1.0000    -104.777487     -2851.1404
   3   1.0000    -104.777131     -2851.1307
   4   1.0000     -32.063587      -872.4946
   5   1.0000     -27.541580      -749.4445
   6   1.0000     -27.541483      -749.4419
   7   1.0000     -27.541125      -749.4321
   8   1.0000     -20.562936      -559.5459
   9   1.0000     -11.403146      -310.2954
  10   1.0000     -11.335230      -308.4473
  11   1.0000     -11.270231      -306.6786
  12   1.0000     -11.263012      -306.4821
  13   1.0000     -11.262405      -306.4656
  14   1.0000     -11.257174      -306.3233
  15   1.0000     -11.256683      -306.3099
  16   1.0000     -11.254097      -306.2395
  17   1.0000     -10.506196      -285.8881
  18   1.0000     -10.503947      -285.8269
  19   1.0000     -10.503611      -285.8178
  20   1.0000      -7.972081      -216.9314
  21   1.0000      -7.971505      -216.9157
  22   1.0000      -7.971433      -216.9137
  23   1.0000      -7.969925      -216.8727
  24   1.0000      -7.969525      -216.8618
  25   1.0000      -7.969197      -216.8529
  26   1.0000      -7.969104      -216.8504
  27   1.0000      -7.968864      -216.8438
  28   1.0000      -7.968775      -216.8414
  29   1.0000      -4.138664      -112.6188
  30   1.0000      -2.660358       -72.3920
  31   1.0000      -2.660315       -72.3908
  32   1.0000      -2.659717       -72.3746
  33   1.0000      -1.405382       -38.2424
  34   1.0000      -1.163553       -31.6619
  35   1.0000      -1.085766       -29.5452
  36   1.0000      -1.038307       -28.2538
  37   1.0000      -1.037877       -28.2421
  38   1.0000      -1.026497       -27.9324
  39   1.0000      -1.024735       -27.8845
  40   1.0000      -0.996852       -27.1257
  41   1.0000      -0.984171       -26.7806
  42   1.0000      -0.924295       -25.1514
  43   1.0000      -0.805563       -21.9205
  44   1.0000      -0.757143       -20.6029
  45   1.0000      -0.695354       -18.9216
  46   1.0000      -0.692900       -18.8548
  47   1.0000      -0.682385       -18.5686
  48   1.0000      -0.663482       -18.0543
  49   1.0000      -0.643634       -17.5142
  50   1.0000      -0.621440       -16.9103
  51   1.0000      -0.601679       -16.3725
  52   1.0000      -0.595822       -16.2131
  53   1.0000      -0.584525       -15.9057
  54   1.0000      -0.575633       -15.6638
  55   1.0000      -0.573751       -15.6126
  56   1.0000      -0.564765       -15.3680
  57   1.0000      -0.553274       -15.0553
  58   1.0000      -0.550297       -14.9743
  59   1.0000      -0.537615       -14.6292
  60   1.0000      -0.521484       -14.1903
  61   1.0000      -0.508940       -13.8489
  62   1.0000      -0.481457       -13.1011
  63   1.0000      -0.471260       -12.8236
  64   1.0000      -0.468957       -12.7610
  65   1.0000      -0.442036       -12.0284
  66   1.0000      -0.439008       -11.9460
  67   1.0000      -0.437268       -11.8987
  68   1.0000      -0.423938       -11.5359
  69   1.0000      -0.417451       -11.3594
  70   1.0000      -0.403816       -10.9884
  71   1.0000      -0.376929       -10.2568
  72   0.0000       0.010458         0.2846
  73   0.0000       0.020926         0.5694
  74   0.0000       0.022318         0.6073
  75   0.0000       0.030201         0.8218
  76   0.0000       0.037967         1.0331

E(0)                                       ...  -3028.426579673
E(0)                                       ...  -3028.426579673
E(CORR)(strong-pairs)                      ...     -2.872822089
E(CORR)(weak-pairs)                        ...     -0.036105660
E(CORR)(corrected)                         ...     -2.908927749
E(TOT)                                     ...  -3031.335507421
E(CCSD(T))                                 ...  -3031.455241777
FINAL SINGLE POINT ENERGY     -3031.455241776920

DIPOLE MOMENT
-------------
                                X             Y             Z
Electronic contribution:     41.63745       3.12436       2.29870
Nuclear contribution   :    -45.96760      -3.46866      -2.82821
                        -----------------------------------------
Total Dipole Moment    :     -4.33015      -0.34430      -0.52951
                        -----------------------------------------
Magnitude (a.u.)       :      4.37597
Magnitude (Debye)      :     11.12284

Rotational constants in cm-1:     0.019343     0.011292     0.010561
Rotational constants in MHz :   579.892029   338.523961   316.597059

                             ****ORCA TERMINATED NORMALLY****
TOTAL RUN TIME: 0 days 20 hours 24 minutes 42 seconds 710 msec
