                         Program Version 4.1.2  - RELEASE  -
|  1> ! aug-cc-pVTZ aug-cc-pVTZ/C DLPNO-CCSD(T1) TightSCF NormalPNO UNO MiniPrint AutoAux
|  2> %pal nproc 10 end
|  3> %maxcore 20000
|  4> %mdci
|  5>      density none
|  6> end
|  7>
|  8> * xyz 0 6
|  9>  O     -0.27570400     -0.23978500     -0.78282700
| 10>  C     -1.09770800     -1.18819300     -0.64238500
| 11>  C     -3.10831400     -0.06193000      0.32663100
| 12>  C     -2.47545400      1.01452800     -0.19305800
| 13>  C     -2.68767100      1.44669800     -1.61502900
| 14> Fe      1.46066500      0.11498700      0.03804800
| 15> Cl      2.10190700      1.99410900     -0.86013500
| 16>  C     -1.58616700      1.92302200      0.60055600
| 17> Cl      2.57870400     -1.67032600     -0.56829200
| 18> Cl      1.20087500      0.20791200      2.21952900
| 19>  H     -3.80741400     -0.58948300     -0.32091000
| 20>  H     -2.13664500      2.84569700      0.83184200
| 21>  H     -1.24163600      1.49427100      1.54112300
| 22>  H     -0.71214300      2.22415000      0.01309900
| 23>  H     -3.03494700      2.48762700     -1.63300700
| 24>  H     -1.73923100      1.42675700     -2.16674500
| 25>  H     -3.42841600      0.83559400     -2.13758200
| 26>  C     -3.18423600     -0.42516800      1.78592400
| 27>  H     -4.05387200      0.06435500      2.24496700
| 28>  H     -3.31845900     -1.50163300      1.92934200
| 29>  H     -2.30183000     -0.11478600      2.35098400
| 30>  C     -0.96712300     -2.13604000      0.51070700
| 31>  H     -1.85295800     -2.75847900      0.63849500
| 32>  H     -0.11705600     -2.78879400      0.26041900
| 33>  H     -0.71574100     -1.62082900      1.43769600
| 34>  C     -1.80547200     -1.67914900     -1.87271200
| 35>  H     -1.10966900     -2.38842300     -2.34493400
| 36>  H     -2.72709000     -2.21454600     -1.64117900
| 37>  H     -1.98693400     -0.87428200     -2.58276900
| 38> *
| 39>
| 40>
| 41>                          ****END OF INPUT****

CARTESIAN COORDINATES (ANGSTROEM)
---------------------------------
  O     -0.275704   -0.239785   -0.782827
  C     -1.097708   -1.188193   -0.642385
  C     -3.108314   -0.061930    0.326631
  C     -2.475454    1.014528   -0.193058
  C     -2.687671    1.446698   -1.615029
  Fe     1.460665    0.114987    0.038048
  Cl     2.101907    1.994109   -0.860135
  C     -1.586167    1.923022    0.600556
  Cl     2.578704   -1.670326   -0.568292
  Cl     1.200875    0.207912    2.219529
  H     -3.807414   -0.589483   -0.320910
  H     -2.136645    2.845697    0.831842
  H     -1.241636    1.494271    1.541123
  H     -0.712143    2.224150    0.013099
  H     -3.034947    2.487627   -1.633007
  H     -1.739231    1.426757   -2.166745
  H     -3.428416    0.835594   -2.137582
  C     -3.184236   -0.425168    1.785924
  H     -4.053872    0.064355    2.244967
  H     -3.318459   -1.501633    1.929342
  H     -2.301830   -0.114786    2.350984
  C     -0.967123   -2.136040    0.510707
  H     -1.852958   -2.758479    0.638495
  H     -0.117056   -2.788794    0.260419
  H     -0.715741   -1.620829    1.437696
  C     -1.805472   -1.679149   -1.872712
  H     -1.109669   -2.388423   -2.344934
  H     -2.727090   -2.214546   -1.641179
  H     -1.986934   -0.874282   -2.582769

ORBITAL ENERGIES
----------------
                 SPIN UP ORBITALS
  NO   OCC          E(Eh)            E(eV)
   0   1.0000    -261.573071     -7117.7651
   1   1.0000    -104.791437     -2851.5200
   2   1.0000    -104.788684     -2851.4451
   3   1.0000    -104.787330     -2851.4082
   4   1.0000     -32.240797      -877.3167
   5   1.0000     -27.717210      -754.2236
   6   1.0000     -27.716176      -754.1955
   7   1.0000     -27.716009      -754.1910
   8   1.0000     -20.608692      -560.7910
   9   1.0000     -11.421132      -310.7848
  10   1.0000     -11.278039      -306.8910
  11   1.0000     -11.275817      -306.8306
  12   1.0000     -11.269764      -306.6659
  13   1.0000     -11.247901      -306.0710
  14   1.0000     -11.244929      -305.9901
  15   1.0000     -11.242908      -305.9351
  16   1.0000     -11.233530      -305.6799
  17   1.0000     -10.518138      -286.2131
  18   1.0000     -10.515351      -286.1372
  19   1.0000     -10.513947      -286.0990
  20   1.0000      -7.984977      -217.2823
  21   1.0000      -7.984211      -217.2614
  22   1.0000      -7.984163      -217.2601
  23   1.0000      -7.982237      -217.2077
  24   1.0000      -7.981444      -217.1861
  25   1.0000      -7.981376      -217.1843
  26   1.0000      -7.980737      -217.1669
  27   1.0000      -7.980069      -217.1487
  28   1.0000      -7.980018      -217.1473
  29   1.0000      -4.595739      -125.0564
  30   1.0000      -3.208825       -87.3166
  31   1.0000      -3.207212       -87.2727
  32   1.0000      -3.207040       -87.2680
  33   1.0000      -1.456616       -39.6365
  34   1.0000      -1.133862       -30.8540
  35   1.0000      -1.099205       -29.9109
  36   1.0000      -1.064413       -28.9642
  37   1.0000      -1.058815       -28.8118
  38   1.0000      -1.056347       -28.7447
  39   1.0000      -1.024577       -27.8801
  40   1.0000      -1.009314       -27.4648
  41   1.0000      -0.963293       -26.2125
  42   1.0000      -0.940338       -25.5879
  43   1.0000      -0.924744       -25.1636
  44   1.0000      -0.924636       -25.1606
  45   1.0000      -0.914070       -24.8731
  46   1.0000      -0.913656       -24.8618
  47   1.0000      -0.902232       -24.5510
  48   1.0000      -0.809805       -22.0359
  49   1.0000      -0.734753       -19.9937
  50   1.0000      -0.708041       -19.2668
  51   1.0000      -0.699343       -19.0301
  52   1.0000      -0.687658       -18.7121
  53   1.0000      -0.659902       -17.9568
  54   1.0000      -0.626313       -17.0428
  55   1.0000      -0.621240       -16.9048
  56   1.0000      -0.603776       -16.4296
  57   1.0000      -0.599993       -16.3266
  58   1.0000      -0.584981       -15.9181
  59   1.0000      -0.578110       -15.7312
  60   1.0000      -0.561003       -15.2657
  61   1.0000      -0.555252       -15.1092
  62   1.0000      -0.551929       -15.0188
  63   1.0000      -0.543053       -14.7772
  64   1.0000      -0.534203       -14.5364
  65   1.0000      -0.528920       -14.3926
  66   1.0000      -0.500067       -13.6075
  67   1.0000      -0.498102       -13.5541
  68   1.0000      -0.475529       -12.9398
  69   1.0000      -0.473312       -12.8795
  70   1.0000      -0.444527       -12.0962
  71   1.0000      -0.438670       -11.9368
  72   1.0000      -0.437136       -11.8951
  73   1.0000      -0.428465       -11.6591
  74   1.0000      -0.427190       -11.6244
  75   1.0000      -0.426461       -11.6046
  76   1.0000      -0.362460        -9.8630
  77   0.0000       0.012629         0.3437
  78   0.0000       0.023380         0.6362
  79   0.0000       0.023883         0.6499
  80   0.0000       0.030503         0.8300
  81   0.0000       0.039255         1.0682

                 SPIN DOWN ORBITALS
  NO   OCC          E(Eh)            E(eV)
   0   1.0000    -261.569498     -7117.6679
   1   1.0000    -104.789963     -2851.4798
   2   1.0000    -104.787151     -2851.4033
   3   1.0000    -104.785798     -2851.3665
   4   1.0000     -32.078792      -872.9083
   5   1.0000     -27.556710      -749.8562
   6   1.0000     -27.556653      -749.8547
   7   1.0000     -27.556500      -749.8505
   8   1.0000     -20.605036      -560.6915
   9   1.0000     -11.421018      -310.7817
  10   1.0000     -11.278068      -306.8918
  11   1.0000     -11.275709      -306.8276
  12   1.0000     -11.269758      -306.6657
  13   1.0000     -11.247798      -306.0682
  14   1.0000     -11.244922      -305.9899
  15   1.0000     -11.242919      -305.9354
  16   1.0000     -11.233545      -305.6803
  17   1.0000     -10.516561      -286.1702
  18   1.0000     -10.513713      -286.0927
  19   1.0000     -10.512318      -286.0547
  20   1.0000      -7.982473      -217.2141
  21   1.0000      -7.981767      -217.1949
  22   1.0000      -7.981717      -217.1936
  23   1.0000      -7.979586      -217.1356
  24   1.0000      -7.978931      -217.1178
  25   1.0000      -7.978835      -217.1151
  26   1.0000      -7.978307      -217.1008
  27   1.0000      -7.977439      -217.0772
  28   1.0000      -7.977358      -217.0749
  29   1.0000      -4.153585      -113.0248
  30   1.0000      -2.675152       -72.7946
  31   1.0000      -2.675117       -72.7936
  32   1.0000      -2.674632       -72.7804
  33   1.0000      -1.447509       -39.3887
  34   1.0000      -1.133483       -30.8436
  35   1.0000      -1.096787       -29.8451
  36   1.0000      -1.049028       -28.5455
  37   1.0000      -1.036586       -28.2069
  38   1.0000      -1.034049       -28.1379
  39   1.0000      -1.024093       -27.8670
  40   1.0000      -1.008580       -27.4448
  41   1.0000      -0.963156       -26.2088
  42   1.0000      -0.902507       -24.5585
  43   1.0000      -0.822726       -22.3875
  44   1.0000      -0.734815       -19.9953
  45   1.0000      -0.710488       -19.3334
  46   1.0000      -0.698534       -19.0081
  47   1.0000      -0.686771       -18.6880
  48   1.0000      -0.659824       -17.9547
  49   1.0000      -0.626214       -17.0401
  50   1.0000      -0.620740       -16.8912
  51   1.0000      -0.603487       -16.4217
  52   1.0000      -0.599943       -16.3253
  53   1.0000      -0.584697       -15.9104
  54   1.0000      -0.577357       -15.7107
  55   1.0000      -0.560228       -15.2446
  56   1.0000      -0.555146       -15.1063
  57   1.0000      -0.549540       -14.9538
  58   1.0000      -0.543044       -14.7770
  59   1.0000      -0.531385       -14.4597
  60   1.0000      -0.520397       -14.1607
  61   1.0000      -0.500923       -13.6308
  62   1.0000      -0.498012       -13.5516
  63   1.0000      -0.482875       -13.1397
  64   1.0000      -0.480974       -13.0880
  65   1.0000      -0.451884       -12.2964
  66   1.0000      -0.448876       -12.2145
  67   1.0000      -0.446214       -12.1421
  68   1.0000      -0.430031       -11.7017
  69   1.0000      -0.427530       -11.6337
  70   1.0000      -0.411797       -11.2056
  71   1.0000      -0.361576        -9.8390
  72   0.0000       0.012615         0.3433
  73   0.0000       0.023354         0.6355
  74   0.0000       0.023858         0.6492
  75   0.0000       0.030454         0.8287
  76   0.0000       0.039140         1.0650

E(0)                                       ...  -3028.453163976
E(0)                                       ...  -3028.453163976
E(CORR)(strong-pairs)                      ...     -2.869882960
E(CORR)(weak-pairs)                        ...     -0.036003767
E(CORR)(corrected)                         ...     -2.905886726
E(TOT)                                     ...  -3031.359050702
E(CCSD(T))                                 ...  -3031.477607865
FINAL SINGLE POINT ENERGY     -3031.477607864921

DIPOLE MOMENT
-------------
                                X             Y             Z
Electronic contribution:     43.00136       3.38185       2.12974
Nuclear contribution   :    -46.53009      -4.50662      -2.76424
                        -----------------------------------------
Total Dipole Moment    :     -3.52873      -1.12477      -0.63450
                        -----------------------------------------
Magnitude (a.u.)       :      3.75761
Magnitude (Debye)      :      9.55108

Rotational constants in cm-1:     0.019055     0.010949     0.010318
Rotational constants in MHz :   571.263146   328.237290   309.319177

                             ****ORCA TERMINATED NORMALLY****
TOTAL RUN TIME: 0 days 18 hours 17 minutes 16 seconds 447 msec
