                         Program Version 4.1.2  - RELEASE  -
|  1> ! aug-cc-pVTZ aug-cc-pVTZ/C DLPNO-CCSD(T1) TightSCF NormalPNO UNO MiniPrint AutoAux
|  2> %pal nproc 10 end
|  3> %maxcore 20000
|  4> %mdci
|  5>      density none
|  6> end
|  7>
|  8> * xyz 0 6
|  9>  O      0.23962100      0.31981000     -0.84170300
| 10>  C      1.03666300      1.27590000     -0.66209600
| 11>  C      3.05233300      0.10447600      0.48892300
| 12>  C      2.57774000     -0.96796900     -0.18040000
| 13>  C      2.99097100     -1.26176500     -1.59552300
| 14> Fe     -1.46499400     -0.14495600      0.01846700
| 15> Cl     -2.08084100     -1.99228300     -0.95289900
| 16>  C      1.65516900     -1.98902400      0.41445600
| 17> Cl     -2.66051900      1.62655000     -0.45797300
| 18> Cl     -1.11534400     -0.33942800      2.17904400
| 19>  H      3.77827800      0.73276400     -0.02700300
| 20>  H      2.18297900     -2.94803600      0.50688600
| 21>  H      1.27143300     -1.71795900      1.39728300
| 22>  H      0.80362400     -2.17307000     -0.25186100
| 23>  H      3.45565100     -2.25484000     -1.64771600
| 24>  H      2.11442600     -1.29702700     -2.25595000
| 25>  H      3.70831100     -0.53435200     -1.98531700
| 26>  C      2.90251600      0.36943200      1.96417100
| 27>  H      3.71466600     -0.12202400      2.51694500
| 28>  H      2.97221200      1.43776300      2.19020500
| 29>  H      1.95883900     -0.00129800      2.37214800
| 30>  C      0.86761100      2.20650700      0.49871100
| 31>  H      1.75433500      2.81778400      0.66942600
| 32>  H      0.03260100      2.87069500      0.22911800
| 33>  H      0.57970300      1.67826800      1.40751100
| 34>  C      1.82557800      1.76015400     -1.84269500
| 35>  H      1.20021800      2.52743900     -2.32273000
| 36>  H      2.76535100      2.23097100     -1.55126300
| 37>  H      1.99273500      0.96475000     -2.56642000
| 38> *
| 39>
| 40>
| 41>                          ****END OF INPUT****

CARTESIAN COORDINATES (ANGSTROEM)
---------------------------------
  O      0.239621    0.319810   -0.841703
  C      1.036663    1.275900   -0.662096
  C      3.052333    0.104476    0.488923
  C      2.577740   -0.967969   -0.180400
  C      2.990971   -1.261765   -1.595523
  Fe    -1.464994   -0.144956    0.018467
  Cl    -2.080841   -1.992283   -0.952899
  C      1.655169   -1.989024    0.414456
  Cl    -2.660519    1.626550   -0.457973
  Cl    -1.115344   -0.339428    2.179044
  H      3.778278    0.732764   -0.027003
  H      2.182979   -2.948036    0.506886
  H      1.271433   -1.717959    1.397283
  H      0.803624   -2.173070   -0.251861
  H      3.455651   -2.254840   -1.647716
  H      2.114426   -1.297027   -2.255950
  H      3.708311   -0.534352   -1.985317
  C      2.902516    0.369432    1.964171
  H      3.714666   -0.122024    2.516945
  H      2.972212    1.437763    2.190205
  H      1.958839   -0.001298    2.372148
  C      0.867611    2.206507    0.498711
  H      1.754335    2.817784    0.669426
  H      0.032601    2.870695    0.229118
  H      0.579703    1.678268    1.407511
  C      1.825578    1.760154   -1.842695
  H      1.200218    2.527439   -2.322730
  H      2.765351    2.230971   -1.551263
  H      1.992735    0.964750   -2.566420

ORBITAL ENERGIES
----------------
                 SPIN UP ORBITALS
  NO   OCC          E(Eh)            E(eV)
   0   1.0000    -261.575230     -7117.8239
   1   1.0000    -104.793347     -2851.5719
   2   1.0000    -104.790222     -2851.4869
   3   1.0000    -104.788431     -2851.4382
   4   1.0000     -32.242938      -877.3749
   5   1.0000     -27.719394      -754.2831
   6   1.0000     -27.718291      -754.2530
   7   1.0000     -27.718109      -754.2481
   8   1.0000     -20.616745      -561.0101
   9   1.0000     -11.421551      -310.7962
  10   1.0000     -11.277158      -306.8671
  11   1.0000     -11.271260      -306.7066
  12   1.0000     -11.270217      -306.6782
  13   1.0000     -11.244820      -305.9871
  14   1.0000     -11.243786      -305.9590
  15   1.0000     -11.238211      -305.8073
  16   1.0000     -11.230171      -305.5885
  17   1.0000     -10.520060      -286.2654
  18   1.0000     -10.516910      -286.1797
  19   1.0000     -10.515068      -286.1295
  20   1.0000      -7.986894      -217.3344
  21   1.0000      -7.986137      -217.3138
  22   1.0000      -7.986085      -217.3124
  23   1.0000      -7.983794      -217.2501
  24   1.0000      -7.983003      -217.2286
  25   1.0000      -7.982947      -217.2270
  26   1.0000      -7.981856      -217.1973
  27   1.0000      -7.981194      -217.1793
  28   1.0000      -7.981147      -217.1781
  29   1.0000      -4.597810      -125.1128
  30   1.0000      -3.210923       -87.3736
  31   1.0000      -3.209230       -87.3276
  32   1.0000      -3.209085       -87.3236
  33   1.0000      -1.461973       -39.7823
  34   1.0000      -1.128518       -30.7085
  35   1.0000      -1.100579       -29.9483
  36   1.0000      -1.066410       -29.0185
  37   1.0000      -1.060668       -28.8622
  38   1.0000      -1.057919       -28.7875
  39   1.0000      -1.022495       -27.8235
  40   1.0000      -1.009197       -27.4616
  41   1.0000      -0.959806       -26.1176
  42   1.0000      -0.942108       -25.6361
  43   1.0000      -0.926731       -25.2176
  44   1.0000      -0.926629       -25.2149
  45   1.0000      -0.915999       -24.9256
  46   1.0000      -0.915361       -24.9082
  47   1.0000      -0.897923       -24.4337
  48   1.0000      -0.812752       -22.1161
  49   1.0000      -0.730902       -19.8889
  50   1.0000      -0.711105       -19.3501
  51   1.0000      -0.701420       -19.0866
  52   1.0000      -0.685671       -18.6581
  53   1.0000      -0.656508       -17.8645
  54   1.0000      -0.622587       -16.9414
  55   1.0000      -0.621671       -16.9165
  56   1.0000      -0.604304       -16.4440
  57   1.0000      -0.599469       -16.3124
  58   1.0000      -0.585767       -15.9395
  59   1.0000      -0.578317       -15.7368
  60   1.0000      -0.560832       -15.2610
  61   1.0000      -0.551952       -15.0194
  62   1.0000      -0.548507       -14.9256
  63   1.0000      -0.541333       -14.7304
  64   1.0000      -0.535707       -14.5773
  65   1.0000      -0.526995       -14.3403
  66   1.0000      -0.502547       -13.6750
  67   1.0000      -0.494392       -13.4531
  68   1.0000      -0.476551       -12.9676
  69   1.0000      -0.475681       -12.9439
  70   1.0000      -0.446243       -12.1429
  71   1.0000      -0.440267       -11.9803
  72   1.0000      -0.438479       -11.9316
  73   1.0000      -0.429805       -11.6956
  74   1.0000      -0.428823       -11.6689
  75   1.0000      -0.427621       -11.6362
  76   1.0000      -0.360215        -9.8019
  77   0.0000       0.012660         0.3445
  78   0.0000       0.023544         0.6407
  79   0.0000       0.024190         0.6582
  80   0.0000       0.030603         0.8328
  81   0.0000       0.039300         1.0694

                 SPIN DOWN ORBITALS
  NO   OCC          E(Eh)            E(eV)
   0   1.0000    -261.571653     -7117.7265
   1   1.0000    -104.791867     -2851.5317
   2   1.0000    -104.788672     -2851.4447
   3   1.0000    -104.786876     -2851.3959
   4   1.0000     -32.080944      -872.9669
   5   1.0000     -27.558862      -749.9147
   6   1.0000     -27.558792      -749.9129
   7   1.0000     -27.558677      -749.9097
   8   1.0000     -20.613205      -560.9138
   9   1.0000     -11.421467      -310.7939
  10   1.0000     -11.277050      -306.8641
  11   1.0000     -11.271253      -306.7064
  12   1.0000     -11.270245      -306.6790
  13   1.0000     -11.244752      -305.9853
  14   1.0000     -11.243782      -305.9589
  15   1.0000     -11.238217      -305.8074
  16   1.0000     -11.230184      -305.5888
  17   1.0000     -10.518479      -286.2224
  18   1.0000     -10.515255      -286.1346
  19   1.0000     -10.513416      -286.0846
  20   1.0000      -7.984396      -217.2665
  21   1.0000      -7.983670      -217.2467
  22   1.0000      -7.983628      -217.2456
  23   1.0000      -7.981130      -217.1776
  24   1.0000      -7.980457      -217.1593
  25   1.0000      -7.980364      -217.1568
  26   1.0000      -7.979407      -217.1307
  27   1.0000      -7.978517      -217.1065
  28   1.0000      -7.978436      -217.1043
  29   1.0000      -4.155706      -113.0825
  30   1.0000      -2.677262       -72.8520
  31   1.0000      -2.677230       -72.8511
  32   1.0000      -2.676752       -72.8381
  33   1.0000      -1.453253       -39.5450
  34   1.0000      -1.128191       -30.6996
  35   1.0000      -1.098239       -29.8846
  36   1.0000      -1.050875       -28.5958
  37   1.0000      -1.038354       -28.2550
  38   1.0000      -1.035289       -28.1717
  39   1.0000      -1.021834       -27.8055
  40   1.0000      -1.008637       -27.4464
  41   1.0000      -0.959676       -26.1141
  42   1.0000      -0.898091       -24.4383
  43   1.0000      -0.825480       -22.4624
  44   1.0000      -0.730972       -19.8908
  45   1.0000      -0.713213       -19.4075
  46   1.0000      -0.700560       -19.0632
  47   1.0000      -0.684997       -18.6397
  48   1.0000      -0.656436       -17.8625
  49   1.0000      -0.622535       -16.9400
  50   1.0000      -0.621113       -16.9014
  51   1.0000      -0.604031       -16.4365
  52   1.0000      -0.599389       -16.3102
  53   1.0000      -0.585515       -15.9327
  54   1.0000      -0.577132       -15.7046
  55   1.0000      -0.559939       -15.2367
  56   1.0000      -0.551836       -15.0162
  57   1.0000      -0.546518       -14.8715
  58   1.0000      -0.541290       -14.7293
  59   1.0000      -0.528337       -14.3768
  60   1.0000      -0.522755       -14.2249
  61   1.0000      -0.504060       -13.7162
  62   1.0000      -0.494196       -13.4478
  63   1.0000      -0.484791       -13.1918
  64   1.0000      -0.482435       -13.1277
  65   1.0000      -0.453490       -12.3401
  66   1.0000      -0.450507       -12.2589
  67   1.0000      -0.447595       -12.1797
  68   1.0000      -0.431257       -11.7351
  69   1.0000      -0.428908       -11.6712
  70   1.0000      -0.413081       -11.2405
  71   1.0000      -0.359548        -9.7838
  72   0.0000       0.012644         0.3441
  73   0.0000       0.023521         0.6400
  74   0.0000       0.024156         0.6573
  75   0.0000       0.030535         0.8309
  76   0.0000       0.039187         1.0663

E(0)                                       ...  -3028.461176928
E(0)                                       ...  -3028.461176928
E(CORR)(strong-pairs)                      ...     -2.868638628
E(CORR)(weak-pairs)                        ...     -0.035749128
E(CORR)(corrected)                         ...     -2.904387756
E(TOT)                                     ...  -3031.365564683
E(CCSD(T))                                 ...  -3031.483788182
FINAL SINGLE POINT ENERGY     -3031.483788182144

DIPOLE MOMENT
-------------
                                X             Y             Z
Electronic contribution:    -43.13977      -4.23548       1.77391
Nuclear contribution   :     46.51261       5.56951      -2.41042
                        -----------------------------------------
Total Dipole Moment    :      3.37285       1.33403      -0.63651
                        -----------------------------------------
Magnitude (a.u.)       :      3.68251
Magnitude (Debye)      :      9.36019

Rotational constants in cm-1:     0.018887     0.010873     0.010242
Rotational constants in MHz :   566.224486   325.962272   307.060005

                             ****ORCA TERMINATED NORMALLY****
TOTAL RUN TIME: 0 days 18 hours 10 minutes 12 seconds 118 msec
