                         Program Version 4.1.2  - RELEASE  -
|  1> ! aug-cc-pVTZ aug-cc-pVTZ/C DLPNO-CCSD(T1) TightSCF NormalPNO UNO MiniPrint AutoAux
|  2> %pal nproc 10 end
|  3> %maxcore 20000
|  4> %mdci
|  5>      density none
|  6> end
|  7>
|  8> * xyz 0 6
|  9>  O     -0.30162800     -0.20327500     -0.72313100
| 10>  C     -1.20110700     -1.12516700     -0.56578700
| 11>  C     -2.73682300     -0.33197800      0.53645300
| 12>  C     -2.61220600      0.90831100     -0.05374600
| 13>  C     -3.31006500      1.24571800     -1.33187000
| 14> Fe      1.43677100      0.13963100     -0.03022600
| 15> Cl      1.95452800      2.08780100     -0.89680700
| 16>  C     -1.71746300      1.96647100      0.48065600
| 17> Cl      2.65984400     -1.55912600     -0.68593000
| 18> Cl      1.23670200      0.23434300      2.17259300
| 19>  H     -3.51600900     -0.97157400      0.12429200
| 20>  H     -2.22716700      2.93703600      0.47131000
| 21>  H     -1.33245800      1.76368500      1.47860000
| 22>  H     -0.85831000      2.06361000     -0.20029300
| 23>  H     -3.93550500      2.13329500     -1.17023500
| 24>  H     -2.58039800      1.52097600     -2.10496200
| 25>  H     -3.94743800      0.43916300     -1.69798300
| 26>  C     -2.45371200     -0.54787000      2.01180800
| 27>  H     -3.17608600      0.02426500      2.60616000
| 28>  H     -2.57251200     -1.59880700      2.28191800
| 29>  H     -1.45120900     -0.23288700      2.30711000
| 30>  C     -0.84595300     -2.28687500      0.34395300
| 31>  H     -1.69278300     -2.95219200      0.52459900
| 32>  H     -0.06971800     -2.84711000     -0.19401700
| 33>  H     -0.41344500     -1.95677300      1.28776300
| 34>  C     -1.88649000     -1.54491500     -1.85525700
| 35>  H     -1.16101300     -2.17198400     -2.38829700
| 36>  H     -2.78854900     -2.13710900     -1.68511800
| 37>  H     -2.10575500     -0.69127900     -2.49475300
| 38> *
| 39>
| 40>
| 41>                          ****END OF INPUT****

CARTESIAN COORDINATES (ANGSTROEM)
---------------------------------
  O     -0.301628   -0.203275   -0.723131
  C     -1.201107   -1.125167   -0.565787
  C     -2.736823   -0.331978    0.536453
  C     -2.612206    0.908311   -0.053746
  C     -3.310065    1.245718   -1.331870
  Fe     1.436771    0.139631   -0.030226
  Cl     1.954528    2.087801   -0.896807
  C     -1.717463    1.966471    0.480656
  Cl     2.659844   -1.559126   -0.685930
  Cl     1.236702    0.234343    2.172593
  H     -3.516009   -0.971574    0.124292
  H     -2.227167    2.937036    0.471310
  H     -1.332458    1.763685    1.478600
  H     -0.858310    2.063610   -0.200293
  H     -3.935505    2.133295   -1.170235
  H     -2.580398    1.520976   -2.104962
  H     -3.947438    0.439163   -1.697983
  C     -2.453712   -0.547870    2.011808
  H     -3.176086    0.024265    2.606160
  H     -2.572512   -1.598807    2.281918
  H     -1.451209   -0.232887    2.307110
  C     -0.845953   -2.286875    0.343953
  H     -1.692783   -2.952192    0.524599
  H     -0.069718   -2.847110   -0.194017
  H     -0.413445   -1.956773    1.287763
  C     -1.886490   -1.544915   -1.855257
  H     -1.161013   -2.171984   -2.388297
  H     -2.788549   -2.137109   -1.685118
  H     -2.105755   -0.691279   -2.494753

ORBITAL ENERGIES
----------------
                 SPIN UP ORBITALS
  NO   OCC          E(Eh)            E(eV)
   0   1.0000    -261.557100     -7117.3305
   1   1.0000    -104.781767     -2851.2568
   2   1.0000    -104.777378     -2851.1374
   3   1.0000    -104.777136     -2851.1308
   4   1.0000     -32.224976      -876.8862
   5   1.0000     -27.701076      -753.7846
   6   1.0000     -27.700547      -753.7702
   7   1.0000     -27.700346      -753.7647
   8   1.0000     -20.570175      -559.7429
   9   1.0000     -11.397735      -310.1481
  10   1.0000     -11.336305      -308.4765
  11   1.0000     -11.273503      -306.7676
  12   1.0000     -11.271693      -306.7184
  13   1.0000     -11.261247      -306.4341
  14   1.0000     -11.255266      -306.2714
  15   1.0000     -11.253467      -306.2224
  16   1.0000     -11.247111      -306.0494
  17   1.0000     -10.508427      -285.9488
  18   1.0000     -10.504027      -285.8291
  19   1.0000     -10.503732      -285.8211
  20   1.0000      -7.975304      -217.0191
  21   1.0000      -7.974462      -216.9962
  22   1.0000      -7.974433      -216.9954
  23   1.0000      -7.970869      -216.8984
  24   1.0000      -7.970548      -216.8896
  25   1.0000      -7.970129      -216.8782
  26   1.0000      -7.970064      -216.8765
  27   1.0000      -7.969838      -216.8703
  28   1.0000      -7.969764      -216.8683
  29   1.0000      -4.580233      -124.6345
  30   1.0000      -3.192980       -86.8854
  31   1.0000      -3.192085       -86.8610
  32   1.0000      -3.191744       -86.8518
  33   1.0000      -1.414041       -38.4780
  34   1.0000      -1.166644       -31.7460
  35   1.0000      -1.084719       -29.5167
  36   1.0000      -1.053032       -28.6545
  37   1.0000      -1.047321       -28.4990
  38   1.0000      -1.044541       -28.4234
  39   1.0000      -1.038610       -28.2620
  40   1.0000      -0.993489       -27.0342
  41   1.0000      -0.986435       -26.8423
  42   1.0000      -0.927320       -25.2337
  43   1.0000      -0.918569       -24.9955
  44   1.0000      -0.909500       -24.7488
  45   1.0000      -0.909451       -24.7474
  46   1.0000      -0.900239       -24.4968
  47   1.0000      -0.899552       -24.4780
  48   1.0000      -0.791820       -21.5465
  49   1.0000      -0.759765       -20.6743
  50   1.0000      -0.691925       -18.8282
  51   1.0000      -0.688488       -18.7347
  52   1.0000      -0.677221       -18.4281
  53   1.0000      -0.664162       -18.0728
  54   1.0000      -0.646883       -17.6026
  55   1.0000      -0.625743       -17.0273
  56   1.0000      -0.601948       -16.3799
  57   1.0000      -0.592982       -16.1359
  58   1.0000      -0.582879       -15.8609
  59   1.0000      -0.576840       -15.6966
  60   1.0000      -0.571011       -15.5380
  61   1.0000      -0.564135       -15.3509
  62   1.0000      -0.553968       -15.0742
  63   1.0000      -0.547825       -14.9071
  64   1.0000      -0.536587       -14.6013
  65   1.0000      -0.521551       -14.1921
  66   1.0000      -0.518913       -14.1203
  67   1.0000      -0.480917       -13.0864
  68   1.0000      -0.465743       -12.6735
  69   1.0000      -0.458915       -12.4877
  70   1.0000      -0.432334       -11.7644
  71   1.0000      -0.429612       -11.6903
  72   1.0000      -0.427511       -11.6332
  73   1.0000      -0.418684       -11.3930
  74   1.0000      -0.417198       -11.3525
  75   1.0000      -0.416547       -11.3348
  76   1.0000      -0.383734       -10.4419
  77   0.0000       0.009515         0.2589
  78   0.0000       0.020089         0.5466
  79   0.0000       0.022107         0.6016
  80   0.0000       0.026069         0.7094
  81   0.0000       0.032806         0.8927

                 SPIN DOWN ORBITALS
  NO   OCC          E(Eh)            E(eV)
   0   1.0000    -261.553546     -7117.2338
   1   1.0000    -104.780374     -2851.2189
   2   1.0000    -104.775899     -2851.0972
   3   1.0000    -104.775702     -2851.0918
   4   1.0000     -32.062910      -872.4761
   5   1.0000     -27.540906      -749.4261
   6   1.0000     -27.540801      -749.4233
   7   1.0000     -27.540458      -749.4140
   8   1.0000     -20.565518      -559.6162
   9   1.0000     -11.397705      -310.1473
  10   1.0000     -11.336113      -308.4713
  11   1.0000     -11.273530      -306.7683
  12   1.0000     -11.271646      -306.7171
  13   1.0000     -11.261132      -306.4310
  14   1.0000     -11.255243      -306.2707
  15   1.0000     -11.253514      -306.2237
  16   1.0000     -11.247117      -306.0496
  17   1.0000     -10.506930      -285.9081
  18   1.0000     -10.502446      -285.7861
  19   1.0000     -10.502201      -285.7794
  20   1.0000      -7.972806      -216.9511
  21   1.0000      -7.972248      -216.9359
  22   1.0000      -7.972184      -216.9342
  23   1.0000      -7.968378      -216.8306
  24   1.0000      -7.968167      -216.8248
  25   1.0000      -7.967672      -216.8114
  26   1.0000      -7.967589      -216.8091
  27   1.0000      -7.967436      -216.8050
  28   1.0000      -7.967343      -216.8024
  29   1.0000      -4.137932      -112.5988
  30   1.0000      -2.659681       -72.3736
  31   1.0000      -2.659638       -72.3724
  32   1.0000      -2.658798       -72.3496
  33   1.0000      -1.402206       -38.1560
  34   1.0000      -1.165803       -31.7231
  35   1.0000      -1.081945       -29.4412
  36   1.0000      -1.039983       -28.2994
  37   1.0000      -1.036781       -28.2122
  38   1.0000      -1.026152       -27.9230
  39   1.0000      -1.023398       -27.8481
  40   1.0000      -0.993237       -27.0274
  41   1.0000      -0.985813       -26.8253
  42   1.0000      -0.921309       -25.0701
  43   1.0000      -0.805102       -21.9079
  44   1.0000      -0.760330       -20.6896
  45   1.0000      -0.693357       -18.8672
  46   1.0000      -0.687961       -18.7204
  47   1.0000      -0.678050       -18.4507
  48   1.0000      -0.663505       -18.0549
  49   1.0000      -0.646656       -17.5964
  50   1.0000      -0.625268       -17.0144
  51   1.0000      -0.601102       -16.3568
  52   1.0000      -0.593093       -16.1389
  53   1.0000      -0.582689       -15.8558
  54   1.0000      -0.576294       -15.6818
  55   1.0000      -0.570602       -15.5269
  56   1.0000      -0.563845       -15.3430
  57   1.0000      -0.553727       -15.0677
  58   1.0000      -0.547163       -14.8891
  59   1.0000      -0.532440       -14.4884
  60   1.0000      -0.521417       -14.1885
  61   1.0000      -0.509229       -13.8568
  62   1.0000      -0.479694       -13.0531
  63   1.0000      -0.471054       -12.8180
  64   1.0000      -0.468004       -12.7350
  65   1.0000      -0.442204       -12.0330
  66   1.0000      -0.438823       -11.9410
  67   1.0000      -0.436514       -11.8781
  68   1.0000      -0.423546       -11.5253
  69   1.0000      -0.416468       -11.3327
  70   1.0000      -0.403048       -10.9675
  71   1.0000      -0.380480       -10.3534
  72   0.0000       0.009510         0.2588
  73   0.0000       0.020039         0.5453
  74   0.0000       0.022101         0.6014
  75   0.0000       0.025649         0.6979
  76   0.0000       0.032505         0.8845

E(0)                                       ...  -3028.430407191
E(0)                                       ...  -3028.430407191
E(CORR)(strong-pairs)                      ...     -2.874394080
E(CORR)(weak-pairs)                        ...     -0.036774484
E(CORR)(corrected)                         ...     -2.911168564
E(TOT)                                     ...  -3031.341575755
E(CCSD(T))                                 ...  -3031.461842627
FINAL SINGLE POINT ENERGY     -3031.461842627045

DIPOLE MOMENT
-------------
                                X             Y             Z
Electronic contribution:     41.46446       5.51317       1.08852
Nuclear contribution   :    -45.96141      -6.07673      -1.53543
                        -----------------------------------------
Total Dipole Moment    :     -4.49695      -0.56356      -0.44691
                        -----------------------------------------
Magnitude (a.u.)       :      4.55411
Magnitude (Debye)      :     11.57562

Rotational constants in cm-1:     0.019210     0.011146     0.010460
Rotational constants in MHz :   575.886768   334.145768   313.584476

                             ****ORCA TERMINATED NORMALLY****
TOTAL RUN TIME: 0 days 21 hours 24 minutes 38 seconds 473 msec
