                         Program Version 4.1.2  - RELEASE  -
|  1> ! aug-cc-pVTZ aug-cc-pVTZ/C DLPNO-CCSD(T1) TightSCF NormalPNO UNO MiniPrint AutoAux
|  2> %pal nproc 10 end
|  3> %maxcore 20000
|  4> %mdci
|  5>      density none
|  6> end
|  7>
|  8> * xyz 0 6
|  9>  O     -0.42144000     -0.13618900     -0.45965300
| 10>  C     -1.32594100     -1.22019400     -0.37908600
| 11>  C     -2.93760200     -0.05359000     -0.17517000
| 12>  C     -2.00311100      1.07690300     -0.29608000
| 13>  C     -1.85828600      1.75422200     -1.61471600
| 14> Fe      1.38491600      0.06036800      0.05484900
| 15> Cl      1.87718600      2.01432700     -0.84775400
| 16>  C     -1.57835400      1.84771700      0.90514600
| 17> Cl      2.41326800     -1.71201600     -0.73760100
| 18> Cl      1.38225500      0.14250400      2.26485500
| 19>  H     -3.51631700     -0.21952900     -1.08368000
| 20>  H     -2.41889900      2.50820300      1.17028300
| 21>  H     -1.37173400      1.20913700      1.76430500
| 22>  H     -0.70401500      2.46647600      0.69506000
| 23>  H     -2.62473700      2.54494500     -1.64842700
| 24>  H     -0.87579500      2.22002700     -1.71803600
| 25>  H     -2.04359300      1.07341200     -2.44751400
| 26>  C     -3.71015200     -0.28694000      1.10160200
| 27>  H     -4.50135000      0.46288900      1.23549800
| 28>  H     -4.19472400     -1.26770100      1.06982300
| 29>  H     -3.07469600     -0.25951500      1.99024800
| 30>  C     -1.16665200     -2.06723300      0.84904400
| 31>  H     -1.98319200     -2.78896200      0.94206200
| 32>  H     -0.22475800     -2.62635600      0.75490500
| 33>  H     -1.09584800     -1.46327500      1.75508000
| 34>  C     -1.43907300     -1.95955600     -1.68244000
| 35>  H     -0.47297600     -2.44681000     -1.87447100
| 36>  H     -2.21938300     -2.72534600     -1.64214900
| 37>  H     -1.63530000     -1.27749100     -2.51313100
| 38> *
| 39>
| 40>
| 41>                          ****END OF INPUT****

CARTESIAN COORDINATES (ANGSTROEM)
---------------------------------
  O     -0.421440   -0.136189   -0.459653
  C     -1.325941   -1.220194   -0.379086
  C     -2.937602   -0.053590   -0.175170
  C     -2.003111    1.076903   -0.296080
  C     -1.858286    1.754222   -1.614716
  Fe     1.384916    0.060368    0.054849
  Cl     1.877186    2.014327   -0.847754
  C     -1.578354    1.847717    0.905146
  Cl     2.413268   -1.712016   -0.737601
  Cl     1.382255    0.142504    2.264855
  H     -3.516317   -0.219529   -1.083680
  H     -2.418899    2.508203    1.170283
  H     -1.371734    1.209137    1.764305
  H     -0.704015    2.466476    0.695060
  H     -2.624737    2.544945   -1.648427
  H     -0.875795    2.220027   -1.718036
  H     -2.043593    1.073412   -2.447514
  C     -3.710152   -0.286940    1.101602
  H     -4.501350    0.462889    1.235498
  H     -4.194724   -1.267701    1.069823
  H     -3.074696   -0.259515    1.990248
  C     -1.166652   -2.067233    0.849044
  H     -1.983192   -2.788962    0.942062
  H     -0.224758   -2.626356    0.754905
  H     -1.095848   -1.463275    1.755080
  C     -1.439073   -1.959556   -1.682440
  H     -0.472976   -2.446810   -1.874471
  H     -2.219383   -2.725346   -1.642149
  H     -1.635300   -1.277491   -2.513131

ORBITAL ENERGIES
----------------
                 SPIN UP ORBITALS
  NO   OCC          E(Eh)            E(eV)
   0   1.0000    -261.554604     -7117.2626
   1   1.0000    -104.780661     -2851.2267
   2   1.0000    -104.778757     -2851.1749
   3   1.0000    -104.778270     -2851.1617
   4   1.0000     -32.222491      -876.8186
   5   1.0000     -27.698478      -753.7139
   6   1.0000     -27.698130      -753.7044
   7   1.0000     -27.697918      -753.6987
   8   1.0000     -20.566834      -559.6520
   9   1.0000     -11.389668      -309.9286
  10   1.0000     -11.371747      -309.4410
  11   1.0000     -11.279414      -306.9285
  12   1.0000     -11.270179      -306.6772
  13   1.0000     -11.267859      -306.6140
  14   1.0000     -11.256511      -306.3052
  15   1.0000     -11.247671      -306.0647
  16   1.0000     -11.245111      -305.9950
  17   1.0000     -10.507224      -285.9161
  18   1.0000     -10.505351      -285.8651
  19   1.0000     -10.504883      -285.8524
  20   1.0000      -7.974031      -216.9844
  21   1.0000      -7.973314      -216.9649
  22   1.0000      -7.973250      -216.9632
  23   1.0000      -7.972156      -216.9334
  24   1.0000      -7.971767      -216.9228
  25   1.0000      -7.971455      -216.9143
  26   1.0000      -7.971392      -216.9126
  27   1.0000      -7.970942      -216.9004
  28   1.0000      -7.970889      -216.8989
  29   1.0000      -4.577835      -124.5692
  30   1.0000      -3.190365       -86.8142
  31   1.0000      -3.189928       -86.8023
  32   1.0000      -3.189337       -86.7863
  33   1.0000      -1.376287       -37.4507
  34   1.0000      -1.160575       -31.5808
  35   1.0000      -1.083025       -29.4706
  36   1.0000      -1.052332       -28.6354
  37   1.0000      -1.046137       -28.4668
  38   1.0000      -1.045520       -28.4500
  39   1.0000      -1.037992       -28.2452
  40   1.0000      -1.002949       -27.2916
  41   1.0000      -0.976898       -26.5827
  42   1.0000      -0.926042       -25.1989
  43   1.0000      -0.907886       -24.7048
  44   1.0000      -0.907364       -24.6906
  45   1.0000      -0.905788       -24.6477
  46   1.0000      -0.898674       -24.4541
  47   1.0000      -0.897944       -24.4343
  48   1.0000      -0.786478       -21.4011
  49   1.0000      -0.758560       -20.6415
  50   1.0000      -0.690459       -18.7883
  51   1.0000      -0.686118       -18.6702
  52   1.0000      -0.668326       -18.1861
  53   1.0000      -0.645838       -17.5741
  54   1.0000      -0.632999       -17.2248
  55   1.0000      -0.621882       -16.9223
  56   1.0000      -0.596482       -16.2311
  57   1.0000      -0.591752       -16.1024
  58   1.0000      -0.586330       -15.9548
  59   1.0000      -0.581745       -15.8301
  60   1.0000      -0.569909       -15.5080
  61   1.0000      -0.562950       -15.3187
  62   1.0000      -0.548130       -14.9154
  63   1.0000      -0.541672       -14.7397
  64   1.0000      -0.534175       -14.5356
  65   1.0000      -0.530604       -14.4385
  66   1.0000      -0.510015       -13.8782
  67   1.0000      -0.486582       -13.2406
  68   1.0000      -0.466878       -12.7044
  69   1.0000      -0.456434       -12.4202
  70   1.0000      -0.435564       -11.8523
  71   1.0000      -0.429786       -11.6951
  72   1.0000      -0.426653       -11.6098
  73   1.0000      -0.420816       -11.4510
  74   1.0000      -0.417970       -11.3735
  75   1.0000      -0.417111       -11.3502
  76   1.0000      -0.373570       -10.1654
  77   0.0000       0.010322         0.2809
  78   0.0000       0.021145         0.5754
  79   0.0000       0.023474         0.6388
  80   0.0000       0.031177         0.8484
  81   0.0000       0.037990         1.0338

                 SPIN DOWN ORBITALS
  NO   OCC          E(Eh)            E(eV)
   0   1.0000    -261.551051     -7117.1659
   1   1.0000    -104.779300     -2851.1897
   2   1.0000    -104.777309     -2851.1355
   3   1.0000    -104.776861     -2851.1233
   4   1.0000     -32.060550      -872.4119
   5   1.0000     -27.538550      -749.3620
   6   1.0000     -27.538415      -749.3584
   7   1.0000     -27.538044      -749.3483
   8   1.0000     -20.561626      -559.5103
   9   1.0000     -11.389723      -309.9301
  10   1.0000     -11.372133      -309.4515
  11   1.0000     -11.278651      -306.9077
  12   1.0000     -11.270160      -306.6766
  13   1.0000     -11.267870      -306.6143
  14   1.0000     -11.256580      -306.3071
  15   1.0000     -11.247595      -306.0626
  16   1.0000     -11.245066      -305.9938
  17   1.0000     -10.505766      -285.8764
  18   1.0000     -10.503802      -285.8230
  19   1.0000     -10.503371      -285.8112
  20   1.0000      -7.971738      -216.9220
  21   1.0000      -7.971055      -216.9034
  22   1.0000      -7.970986      -216.9016
  23   1.0000      -7.969768      -216.8684
  24   1.0000      -7.969265      -216.8547
  25   1.0000      -7.969015      -216.8479
  26   1.0000      -7.968959      -216.8464
  27   1.0000      -7.968680      -216.8388
  28   1.0000      -7.968606      -216.8368
  29   1.0000      -4.135805      -112.5410
  30   1.0000      -2.657689       -72.3194
  31   1.0000      -2.657461       -72.3132
  32   1.0000      -2.656783       -72.2947
  33   1.0000      -1.362811       -37.0840
  34   1.0000      -1.159009       -31.5382
  35   1.0000      -1.080451       -29.4006
  36   1.0000      -1.037983       -28.2449
  37   1.0000      -1.036644       -28.2085
  38   1.0000      -1.026273       -27.9263
  39   1.0000      -1.024810       -27.8865
  40   1.0000      -1.002648       -27.2834
  41   1.0000      -0.976463       -26.5709
  42   1.0000      -0.916419       -24.9370
  43   1.0000      -0.792430       -21.5631
  44   1.0000      -0.761163       -20.7123
  45   1.0000      -0.690714       -18.7953
  46   1.0000      -0.685959       -18.6659
  47   1.0000      -0.668909       -18.2019
  48   1.0000      -0.646415       -17.5899
  49   1.0000      -0.631562       -17.1857
  50   1.0000      -0.622304       -16.9338
  51   1.0000      -0.595253       -16.1977
  52   1.0000      -0.591740       -16.1021
  53   1.0000      -0.586278       -15.9534
  54   1.0000      -0.580029       -15.7834
  55   1.0000      -0.569755       -15.5038
  56   1.0000      -0.563041       -15.3211
  57   1.0000      -0.546326       -14.8663
  58   1.0000      -0.541171       -14.7260
  59   1.0000      -0.533190       -14.5088
  60   1.0000      -0.525689       -14.3047
  61   1.0000      -0.507156       -13.8004
  62   1.0000      -0.482205       -13.1215
  63   1.0000      -0.471401       -12.8275
  64   1.0000      -0.467021       -12.7083
  65   1.0000      -0.441226       -12.0064
  66   1.0000      -0.439193       -11.9510
  67   1.0000      -0.436642       -11.8816
  68   1.0000      -0.424245       -11.5443
  69   1.0000      -0.415828       -11.3152
  70   1.0000      -0.404118       -10.9966
  71   1.0000      -0.373509       -10.1637
  72   0.0000       0.010309         0.2805
  73   0.0000       0.021035         0.5724
  74   0.0000       0.023454         0.6382
  75   0.0000       0.031229         0.8498
  76   0.0000       0.037956         1.0328

E(0)                                       ...  -3028.408247562
E(0)                                       ...  -3028.408247562
E(CORR)(strong-pairs)                      ...     -2.875427644
E(CORR)(weak-pairs)                        ...     -0.036518559
E(CORR)(corrected)                         ...     -2.911946204
E(TOT)                                     ...  -3031.320193765
E(CCSD(T))                                 ...  -3031.440487009
FINAL SINGLE POINT ENERGY     -3031.440487008802

DIPOLE MOMENT
-------------
                                X             Y             Z
Electronic contribution:     40.44039       3.47343       2.13804
Nuclear contribution   :    -44.68692      -3.33323      -2.63947
                        -----------------------------------------
Total Dipole Moment    :     -4.24653       0.14021      -0.50143
                        -----------------------------------------
Magnitude (a.u.)       :      4.27833
Magnitude (Debye)      :     10.87465

Rotational constants in cm-1:     0.018912     0.011874     0.010778
Rotational constants in MHz :   566.968767   355.974239   323.118741

                             ****ORCA TERMINATED NORMALLY****
TOTAL RUN TIME: 0 days 23 hours 31 minutes 42 seconds 259 msec
