                         Program Version 4.1.2  - RELEASE  -
|  1> ! aug-cc-pVTZ aug-cc-pVTZ/C DLPNO-CCSD(T1) TightSCF NormalPNO UNO MiniPrint AutoAux
|  2> %pal nproc 10 end
|  3> %maxcore 20000
|  4> %mdci
|  5>      density none
|  6> end
|  7>
|  8> * xyz 0 6
|  9>  O     -0.25904700     -0.27528500     -0.82406000
| 10>  C     -1.08822000     -1.21513100     -0.65484900
| 11>  C     -2.97930900     -0.15276200      0.48429700
| 12>  C     -2.55875100      0.96799700     -0.14905300
| 13>  C     -3.00580200      1.30643600     -1.54167800
| 14> Fe      1.45539000      0.13650600      0.01064700
| 15> Cl      2.06960700      2.01402900     -0.90988100
| 16>  C     -1.64674600      1.98180100      0.46854600
| 17> Cl      2.64230500     -1.62393700     -0.52799500
| 18> Cl      1.13492900      0.27792700      2.18391600
| 19>  H     -3.71060200     -0.77121300     -0.03444700
| 20>  H     -2.19094200      2.92703200      0.59954800
| 21>  H     -1.24441200      1.68368300      1.43564900
| 22>  H     -0.80869500      2.20160800     -0.20417400
| 23>  H     -3.47964800      2.29636900     -1.54443400
| 24>  H     -2.14281200      1.37628000     -2.21706500
| 25>  H     -3.72456000      0.58742000     -1.94285800
| 26>  C     -2.82585500     -0.43240400      1.95823500
| 27>  H     -3.61896400      0.08308500      2.51611100
| 28>  H     -2.92792600     -1.49861700      2.17790600
| 29>  H     -1.86881400     -0.09369500      2.36227500
| 30>  C     -0.88489000     -2.20948800      0.45023600
| 31>  H     -1.76639600     -2.82911700      0.61814400
| 32>  H     -0.06322900     -2.85775700      0.11072400
| 33>  H     -0.56112100     -1.73675600      1.37690600
| 34>  C     -1.85172600     -1.68066400     -1.86398400
| 35>  H     -1.19168800     -2.40348700     -2.36515700
| 36>  H     -2.77760900     -2.19587700     -1.60499100
| 37>  H     -2.03886600     -0.86687100     -2.56167800
| 38> *
| 39>
| 40>
| 41>                          ****END OF INPUT****

CARTESIAN COORDINATES (ANGSTROEM)
---------------------------------
  O     -0.259047   -0.275285   -0.824060
  C     -1.088220   -1.215131   -0.654849
  C     -2.979309   -0.152762    0.484297
  C     -2.558751    0.967997   -0.149053
  C     -3.005802    1.306436   -1.541678
  Fe     1.455390    0.136506    0.010647
  Cl     2.069607    2.014029   -0.909881
  C     -1.646746    1.981801    0.468546
  Cl     2.642305   -1.623937   -0.527995
  Cl     1.134929    0.277927    2.183916
  H     -3.710602   -0.771213   -0.034447
  H     -2.190942    2.927032    0.599548
  H     -1.244412    1.683683    1.435649
  H     -0.808695    2.201608   -0.204174
  H     -3.479648    2.296369   -1.544434
  H     -2.142812    1.376280   -2.217065
  H     -3.724560    0.587420   -1.942858
  C     -2.825855   -0.432404    1.958235
  H     -3.618964    0.083085    2.516111
  H     -2.927926   -1.498617    2.177906
  H     -1.868814   -0.093695    2.362275
  C     -0.884890   -2.209488    0.450236
  H     -1.766396   -2.829117    0.618144
  H     -0.063229   -2.857757    0.110724
  H     -0.561121   -1.736756    1.376906
  C     -1.851726   -1.680664   -1.863984
  H     -1.191688   -2.403487   -2.365157
  H     -2.777609   -2.195877   -1.604991
  H     -2.038866   -0.866871   -2.561678

ORBITAL ENERGIES
----------------
                 SPIN UP ORBITALS
  NO   OCC          E(Eh)            E(eV)
   0   1.0000    -261.572007     -7117.7362
   1   1.0000    -104.791308     -2851.5165
   2   1.0000    -104.787930     -2851.4245
   3   1.0000    -104.786307     -2851.3804
   4   1.0000     -32.239757      -877.2884
   5   1.0000     -27.716141      -754.1945
   6   1.0000     -27.715152      -754.1676
   7   1.0000     -27.714972      -754.1627
   8   1.0000     -20.607974      -560.7715
   9   1.0000     -11.419719      -310.7464
  10   1.0000     -11.280814      -306.9666
  11   1.0000     -11.274864      -306.8046
  12   1.0000     -11.268913      -306.6427
  13   1.0000     -11.249638      -306.1182
  14   1.0000     -11.248503      -306.0873
  15   1.0000     -11.240387      -305.8665
  16   1.0000     -11.233954      -305.6914
  17   1.0000     -10.518007      -286.2095
  18   1.0000     -10.514607      -286.1170
  19   1.0000     -10.512936      -286.0715
  20   1.0000      -7.984852      -217.2789
  21   1.0000      -7.984073      -217.2577
  22   1.0000      -7.984029      -217.2565
  23   1.0000      -7.981483      -217.1872
  24   1.0000      -7.980702      -217.1659
  25   1.0000      -7.980644      -217.1644
  26   1.0000      -7.979729      -217.1395
  27   1.0000      -7.979059      -217.1212
  28   1.0000      -7.979007      -217.1198
  29   1.0000      -4.594715      -125.0285
  30   1.0000      -3.207767       -87.2878
  31   1.0000      -3.206215       -87.2455
  32   1.0000      -3.206036       -87.2407
  33   1.0000      -1.453676       -39.5565
  34   1.0000      -1.135589       -30.9009
  35   1.0000      -1.097787       -29.8723
  36   1.0000      -1.063980       -28.9524
  37   1.0000      -1.058230       -28.7959
  38   1.0000      -1.055459       -28.7205
  39   1.0000      -1.025120       -27.8949
  40   1.0000      -1.007149       -27.4059
  41   1.0000      -0.964753       -26.2523
  42   1.0000      -0.939377       -25.5618
  43   1.0000      -0.923702       -25.1352
  44   1.0000      -0.923621       -25.1330
  45   1.0000      -0.913275       -24.8515
  46   1.0000      -0.912595       -24.8330
  47   1.0000      -0.902693       -24.5635
  48   1.0000      -0.808750       -22.0072
  49   1.0000      -0.736444       -20.0397
  50   1.0000      -0.706378       -19.2215
  51   1.0000      -0.696952       -18.9650
  52   1.0000      -0.685339       -18.6490
  53   1.0000      -0.661021       -17.9873
  54   1.0000      -0.627156       -17.0658
  55   1.0000      -0.621606       -16.9148
  56   1.0000      -0.604778       -16.4568
  57   1.0000      -0.598565       -16.2878
  58   1.0000      -0.584746       -15.9118
  59   1.0000      -0.576488       -15.6870
  60   1.0000      -0.561404       -15.2766
  61   1.0000      -0.554823       -15.0975
  62   1.0000      -0.548663       -14.9299
  63   1.0000      -0.545419       -14.8416
  64   1.0000      -0.534793       -14.5525
  65   1.0000      -0.529356       -14.4045
  66   1.0000      -0.500346       -13.6151
  67   1.0000      -0.498024       -13.5519
  68   1.0000      -0.474641       -12.9156
  69   1.0000      -0.472892       -12.8681
  70   1.0000      -0.443815       -12.0768
  71   1.0000      -0.438290       -11.9265
  72   1.0000      -0.436510       -11.8781
  73   1.0000      -0.427794       -11.6409
  74   1.0000      -0.426779       -11.6133
  75   1.0000      -0.425601       -11.5812
  76   1.0000      -0.363954        -9.9037
  77   0.0000       0.012425         0.3381
  78   0.0000       0.023062         0.6275
  79   0.0000       0.023770         0.6468
  80   0.0000       0.030414         0.8276
  81   0.0000       0.039022         1.0618

                 SPIN DOWN ORBITALS
  NO   OCC          E(Eh)            E(eV)
   0   1.0000    -261.568436     -7117.6390
   1   1.0000    -104.789848     -2851.4767
   2   1.0000    -104.786393     -2851.3827
   3   1.0000    -104.784774     -2851.3387
   4   1.0000     -32.077743      -872.8798
   5   1.0000     -27.555649      -749.8273
   6   1.0000     -27.555610      -749.8263
   7   1.0000     -27.555453      -749.8220
   8   1.0000     -20.604238      -560.6698
   9   1.0000     -11.419631      -310.7440
  10   1.0000     -11.280798      -306.9661
  11   1.0000     -11.274753      -306.8016
  12   1.0000     -11.268904      -306.6425
  13   1.0000     -11.249590      -306.1169
  14   1.0000     -11.248504      -306.0874
  15   1.0000     -11.240391      -305.8666
  16   1.0000     -11.233974      -305.6920
  17   1.0000     -10.516445      -286.1670
  18   1.0000     -10.512965      -286.0723
  19   1.0000     -10.511306      -286.0272
  20   1.0000      -7.982352      -217.2108
  21   1.0000      -7.981664      -217.1921
  22   1.0000      -7.981618      -217.1909
  23   1.0000      -7.978850      -217.1156
  24   1.0000      -7.978172      -217.0971
  25   1.0000      -7.978081      -217.0946
  26   1.0000      -7.977293      -217.0732
  27   1.0000      -7.976432      -217.0497
  28   1.0000      -7.976349      -217.0475
  29   1.0000      -4.152549      -112.9966
  30   1.0000      -2.674126       -72.7667
  31   1.0000      -2.674108       -72.7662
  32   1.0000      -2.673559       -72.7512
  33   1.0000      -1.444387       -39.3038
  34   1.0000      -1.135203       -30.8904
  35   1.0000      -1.095310       -29.8049
  36   1.0000      -1.048650       -28.5352
  37   1.0000      -1.036208       -28.1967
  38   1.0000      -1.033122       -28.1127
  39   1.0000      -1.024607       -27.8810
  40   1.0000      -1.006422       -27.3861
  41   1.0000      -0.964642       -26.2492
  42   1.0000      -0.902977       -24.5713
  43   1.0000      -0.821814       -22.3627
  44   1.0000      -0.736522       -20.0418
  45   1.0000      -0.708825       -19.2881
  46   1.0000      -0.696062       -18.9408
  47   1.0000      -0.684546       -18.6275
  48   1.0000      -0.660918       -17.9845
  49   1.0000      -0.627095       -17.0641
  50   1.0000      -0.621081       -16.9005
  51   1.0000      -0.604407       -16.4468
  52   1.0000      -0.598484       -16.2856
  53   1.0000      -0.584491       -15.9048
  54   1.0000      -0.575364       -15.6564
  55   1.0000      -0.560726       -15.2581
  56   1.0000      -0.554708       -15.0944
  57   1.0000      -0.546594       -14.8736
  58   1.0000      -0.545308       -14.8386
  59   1.0000      -0.531633       -14.4665
  60   1.0000      -0.520660       -14.1679
  61   1.0000      -0.500729       -13.6255
  62   1.0000      -0.498630       -13.5684
  63   1.0000      -0.482400       -13.1268
  64   1.0000      -0.480106       -13.0643
  65   1.0000      -0.451416       -12.2837
  66   1.0000      -0.448418       -12.2021
  67   1.0000      -0.445644       -12.1266
  68   1.0000      -0.429576       -11.6893
  69   1.0000      -0.426698       -11.6110
  70   1.0000      -0.411287       -11.1917
  71   1.0000      -0.363013        -9.8781
  72   0.0000       0.012410         0.3377
  73   0.0000       0.023037         0.6269
  74   0.0000       0.023743         0.6461
  75   0.0000       0.030333         0.8254
  76   0.0000       0.038870         1.0577

E(0)                                       ...  -3028.453123082
E(0)                                       ...  -3028.453123082
E(CORR)(strong-pairs)                      ...     -2.870568443
E(CORR)(weak-pairs)                        ...     -0.035938691
E(CORR)(corrected)                         ...     -2.906507133
E(TOT)                                     ...  -3031.359630215
E(CCSD(T))                                 ...  -3031.478379140
FINAL SINGLE POINT ENERGY     -3031.478379140142

DIPOLE MOMENT
-------------
                                X             Y             Z
Electronic contribution:     42.72414       4.21018       1.68646
Nuclear contribution   :    -46.30099      -5.37672      -2.31112
                        -----------------------------------------
Total Dipole Moment    :     -3.57685      -1.16654      -0.62466
                        -----------------------------------------
Magnitude (a.u.)       :      3.81378
Magnitude (Debye)      :      9.69385

Rotational constants in cm-1:     0.018986     0.010989     0.010347
Rotational constants in MHz :   569.180213   329.445833   310.195309

                             ****ORCA TERMINATED NORMALLY****
TOTAL RUN TIME: 0 days 18 hours 14 minutes 27 seconds 706 msec
