                         Program Version 4.1.2  - RELEASE  -
|  1> ! aug-cc-pVTZ aug-cc-pVTZ/C DLPNO-CCSD(T1) TightSCF NormalPNO UNO MiniPrint AutoAux
|  2> %pal nproc 10 end
|  3> %maxcore 20000
|  4> %mdci
|  5>      density none
|  6> end
|  7>
|  8> * xyz 0 6
|  9>  O      0.28411500      0.24077700     -0.50221500
| 10>  C      1.09517800      1.18372900     -0.22232900
| 11>  C      2.71682600      0.14165100      0.93820300
| 12>  C      3.11603700     -0.66079700     -0.09307800
| 13>  C      4.21647900     -0.26786900     -1.02964400
| 14> Fe     -1.56030800     -0.17877400     -0.10495100
| 15> Cl     -1.87986500     -2.06559000     -1.15499800
| 16>  C      2.42579600     -1.95935200     -0.36186500
| 17> Cl     -2.57772800      1.58730600     -0.91714400
| 18> Cl     -1.81823300     -0.34754100      2.07032900
| 19>  H      3.30108700      1.04414200      1.11219100
| 20>  H      2.94059800     -2.55273400     -1.12146000
| 21>  H      2.31125700     -2.56143900      0.54546600
| 22>  H      1.40656200     -1.74608300     -0.72346300
| 23>  H      5.04899600     -0.97541100     -0.91277000
| 24>  H      3.90019600     -0.34102600     -2.07790900
| 25>  H      4.59797800      0.73804100     -0.83799000
| 26>  C      1.91954900     -0.38957100      2.10714100
| 27>  H      2.46464600     -1.20871700      2.59216200
| 28>  H      1.75281400      0.38126500      2.86158400
| 29>  H      0.94398800     -0.78076400      1.80825500
| 30>  C      0.74131900      2.12968000      0.90105300
| 31>  H      1.59141600      2.72933500      1.23111000
| 32>  H     -0.01614700      2.80628100      0.47943400
| 33>  H      0.28044700      1.61385700      1.74241400
| 34>  C      1.84676400      1.78272900     -1.38415300
| 35>  H      1.16177800      2.50799200     -1.84450600
| 36>  H      2.74754800      2.31594000     -1.07466500
| 37>  H      2.08327500      1.02905500     -2.13455700
| 38> *
| 39>
| 40>
| 41>                          ****END OF INPUT****

CARTESIAN COORDINATES (ANGSTROEM)
---------------------------------
  O      0.284115    0.240777   -0.502215
  C      1.095178    1.183729   -0.222329
  C      2.716826    0.141651    0.938203
  C      3.116037   -0.660797   -0.093078
  C      4.216479   -0.267869   -1.029644
  Fe    -1.560308   -0.178774   -0.104951
  Cl    -1.879865   -2.065590   -1.154998
  C      2.425796   -1.959352   -0.361865
  Cl    -2.577728    1.587306   -0.917144
  Cl    -1.818233   -0.347541    2.070329
  H      3.301087    1.044142    1.112191
  H      2.940598   -2.552734   -1.121460
  H      2.311257   -2.561439    0.545466
  H      1.406562   -1.746083   -0.723463
  H      5.048996   -0.975411   -0.912770
  H      3.900196   -0.341026   -2.077909
  H      4.597978    0.738041   -0.837990
  C      1.919549   -0.389571    2.107141
  H      2.464646   -1.208717    2.592162
  H      1.752814    0.381265    2.861584
  H      0.943988   -0.780764    1.808255
  C      0.741319    2.129680    0.901053
  H      1.591416    2.729335    1.231110
  H     -0.016147    2.806281    0.479434
  H      0.280447    1.613857    1.742414
  C      1.846764    1.782729   -1.384153
  H      1.161778    2.507992   -1.844506
  H      2.747548    2.315940   -1.074665
  H      2.083275    1.029055   -2.134557

ORBITAL ENERGIES
----------------
                 SPIN UP ORBITALS
  NO   OCC          E(Eh)            E(eV)
   0   1.0000    -261.565420     -7117.5569
   1   1.0000    -104.785219     -2851.3508
   2   1.0000    -104.782984     -2851.2900
   3   1.0000    -104.781324     -2851.2448
   4   1.0000     -32.233191      -877.1097
   5   1.0000     -27.709568      -754.0157
   6   1.0000     -27.708591      -753.9891
   7   1.0000     -27.708439      -753.9850
   8   1.0000     -20.598260      -560.5071
   9   1.0000     -11.412901      -310.5608
  10   1.0000     -11.302807      -307.5650
  11   1.0000     -11.270427      -306.6839
  12   1.0000     -11.266297      -306.5715
  13   1.0000     -11.264402      -306.5200
  14   1.0000     -11.259188      -306.3781
  15   1.0000     -11.246770      -306.0402
  16   1.0000     -11.240957      -305.8820
  17   1.0000     -10.511890      -286.0431
  18   1.0000     -10.509627      -285.9815
  19   1.0000     -10.507926      -285.9352
  20   1.0000      -7.978730      -217.1123
  21   1.0000      -7.977948      -217.0910
  22   1.0000      -7.977940      -217.0908
  23   1.0000      -7.976502      -217.0517
  24   1.0000      -7.975727      -217.0306
  25   1.0000      -7.975647      -217.0284
  26   1.0000      -7.974732      -217.0035
  27   1.0000      -7.974065      -216.9853
  28   1.0000      -7.973979      -216.9830
  29   1.0000      -4.588291      -124.8537
  30   1.0000      -3.201433       -87.1154
  31   1.0000      -3.199798       -87.0709
  32   1.0000      -3.199613       -87.0659
  33   1.0000      -1.440893       -39.2087
  34   1.0000      -1.150001       -31.2931
  35   1.0000      -1.091280       -29.6952
  36   1.0000      -1.057780       -28.7837
  37   1.0000      -1.052445       -28.6385
  38   1.0000      -1.049759       -28.5654
  39   1.0000      -1.031351       -28.0645
  40   1.0000      -1.000448       -27.2236
  41   1.0000      -0.979608       -26.6565
  42   1.0000      -0.934236       -25.4218
  43   1.0000      -0.917448       -24.9650
  44   1.0000      -0.917413       -24.9641
  45   1.0000      -0.908671       -24.7262
  46   1.0000      -0.906735       -24.6735
  47   1.0000      -0.906516       -24.6675
  48   1.0000      -0.803619       -21.8676
  49   1.0000      -0.748397       -20.3649
  50   1.0000      -0.698379       -19.0039
  51   1.0000      -0.688314       -18.7300
  52   1.0000      -0.683377       -18.5956
  53   1.0000      -0.671539       -18.2735
  54   1.0000      -0.638431       -17.3726
  55   1.0000      -0.622587       -16.9414
  56   1.0000      -0.605372       -16.4730
  57   1.0000      -0.596995       -16.2450
  58   1.0000      -0.582312       -15.8455
  59   1.0000      -0.577323       -15.7097
  60   1.0000      -0.569783       -15.5046
  61   1.0000      -0.560569       -15.2539
  62   1.0000      -0.556331       -15.1385
  63   1.0000      -0.545049       -14.8315
  64   1.0000      -0.534679       -14.5494
  65   1.0000      -0.524659       -14.2767
  66   1.0000      -0.512199       -13.9376
  67   1.0000      -0.492003       -13.3881
  68   1.0000      -0.470814       -12.8115
  69   1.0000      -0.465303       -12.6615
  70   1.0000      -0.438956       -11.9446
  71   1.0000      -0.433321       -11.7913
  72   1.0000      -0.431004       -11.7282
  73   1.0000      -0.422823       -11.5056
  74   1.0000      -0.421318       -11.4647
  75   1.0000      -0.420281       -11.4364
  76   1.0000      -0.372102       -10.1254
  77   0.0000       0.010629         0.2892
  78   0.0000       0.021587         0.5874
  79   0.0000       0.022372         0.6088
  80   0.0000       0.028788         0.7834
  81   0.0000       0.037750         1.0272

                 SPIN DOWN ORBITALS
  NO   OCC          E(Eh)            E(eV)
   0   1.0000    -261.561849     -7117.4598
   1   1.0000    -104.783734     -2851.3103
   2   1.0000    -104.781479     -2851.2490
   3   1.0000    -104.779807     -2851.2035
   4   1.0000     -32.071158      -872.7006
   5   1.0000     -27.549107      -749.6493
   6   1.0000     -27.549025      -749.6471
   7   1.0000     -27.548822      -749.6416
   8   1.0000     -20.594499      -560.4048
   9   1.0000     -11.412733      -310.5562
  10   1.0000     -11.302248      -307.5498
  11   1.0000     -11.270327      -306.6812
  12   1.0000     -11.266302      -306.5717
  13   1.0000     -11.264473      -306.5219
  14   1.0000     -11.259555      -306.3881
  15   1.0000     -11.246837      -306.0420
  16   1.0000     -11.240929      -305.8812
  17   1.0000     -10.510302      -285.9999
  18   1.0000     -10.508018      -285.9377
  19   1.0000     -10.506312      -285.8913
  20   1.0000      -7.976208      -217.0437
  21   1.0000      -7.975504      -217.0245
  22   1.0000      -7.975452      -217.0231
  23   1.0000      -7.973910      -216.9811
  24   1.0000      -7.973254      -216.9633
  25   1.0000      -7.973155      -216.9606
  26   1.0000      -7.972290      -216.9370
  27   1.0000      -7.971472      -216.9148
  28   1.0000      -7.971378      -216.9122
  29   1.0000      -4.146063      -112.8201
  30   1.0000      -2.667683       -72.5913
  31   1.0000      -2.667585       -72.5887
  32   1.0000      -2.667184       -72.5778
  33   1.0000      -1.431333       -38.9486
  34   1.0000      -1.149074       -31.2679
  35   1.0000      -1.088665       -29.6241
  36   1.0000      -1.042533       -28.3688
  37   1.0000      -1.032269       -28.0895
  38   1.0000      -1.029275       -28.0080
  39   1.0000      -1.027722       -27.9657
  40   1.0000      -0.999849       -27.2073
  41   1.0000      -0.979538       -26.6546
  42   1.0000      -0.908723       -24.7276
  43   1.0000      -0.818330       -22.2679
  44   1.0000      -0.748385       -20.3646
  45   1.0000      -0.701548       -19.0901
  46   1.0000      -0.686647       -18.6846
  47   1.0000      -0.683246       -18.5921
  48   1.0000      -0.671433       -18.2706
  49   1.0000      -0.638420       -17.3723
  50   1.0000      -0.621766       -16.9191
  51   1.0000      -0.605044       -16.4641
  52   1.0000      -0.596695       -16.2369
  53   1.0000      -0.582177       -15.8418
  54   1.0000      -0.576820       -15.6961
  55   1.0000      -0.569316       -15.4919
  56   1.0000      -0.560538       -15.2530
  57   1.0000      -0.556261       -15.1366
  58   1.0000      -0.543009       -14.7760
  59   1.0000      -0.534277       -14.5384
  60   1.0000      -0.514477       -13.9996
  61   1.0000      -0.512045       -13.9335
  62   1.0000      -0.491515       -13.3748
  63   1.0000      -0.476230       -12.9589
  64   1.0000      -0.474592       -12.9143
  65   1.0000      -0.446468       -12.1490
  66   1.0000      -0.442960       -12.0535
  67   1.0000      -0.440736       -11.9930
  68   1.0000      -0.425564       -11.5802
  69   1.0000      -0.421169       -11.4606
  70   1.0000      -0.405807       -11.0426
  71   1.0000      -0.371078       -10.0975
  72   0.0000       0.010622         0.2890
  73   0.0000       0.021574         0.5871
  74   0.0000       0.022355         0.6083
  75   0.0000       0.028636         0.7792
  76   0.0000       0.037014         1.0072

E(0)                                       ...  -3028.444194862
E(0)                                       ...  -3028.444194862
E(CORR)(strong-pairs)                      ...     -2.872237934
E(CORR)(weak-pairs)                        ...     -0.035068780
E(CORR)(corrected)                         ...     -2.907306715
E(TOT)                                     ...  -3031.351501576
E(CCSD(T))                                 ...  -3031.471095084
FINAL SINGLE POINT ENERGY     -3031.471095083790

DIPOLE MOMENT
-------------
                                X             Y             Z
Electronic contribution:    -45.33920      -5.49099      -2.02125
Nuclear contribution   :     49.59212       6.61848       1.96706
                        -----------------------------------------
Total Dipole Moment    :      4.25292       1.12749      -0.05419
                        -----------------------------------------
Magnitude (a.u.)       :      4.40017
Magnitude (Debye)      :     11.18434

Rotational constants in cm-1:     0.019830     0.009890     0.009465
Rotational constants in MHz :   594.497230   296.494567   283.763899

                             ****ORCA TERMINATED NORMALLY****
TOTAL RUN TIME: 0 days 15 hours 32 minutes 8 seconds 172 msec
