                         Program Version 4.1.2  - RELEASE  -
|  1> ! aug-cc-pVTZ aug-cc-pVTZ/C DLPNO-CCSD(T1) TightSCF NormalPNO UNO MiniPrint AutoAux
|  2> %pal nproc 10 end
|  3> %maxcore 20000
|  4> %mdci
|  5>      density none
|  6> end
|  7>
|  8> * xyz 0 6
|  9>  O      0.14226600      0.45423900     -0.89995600
| 10>  C      0.90043500      1.42310600     -0.68020500
| 11>  C      3.14878600      0.08782400      0.57356500
| 12>  C      2.71753600     -0.92035300     -0.20820800
| 13>  C      3.19495500     -1.06705000     -1.62919700
| 14> Fe     -1.49900500     -0.18193700      0.01611400
| 15> Cl     -2.05606200     -1.98264200     -1.06246400
| 16>  C      1.78005600     -2.00483700      0.24134800
| 17> Cl     -2.79534300      1.55501300     -0.27753600
| 18> Cl     -1.02261200     -0.50512400      2.13121100
| 19>  H      3.87124600      0.78042400      0.13875400
| 20>  H      2.28822300     -2.97777400      0.20258600
| 21>  H      1.39687700     -1.86341100      1.25168800
| 22>  H      0.92446100     -2.08195400     -0.44197300
| 23>  H      3.72440000     -2.02072600     -1.75481400
| 24>  H      2.34700600     -1.09326900     -2.32671000
| 25>  H      3.87543700     -0.26359300     -1.92674400
| 26>  C      2.88955900      0.27368300      2.04381200
| 27>  H      3.71455100     -0.15020000      2.63292700
| 28>  H      2.83437100      1.33522000      2.30865700
| 29>  H      1.96589900     -0.20432900      2.37875700
| 30>  C      0.75628400      2.25486900      0.55365800
| 31>  H      1.63400900      2.87676300      0.73337600
| 32>  H     -0.11279500      2.90921900      0.38907000
| 33>  H      0.53467200      1.63813800      1.42580400
| 34>  C      1.75641800      1.92528900     -1.80012100
| 35>  H      1.23020500      2.78862100     -2.23365600
| 36>  H      2.72544300      2.27640500     -1.44167500
| 37>  H      1.87612700      1.16853800     -2.57385800
| 38> *
| 39>
| 40>
| 41>                          ****END OF INPUT****

CARTESIAN COORDINATES (ANGSTROEM)
---------------------------------
  O      0.142266    0.454239   -0.899956
  C      0.900435    1.423106   -0.680205
  C      3.148786    0.087824    0.573565
  C      2.717536   -0.920353   -0.208208
  C      3.194955   -1.067050   -1.629197
  Fe    -1.499005   -0.181937    0.016114
  Cl    -2.056062   -1.982642   -1.062464
  C      1.780056   -2.004837    0.241348
  Cl    -2.795343    1.555013   -0.277536
  Cl    -1.022612   -0.505124    2.131211
  H      3.871246    0.780424    0.138754
  H      2.288223   -2.977774    0.202586
  H      1.396877   -1.863411    1.251688
  H      0.924461   -2.081954   -0.441973
  H      3.724400   -2.020726   -1.754814
  H      2.347006   -1.093269   -2.326710
  H      3.875437   -0.263593   -1.926744
  C      2.889559    0.273683    2.043812
  H      3.714551   -0.150200    2.632927
  H      2.834371    1.335220    2.308657
  H      1.965899   -0.204329    2.378757
  C      0.756284    2.254869    0.553658
  H      1.634009    2.876763    0.733376
  H     -0.112795    2.909219    0.389070
  H      0.534672    1.638138    1.425804
  C      1.756418    1.925289   -1.800121
  H      1.230205    2.788621   -2.233656
  H      2.725443    2.276405   -1.441675
  H      1.876127    1.168538   -2.573858

ORBITAL ENERGIES
----------------
                 SPIN UP ORBITALS
  NO   OCC          E(Eh)            E(eV)
   0   1.0000    -261.578579     -7117.9150
   1   1.0000    -104.795889     -2851.6411
   2   1.0000    -104.792751     -2851.5557
   3   1.0000    -104.790610     -2851.4975
   4   1.0000     -32.246250      -877.4651
   5   1.0000     -27.722798      -754.3757
   6   1.0000     -27.721552      -754.3418
   7   1.0000     -27.721346      -754.3362
   8   1.0000     -20.628479      -561.3294
   9   1.0000     -11.422310      -310.8169
  10   1.0000     -11.279707      -306.9364
  11   1.0000     -11.274083      -306.7834
  12   1.0000     -11.258792      -306.3673
  13   1.0000     -11.240172      -305.8606
  14   1.0000     -11.239149      -305.8328
  15   1.0000     -11.233918      -305.6904
  16   1.0000     -11.225977      -305.4744
  17   1.0000     -10.522633      -286.3354
  18   1.0000     -10.519453      -286.2489
  19   1.0000     -10.517263      -286.1893
  20   1.0000      -7.989453      -217.4041
  21   1.0000      -7.988722      -217.3842
  22   1.0000      -7.988664      -217.3826
  23   1.0000      -7.986333      -217.3192
  24   1.0000      -7.985550      -217.2979
  25   1.0000      -7.985498      -217.2965
  26   1.0000      -7.984045      -217.2569
  27   1.0000      -7.983398      -217.2393
  28   1.0000      -7.983352      -217.2381
  29   1.0000      -4.601022      -125.2002
  30   1.0000      -3.214207       -87.4630
  31   1.0000      -3.212364       -87.4129
  32   1.0000      -3.212215       -87.4088
  33   1.0000      -1.471313       -40.0365
  34   1.0000      -1.119469       -30.4623
  35   1.0000      -1.103183       -30.0191
  36   1.0000      -1.069356       -29.0987
  37   1.0000      -1.063485       -28.9389
  38   1.0000      -1.060505       -28.8578
  39   1.0000      -1.021030       -27.7836
  40   1.0000      -1.008746       -27.4494
  41   1.0000      -0.953816       -25.9547
  42   1.0000      -0.944964       -25.7138
  43   1.0000      -0.929873       -25.3031
  44   1.0000      -0.929712       -25.2987
  45   1.0000      -0.918810       -25.0021
  46   1.0000      -0.918188       -24.9852
  47   1.0000      -0.891383       -24.2558
  48   1.0000      -0.817652       -22.2494
  49   1.0000      -0.724096       -19.7036
  50   1.0000      -0.716376       -19.4936
  51   1.0000      -0.706083       -19.2135
  52   1.0000      -0.684079       -18.6147
  53   1.0000      -0.649987       -17.6870
  54   1.0000      -0.621233       -16.9046
  55   1.0000      -0.616469       -16.7750
  56   1.0000      -0.604559       -16.4509
  57   1.0000      -0.599988       -16.3265
  58   1.0000      -0.586375       -15.9561
  59   1.0000      -0.580294       -15.7906
  60   1.0000      -0.561261       -15.2727
  61   1.0000      -0.548230       -14.9181
  62   1.0000      -0.545902       -14.8548
  63   1.0000      -0.538464       -14.6523
  64   1.0000      -0.536204       -14.5909
  65   1.0000      -0.522564       -14.2197
  66   1.0000      -0.506741       -13.7891
  67   1.0000      -0.488274       -13.2866
  68   1.0000      -0.478922       -13.0321
  69   1.0000      -0.478391       -13.0177
  70   1.0000      -0.449025       -12.2186
  71   1.0000      -0.442500       -12.0410
  72   1.0000      -0.440619       -11.9898
  73   1.0000      -0.432082       -11.7576
  74   1.0000      -0.431145       -11.7321
  75   1.0000      -0.429801       -11.6955
  76   1.0000      -0.355875        -9.6839
  77   0.0000       0.012669         0.3447
  78   0.0000       0.023937         0.6514
  79   0.0000       0.024745         0.6733
  80   0.0000       0.030918         0.8413
  81   0.0000       0.039455         1.0736

                 SPIN DOWN ORBITALS
  NO   OCC          E(Eh)            E(eV)
   0   1.0000    -261.574989     -7117.8173
   1   1.0000    -104.794386     -2851.6002
   2   1.0000    -104.791183     -2851.5131
   3   1.0000    -104.789026     -2851.4544
   4   1.0000     -32.084278      -873.0576
   5   1.0000     -27.562235      -750.0065
   6   1.0000     -27.562096      -750.0028
   7   1.0000     -27.562021      -750.0007
   8   1.0000     -20.625126      -561.2382
   9   1.0000     -11.422254      -310.8153
  10   1.0000     -11.279602      -306.9336
  11   1.0000     -11.274074      -306.7832
  12   1.0000     -11.258827      -306.3683
  13   1.0000     -11.240125      -305.8593
  14   1.0000     -11.239145      -305.8327
  15   1.0000     -11.233921      -305.6905
  16   1.0000     -11.225984      -305.4746
  17   1.0000     -10.521028      -286.2917
  18   1.0000     -10.517780      -286.2033
  19   1.0000     -10.515582      -286.1435
  20   1.0000      -7.986959      -217.3362
  21   1.0000      -7.986185      -217.3151
  22   1.0000      -7.986149      -217.3142
  23   1.0000      -7.983657      -217.2464
  24   1.0000      -7.982964      -217.2275
  25   1.0000      -7.982873      -217.2250
  26   1.0000      -7.981579      -217.1898
  27   1.0000      -7.980653      -217.1646
  28   1.0000      -7.980571      -217.1624
  29   1.0000      -4.159011      -113.1725
  30   1.0000      -2.680546       -72.9414
  31   1.0000      -2.680511       -72.9404
  32   1.0000      -2.680100       -72.9292
  33   1.0000      -1.463211       -39.8160
  34   1.0000      -1.119171       -30.4542
  35   1.0000      -1.100995       -29.9596
  36   1.0000      -1.053499       -28.6672
  37   1.0000      -1.040862       -28.3233
  38   1.0000      -1.037521       -28.2324
  39   1.0000      -1.020036       -27.7566
  40   1.0000      -1.008554       -27.4441
  41   1.0000      -0.953701       -25.9515
  42   1.0000      -0.891446       -24.2575
  43   1.0000      -0.830124       -22.5888
  44   1.0000      -0.724195       -19.7064
  45   1.0000      -0.717865       -19.5341
  46   1.0000      -0.705358       -19.1938
  47   1.0000      -0.683526       -18.5997
  48   1.0000      -0.649945       -17.6859
  49   1.0000      -0.620643       -16.8886
  50   1.0000      -0.616398       -16.7730
  51   1.0000      -0.604434       -16.4475
  52   1.0000      -0.599918       -16.3246
  53   1.0000      -0.586066       -15.9477
  54   1.0000      -0.578751       -15.7486
  55   1.0000      -0.560467       -15.2511
  56   1.0000      -0.547580       -14.9004
  57   1.0000      -0.544110       -14.8060
  58   1.0000      -0.536217       -14.5912
  59   1.0000      -0.527667       -14.3585
  60   1.0000      -0.522272       -14.2118
  61   1.0000      -0.508796       -13.8450
  62   1.0000      -0.488830       -13.3017
  63   1.0000      -0.486542       -13.2395
  64   1.0000      -0.484713       -13.1897
  65   1.0000      -0.456049       -12.4097
  66   1.0000      -0.452808       -12.3215
  67   1.0000      -0.449681       -12.2364
  68   1.0000      -0.433286       -11.7903
  69   1.0000      -0.431262       -11.7352
  70   1.0000      -0.415093       -11.2952
  71   1.0000      -0.355556        -9.6752
  72   0.0000       0.012652         0.3443
  73   0.0000       0.023912         0.6507
  74   0.0000       0.024705         0.6723
  75   0.0000       0.030869         0.8400
  76   0.0000       0.039382         1.0716

E(0)                                       ...  -3028.474639675
E(0)                                       ...  -3028.474639675
E(CORR)(strong-pairs)                      ...     -2.864462615
E(CORR)(weak-pairs)                        ...     -0.035158215
E(CORR)(corrected)                         ...     -2.899620831
E(TOT)                                     ...  -3031.374260506
E(CCSD(T))                                 ...  -3031.491677491
FINAL SINGLE POINT ENERGY     -3031.491677491476

DIPOLE MOMENT
-------------
                                X             Y             Z
Electronic contribution:    -44.08824      -5.25172       1.72886
Nuclear contribution   :     47.18528       6.89480      -2.35641
                        -----------------------------------------
Total Dipole Moment    :      3.09704       1.64308      -0.62755
                        -----------------------------------------
Magnitude (a.u.)       :      3.56163
Magnitude (Debye)      :      9.05294

Rotational constants in cm-1:     0.018697     0.010508     0.009891
Rotational constants in MHz :   560.511839   315.027481   296.533910

                             ****ORCA TERMINATED NORMALLY****
TOTAL RUN TIME: 0 days 16 hours 44 minutes 55 seconds 939 msec
