                         Program Version 4.1.2  - RELEASE  -
|  1> ! aug-cc-pVTZ aug-cc-pVTZ/C DLPNO-CCSD(T1) TightSCF NormalPNO UNO MiniPrint AutoAux
|  2> %pal nproc 10 end
|  3> %maxcore 20000
|  4> %mdci
|  5>      density none
|  6> end
|  7>
|  8> * xyz 0 6
|  9>  O     -0.36670700     -0.17088700     -0.53179100
| 10>  C     -1.34566100     -1.15413500     -0.42203500
| 11>  C     -2.89606000     -0.09260500     -0.14023200
| 12>  C     -2.08064200      1.09817800     -0.25906200
| 13>  C     -1.93312000      1.77847300     -1.56862200
| 14> Fe      1.39345300      0.04780000      0.04058800
| 15> Cl      1.84886100      2.04683000     -0.80334400
| 16>  C     -1.58154600      1.81695600      0.93752600
| 17> Cl      2.52983800     -1.66919200     -0.73009000
| 18> Cl      1.33107600      0.10517600      2.26041700
| 19>  H     -3.50073100     -0.27356300     -1.02910100
| 20>  H     -2.41732100      2.44103000      1.29541900
| 21>  H     -1.30334400      1.14507100      1.75049500
| 22>  H     -0.73839500      2.46681800      0.69701100
| 23>  H     -2.64128500      2.62375500     -1.56141800
| 24>  H     -0.92517900      2.18493300     -1.68722500
| 25>  H     -2.18943700      1.13123100     -2.40856300
| 26>  C     -3.62966100     -0.39166600      1.15201800
| 27>  H     -4.46879500      0.30070900      1.29405400
| 28>  H     -4.04322200     -1.40365700      1.12155000
| 29>  H     -2.98569900     -0.32154500      2.03126600
| 30>  C     -1.16461200     -2.06615100      0.76524500
| 31>  H     -1.99465300     -2.76959700      0.87151200
| 32>  H     -0.24563400     -2.64204900      0.59009900
| 33>  H     -1.02233900     -1.50862300      1.69218000
| 34>  C     -1.55784900     -1.87130300     -1.73524300
| 35>  H     -0.63209400     -2.41515100     -1.96358100
| 36>  H     -2.38598900     -2.58444100     -1.68050800
| 37>  H     -1.73326700     -1.16493200     -2.55042600
| 38> *
| 39>
| 40>
| 41>                          ****END OF INPUT****

CARTESIAN COORDINATES (ANGSTROEM)
---------------------------------
  O     -0.366707   -0.170887   -0.531791
  C     -1.345661   -1.154135   -0.422035
  C     -2.896060   -0.092605   -0.140232
  C     -2.080642    1.098178   -0.259062
  C     -1.933120    1.778473   -1.568622
  Fe     1.393453    0.047800    0.040588
  Cl     1.848861    2.046830   -0.803344
  C     -1.581546    1.816956    0.937526
  Cl     2.529838   -1.669192   -0.730090
  Cl     1.331076    0.105176    2.260417
  H     -3.500731   -0.273563   -1.029101
  H     -2.417321    2.441030    1.295419
  H     -1.303344    1.145071    1.750495
  H     -0.738395    2.466818    0.697011
  H     -2.641285    2.623755   -1.561418
  H     -0.925179    2.184933   -1.687225
  H     -2.189437    1.131231   -2.408563
  C     -3.629661   -0.391666    1.152018
  H     -4.468795    0.300709    1.294054
  H     -4.043222   -1.403657    1.121550
  H     -2.985699   -0.321545    2.031266
  C     -1.164612   -2.066151    0.765245
  H     -1.994653   -2.769597    0.871512
  H     -0.245634   -2.642049    0.590099
  H     -1.022339   -1.508623    1.692180
  C     -1.557849   -1.871303   -1.735243
  H     -0.632094   -2.415151   -1.963581
  H     -2.385989   -2.584441   -1.680508
  H     -1.733267   -1.164932   -2.550426

ORBITAL ENERGIES
----------------
                 SPIN UP ORBITALS
  NO   OCC          E(Eh)            E(eV)
   0   1.0000    -261.548736     -7117.1029
   1   1.0000    -104.776160     -2851.1043
   2   1.0000    -104.774888     -2851.0697
   3   1.0000    -104.773404     -2851.0293
   4   1.0000     -32.216635      -876.6592
   5   1.0000     -27.692503      -753.5513
   6   1.0000     -27.692396      -753.5484
   7   1.0000     -27.692089      -753.5401
   8   1.0000     -20.551574      -559.2368
   9   1.0000     -11.393909      -310.0440
  10   1.0000     -11.367531      -309.3262
  11   1.0000     -11.283942      -307.0517
  12   1.0000     -11.276802      -306.8574
  13   1.0000     -11.272992      -306.7537
  14   1.0000     -11.261706      -306.4466
  15   1.0000     -11.246585      -306.0351
  16   1.0000     -11.242303      -305.9186
  17   1.0000     -10.502670      -285.7922
  18   1.0000     -10.501485      -285.7599
  19   1.0000     -10.499953      -285.7182
  20   1.0000      -7.969495      -216.8610
  21   1.0000      -7.968754      -216.8408
  22   1.0000      -7.968671      -216.8386
  23   1.0000      -7.968380      -216.8306
  24   1.0000      -7.967528      -216.8074
  25   1.0000      -7.967479      -216.8061
  26   1.0000      -7.966758      -216.7865
  27   1.0000      -7.966065      -216.7676
  28   1.0000      -7.965985      -216.7655
  29   1.0000      -4.572100      -124.4132
  30   1.0000      -3.184620       -86.6579
  31   1.0000      -3.184286       -86.6488
  32   1.0000      -3.183663       -86.6319
  33   1.0000      -1.372244       -37.3407
  34   1.0000      -1.175358       -31.9831
  35   1.0000      -1.084999       -29.5243
  36   1.0000      -1.047321       -28.4991
  37   1.0000      -1.041599       -28.3434
  38   1.0000      -1.040845       -28.3228
  39   1.0000      -1.040073       -28.3018
  40   1.0000      -1.010017       -27.4839
  41   1.0000      -0.975035       -26.5321
  42   1.0000      -0.931400       -25.3447
  43   1.0000      -0.908718       -24.7275
  44   1.0000      -0.901713       -24.5369
  45   1.0000      -0.901514       -24.5314
  46   1.0000      -0.893334       -24.3088
  47   1.0000      -0.892868       -24.2962
  48   1.0000      -0.786122       -21.3915
  49   1.0000      -0.762521       -20.7492
  50   1.0000      -0.697958       -18.9924
  51   1.0000      -0.690323       -18.7846
  52   1.0000      -0.671681       -18.2774
  53   1.0000      -0.644679       -17.5426
  54   1.0000      -0.635547       -17.2941
  55   1.0000      -0.627062       -17.0632
  56   1.0000      -0.599350       -16.3091
  57   1.0000      -0.595148       -16.1948
  58   1.0000      -0.591907       -16.1066
  59   1.0000      -0.582278       -15.8446
  60   1.0000      -0.575117       -15.6497
  61   1.0000      -0.560888       -15.2625
  62   1.0000      -0.553735       -15.0679
  63   1.0000      -0.542227       -14.7547
  64   1.0000      -0.535715       -14.5775
  65   1.0000      -0.529715       -14.4143
  66   1.0000      -0.507593       -13.8123
  67   1.0000      -0.478040       -13.0081
  68   1.0000      -0.462609       -12.5882
  69   1.0000      -0.450571       -12.2607
  70   1.0000      -0.430134       -11.7045
  71   1.0000      -0.425988       -11.5917
  72   1.0000      -0.422637       -11.5005
  73   1.0000      -0.416384       -11.3304
  74   1.0000      -0.413959       -11.2644
  75   1.0000      -0.412599       -11.2274
  76   1.0000      -0.391823       -10.6621
  77   0.0000       0.007940         0.2161
  78   0.0000       0.019534         0.5315
  79   0.0000       0.021963         0.5977
  80   0.0000       0.030547         0.8312
  81   0.0000       0.033996         0.9251

                 SPIN DOWN ORBITALS
  NO   OCC          E(Eh)            E(eV)
   0   1.0000    -261.545189     -7117.0064
   1   1.0000    -104.774850     -2851.0686
   2   1.0000    -104.773523     -2851.0325
   3   1.0000    -104.771973     -2850.9903
   4   1.0000     -32.054633      -872.2509
   5   1.0000     -27.532706      -749.2030
   6   1.0000     -27.532524      -749.1981
   7   1.0000     -27.532054      -749.1853
   8   1.0000     -20.545852      -559.0811
   9   1.0000     -11.393945      -310.0450
  10   1.0000     -11.367461      -309.3243
  11   1.0000     -11.283624      -307.0430
  12   1.0000     -11.276782      -306.8568
  13   1.0000     -11.273004      -306.7540
  14   1.0000     -11.261730      -306.4473
  15   1.0000     -11.246510      -306.0331
  16   1.0000     -11.242271      -305.9178
  17   1.0000     -10.501264      -285.7539
  18   1.0000     -10.500016      -285.7200
  19   1.0000     -10.498422      -285.6766
  20   1.0000      -7.967222      -216.7991
  21   1.0000      -7.966615      -216.7826
  22   1.0000      -7.966530      -216.7803
  23   1.0000      -7.965894      -216.7630
  24   1.0000      -7.965372      -216.7488
  25   1.0000      -7.965301      -216.7469
  26   1.0000      -7.964394      -216.7222
  27   1.0000      -7.963653      -216.7020
  28   1.0000      -7.963588      -216.7003
  29   1.0000      -4.129964      -112.3820
  30   1.0000      -2.651794       -72.1590
  31   1.0000      -2.651718       -72.1569
  32   1.0000      -2.651025       -72.1381
  33   1.0000      -1.357312       -36.9343
  34   1.0000      -1.174079       -31.9483
  35   1.0000      -1.082230       -29.4490
  36   1.0000      -1.039764       -28.2934
  37   1.0000      -1.032886       -28.1063
  38   1.0000      -1.022133       -27.8136
  39   1.0000      -1.020021       -27.7562
  40   1.0000      -1.009585       -27.4722
  41   1.0000      -0.974414       -26.5152
  42   1.0000      -0.927728       -25.2448
  43   1.0000      -0.792665       -21.5695
  44   1.0000      -0.766600       -20.8603
  45   1.0000      -0.698102       -18.9963
  46   1.0000      -0.689609       -18.7652
  47   1.0000      -0.672927       -18.3113
  48   1.0000      -0.646352       -17.5881
  49   1.0000      -0.633487       -17.2381
  50   1.0000      -0.627130       -17.0651
  51   1.0000      -0.598436       -16.2843
  52   1.0000      -0.595252       -16.1976
  53   1.0000      -0.591792       -16.1035
  54   1.0000      -0.580736       -15.8026
  55   1.0000      -0.574997       -15.6465
  56   1.0000      -0.560914       -15.2633
  57   1.0000      -0.552449       -15.0329
  58   1.0000      -0.541485       -14.7345
  59   1.0000      -0.534743       -14.5511
  60   1.0000      -0.524093       -14.2613
  61   1.0000      -0.502775       -13.6812
  62   1.0000      -0.474281       -12.9058
  63   1.0000      -0.466301       -12.6887
  64   1.0000      -0.460888       -12.5414
  65   1.0000      -0.437210       -11.8971
  66   1.0000      -0.434032       -11.8106
  67   1.0000      -0.432617       -11.7721
  68   1.0000      -0.423281       -11.5180
  69   1.0000      -0.411871       -11.2076
  70   1.0000      -0.400218       -10.8905
  71   1.0000      -0.388954       -10.5840
  72   0.0000       0.007926         0.2157
  73   0.0000       0.019408         0.5281
  74   0.0000       0.021945         0.5971
  75   0.0000       0.030583         0.8322
  76   0.0000       0.033232         0.9043

E(0)                                       ...  -3028.421044314
E(0)                                       ...  -3028.421044314
E(CORR)(strong-pairs)                      ...     -2.871179537
E(CORR)(weak-pairs)                        ...     -0.035858839
E(CORR)(corrected)                         ...     -2.907038376
E(TOT)                                     ...  -3031.328082691
E(CCSD(T))                                 ...  -3031.446969456
FINAL SINGLE POINT ENERGY     -3031.446969455715

DIPOLE MOMENT
-------------
                                X             Y             Z
Electronic contribution:     40.38240       3.81477       2.16558
Nuclear contribution   :    -45.02888      -3.53262      -2.64101
                        -----------------------------------------
Total Dipole Moment    :     -4.64648       0.28215      -0.47543
                        -----------------------------------------
Magnitude (a.u.)       :      4.67926
Magnitude (Debye)      :     11.89372

Rotational constants in cm-1:     0.019085     0.011771     0.010725
Rotational constants in MHz :   572.148500   352.875552   321.539500

                             ****ORCA TERMINATED NORMALLY****
TOTAL RUN TIME: 0 days 20 hours 47 minutes 20 seconds 739 msec
