                         Program Version 4.1.2  - RELEASE  -
|  1> ! aug-cc-pVTZ aug-cc-pVTZ/C DLPNO-CCSD(T1) TightSCF NormalPNO UNO MiniPrint AutoAux
|  2> %pal nproc 10 end
|  3> %maxcore 20000
|  4> %mdci
|  5>      density none
|  6> end
|  7>
|  8> * xyz 0 6
|  9>  O     -0.31466600     -0.14479100     -0.65541000
| 10>  C     -1.17689700     -1.08026400     -0.57194300
| 11>  C     -3.15504700     -0.00454800      0.10055700
| 12>  C     -2.34828900      1.04606600     -0.20129900
| 13>  C     -2.31390100      1.64138700     -1.57593900
| 14> Fe      1.46237100      0.07813600      0.05262000
| 15> Cl      2.09245400      1.99639100     -0.78452400
| 16>  C     -1.55964600      1.79431900      0.83038700
| 17> Cl      2.47361900     -1.71396700     -0.71437400
| 18> Cl      1.34497600      0.06760500      2.25085500
| 19>  H     -3.77954100     -0.39521900     -0.70049200
| 20>  H     -2.18746700      2.60952300      1.21746500
| 21>  H     -1.25470300      1.18174400      1.67948200
| 22>  H     -0.66899100      2.25320300      0.39325200
| 23>  H     -2.62260400      2.69288100     -1.50942800
| 24>  H     -1.29242700      1.63727300     -1.97139800
| 25>  H     -2.98653100      1.13746000     -2.27451400
| 26>  C     -3.53930100     -0.44979500      1.48602600
| 27>  H     -4.45544600      0.07153600      1.79503600
| 28>  H     -3.75908900     -1.52112700      1.52391800
| 29>  H     -2.77457400     -0.23080800      2.23473600
| 30>  C     -1.10746100     -2.03095300      0.58698500
| 31>  H     -1.99098100     -2.66426700      0.66609700
| 32>  H     -0.23869400     -2.67455500      0.38137000
| 33>  H     -0.90885400     -1.51570900      1.52693600
| 34>  C     -1.73176000     -1.60612000     -1.86766500
| 35>  H     -0.94283700     -2.25370600     -2.27736500
| 36>  H     -2.63244800     -2.20595400     -1.72820900
| 37>  H     -1.90315300     -0.80651100     -2.58763400
| 38> *
| 39>
| 40>
| 41>                          ****END OF INPUT****

CARTESIAN COORDINATES (ANGSTROEM)
---------------------------------
  O     -0.314666   -0.144791   -0.655410
  C     -1.176897   -1.080264   -0.571943
  C     -3.155047   -0.004548    0.100557
  C     -2.348289    1.046066   -0.201299
  C     -2.313901    1.641387   -1.575939
  Fe     1.462371    0.078136    0.052620
  Cl     2.092454    1.996391   -0.784524
  C     -1.559646    1.794319    0.830387
  Cl     2.473619   -1.713967   -0.714374
  Cl     1.344976    0.067605    2.250855
  H     -3.779541   -0.395219   -0.700492
  H     -2.187467    2.609523    1.217465
  H     -1.254703    1.181744    1.679482
  H     -0.668991    2.253203    0.393252
  H     -2.622604    2.692881   -1.509428
  H     -1.292427    1.637273   -1.971398
  H     -2.986531    1.137460   -2.274514
  C     -3.539301   -0.449795    1.486026
  H     -4.455446    0.071536    1.795036
  H     -3.759089   -1.521127    1.523918
  H     -2.774574   -0.230808    2.234736
  C     -1.107461   -2.030953    0.586985
  H     -1.990981   -2.664267    0.666097
  H     -0.238694   -2.674555    0.381370
  H     -0.908854   -1.515709    1.526936
  C     -1.731760   -1.606120   -1.867665
  H     -0.942837   -2.253706   -2.277365
  H     -2.632448   -2.205954   -1.728209
  H     -1.903153   -0.806511   -2.587634

ORBITAL ENERGIES
----------------
                 SPIN UP ORBITALS
  NO   OCC          E(Eh)            E(eV)
   0   1.0000    -261.567835     -7117.6227
   1   1.0000    -104.787428     -2851.4109
   2   1.0000    -104.785735     -2851.3648
   3   1.0000    -104.784713     -2851.3370
   4   1.0000     -32.235616      -877.1757
   5   1.0000     -27.711938      -754.0802
   6   1.0000     -27.711043      -754.0558
   7   1.0000     -27.710905      -754.0521
   8   1.0000     -20.592539      -560.3515
   9   1.0000     -11.418985      -310.7264
  10   1.0000     -11.295443      -307.3646
  11   1.0000     -11.272738      -306.7468
  12   1.0000     -11.267516      -306.6047
  13   1.0000     -11.255185      -306.2692
  14   1.0000     -11.249600      -306.1172
  15   1.0000     -11.247838      -306.0692
  16   1.0000     -11.241045      -305.8844
  17   1.0000     -10.514096      -286.1031
  18   1.0000     -10.512354      -286.0557
  19   1.0000     -10.511298      -286.0269
  20   1.0000      -7.980951      -217.1727
  21   1.0000      -7.980163      -217.1513
  22   1.0000      -7.980123      -217.1502
  23   1.0000      -7.979230      -217.1259
  24   1.0000      -7.978450      -217.1047
  25   1.0000      -7.978366      -217.1024
  26   1.0000      -7.978094      -217.0950
  27   1.0000      -7.977418      -217.0766
  28   1.0000      -7.977353      -217.0748
  29   1.0000      -4.590751      -124.9207
  30   1.0000      -3.203814       -87.1802
  31   1.0000      -3.202345       -87.1402
  32   1.0000      -3.202088       -87.1332
  33   1.0000      -1.445780       -39.3417
  34   1.0000      -1.144067       -31.1316
  35   1.0000      -1.096440       -29.8357
  36   1.0000      -1.060302       -28.8523
  37   1.0000      -1.054903       -28.7054
  38   1.0000      -1.052812       -28.6485
  39   1.0000      -1.028953       -27.9992
  40   1.0000      -1.007692       -27.4207
  41   1.0000      -0.970467       -26.4078
  42   1.0000      -0.936682       -25.4884
  43   1.0000      -0.920037       -25.0355
  44   1.0000      -0.919888       -25.0314
  45   1.0000      -0.910260       -24.7694
  46   1.0000      -0.909470       -24.7479
  47   1.0000      -0.908873       -24.7317
  48   1.0000      -0.803990       -21.8777
  49   1.0000      -0.742245       -20.1975
  50   1.0000      -0.702172       -19.1071
  51   1.0000      -0.696966       -18.9654
  52   1.0000      -0.689409       -18.7598
  53   1.0000      -0.664813       -18.0905
  54   1.0000      -0.632569       -17.2131
  55   1.0000      -0.620021       -16.8716
  56   1.0000      -0.603208       -16.4141
  57   1.0000      -0.600114       -16.3299
  58   1.0000      -0.583314       -15.8728
  59   1.0000      -0.577855       -15.7242
  60   1.0000      -0.565204       -15.3800
  61   1.0000      -0.562715       -15.3122
  62   1.0000      -0.551410       -15.0046
  63   1.0000      -0.546030       -14.8582
  64   1.0000      -0.537792       -14.6341
  65   1.0000      -0.524978       -14.2854
  66   1.0000      -0.506813       -13.7911
  67   1.0000      -0.494245       -13.4491
  68   1.0000      -0.473249       -12.8778
  69   1.0000      -0.467754       -12.7282
  70   1.0000      -0.441369       -12.0103
  71   1.0000      -0.435611       -11.8536
  72   1.0000      -0.434170       -11.8144
  73   1.0000      -0.425750       -11.5852
  74   1.0000      -0.424036       -11.5386
  75   1.0000      -0.423798       -11.5321
  76   1.0000      -0.366136        -9.9631
  77   0.0000       0.012211         0.3323
  78   0.0000       0.023007         0.6261
  79   0.0000       0.023383         0.6363
  80   0.0000       0.030339         0.8256
  81   0.0000       0.039343         1.0706

                 SPIN DOWN ORBITALS
  NO   OCC          E(Eh)            E(eV)
   0   1.0000    -261.564274     -7117.5257
   1   1.0000    -104.785965     -2851.3711
   2   1.0000    -104.784237     -2851.3240
   3   1.0000    -104.783225     -2851.2965
   4   1.0000     -32.073601      -872.7670
   5   1.0000     -27.551527      -749.7152
   6   1.0000     -27.551482      -749.7139
   7   1.0000     -27.551249      -749.7076
   8   1.0000     -20.588552      -560.2430
   9   1.0000     -11.418824      -310.7220
  10   1.0000     -11.295503      -307.3663
  11   1.0000     -11.272636      -306.7440
  12   1.0000     -11.267504      -306.6044
  13   1.0000     -11.254958      -306.2630
  14   1.0000     -11.249625      -306.1179
  15   1.0000     -11.247823      -306.0688
  16   1.0000     -11.241059      -305.8848
  17   1.0000     -10.512531      -286.0605
  18   1.0000     -10.510751      -286.0121
  19   1.0000     -10.509714      -285.9839
  20   1.0000      -7.978436      -217.1043
  21   1.0000      -7.977766      -217.0860
  22   1.0000      -7.977703      -217.0843
  23   1.0000      -7.976635      -217.0553
  24   1.0000      -7.975995      -217.0378
  25   1.0000      -7.975895      -217.0351
  26   1.0000      -7.975700      -217.0298
  27   1.0000      -7.974883      -217.0076
  28   1.0000      -7.974796      -217.0052
  29   1.0000      -4.148532      -112.8873
  30   1.0000      -2.670132       -72.6580
  31   1.0000      -2.670081       -72.6566
  32   1.0000      -2.669659       -72.6451
  33   1.0000      -1.435693       -39.0672
  34   1.0000      -1.143504       -31.1163
  35   1.0000      -1.093879       -29.7660
  36   1.0000      -1.045140       -28.4397
  37   1.0000      -1.032949       -28.1080
  38   1.0000      -1.031297       -28.0630
  39   1.0000      -1.028458       -27.9858
  40   1.0000      -1.006880       -27.3986
  41   1.0000      -0.970360       -26.4048
  42   1.0000      -0.910347       -24.7718
  43   1.0000      -0.817811       -22.2538
  44   1.0000      -0.742287       -20.1987
  45   1.0000      -0.705110       -19.1870
  46   1.0000      -0.696782       -18.9604
  47   1.0000      -0.687752       -18.7147
  48   1.0000      -0.664740       -18.0885
  49   1.0000      -0.632479       -17.2106
  50   1.0000      -0.619655       -16.8617
  51   1.0000      -0.602877       -16.4051
  52   1.0000      -0.600052       -16.3282
  53   1.0000      -0.582921       -15.8621
  54   1.0000      -0.577372       -15.7111
  55   1.0000      -0.564959       -15.3733
  56   1.0000      -0.562550       -15.3078
  57   1.0000      -0.548758       -14.9325
  58   1.0000      -0.545577       -14.8459
  59   1.0000      -0.536953       -14.6112
  60   1.0000      -0.515912       -14.0387
  61   1.0000      -0.506812       -13.7910
  62   1.0000      -0.493381       -13.4256
  63   1.0000      -0.478473       -13.0199
  64   1.0000      -0.477527       -12.9942
  65   1.0000      -0.448623       -12.2077
  66   1.0000      -0.445551       -12.1240
  67   1.0000      -0.443272       -12.0621
  68   1.0000      -0.428186       -11.6515
  69   1.0000      -0.424166       -11.5422
  70   1.0000      -0.409212       -11.1352
  71   1.0000      -0.364855        -9.9282
  72   0.0000       0.012202         0.3320
  73   0.0000       0.022979         0.6253
  74   0.0000       0.023358         0.6356
  75   0.0000       0.030335         0.8255
  76   0.0000       0.039296         1.0693

E(0)                                       ...  -3028.438476563
E(0)                                       ...  -3028.438476563
E(CORR)(strong-pairs)                      ...     -2.871372073
E(CORR)(weak-pairs)                        ...     -0.036484774
E(CORR)(corrected)                         ...     -2.907856846
E(TOT)                                     ...  -3031.346333409
E(CCSD(T))                                 ...  -3031.465458558
FINAL SINGLE POINT ENERGY     -3031.465458557907

DIPOLE MOMENT
-------------
                                X             Y             Z
Electronic contribution:     42.87847       2.54059       2.24078
Nuclear contribution   :    -46.68785      -3.35910      -2.81177
                        -----------------------------------------
Total Dipole Moment    :     -3.80938      -0.81851      -0.57099
                        -----------------------------------------
Magnitude (a.u.)       :      3.93794
Magnitude (Debye)      :     10.00946

Rotational constants in cm-1:     0.019406     0.011014     0.010369
Rotational constants in MHz :   581.763625   330.202455   310.849579

                             ****ORCA TERMINATED NORMALLY****
TOTAL RUN TIME: 0 days 18 hours 44 minutes 44 seconds 938 msec
