                         Program Version 4.1.2  - RELEASE  -
|  1> ! aug-cc-pVTZ aug-cc-pVTZ/C DLPNO-CCSD(T1) TightSCF NormalPNO UNO MiniPrint AutoAux
|  2> %pal nproc 10 end
|  3> %maxcore 20000
|  4> %mdci
|  5>      density none
|  6> end
|  7>
|  8> * xyz 0 6
|  9>  O     -0.30907300     -0.09026300     -0.41023200
| 10>  C     -1.26767400     -1.03892700     -0.21967700
| 11>  C     -2.47838400     -0.41466400      0.71144200
| 12>  C     -3.02443600      0.69296600     -0.04170700
| 13>  C     -4.23425800      0.53403600     -0.88159500
| 14> Fe      1.51040000      0.17162000     -0.08847700
| 15> Cl      1.80338300      2.23143000     -0.82364800
| 16>  C     -2.25455800      1.91946500     -0.11358200
| 17> Cl      2.55798900     -1.41766600     -1.19566100
| 18> Cl      1.83437900      0.02782200      2.10037300
| 19>  H     -3.21040200     -1.22489800      0.77698700
| 20>  H     -2.68176700      2.70483300     -0.73708200
| 21>  H     -1.93465000      2.29979200      0.86135300
| 22>  H     -1.27876800      1.53345100     -0.54034200
| 23>  H     -5.04808200      1.08345200     -0.38003500
| 24>  H     -4.10903200      1.01031200     -1.86093800
| 25>  H     -4.54582900     -0.50531000     -0.99531000
| 26>  C     -1.92706500     -0.03941500      2.09983700
| 27>  H     -2.62455500      0.61840200      2.62762200
| 28>  H     -1.79998000     -0.93944300      2.70298200
| 29>  H     -0.95556700      0.45212300      2.02648600
| 30>  C     -0.73336600     -2.24970700      0.57110400
| 31>  H     -1.53128300     -2.96000700      0.80947300
| 32>  H      0.00601400     -2.74744500     -0.06388400
| 33>  H     -0.22858500     -1.94031300      1.48677400
| 34>  C     -1.81410800     -1.49990700     -1.58014800
| 35>  H     -1.00716800     -2.01478800     -2.10859100
| 36>  H     -2.65821100     -2.19083600     -1.47669400
| 37>  H     -2.11464000     -0.64939600     -2.19868500
| 38> *
| 39>
| 40>
| 41>                          ****END OF INPUT****

CARTESIAN COORDINATES (ANGSTROEM)
---------------------------------
  O     -0.309073   -0.090263   -0.410232
  C     -1.267674   -1.038927   -0.219677
  C     -2.478384   -0.414664    0.711442
  C     -3.024436    0.692966   -0.041707
  C     -4.234258    0.534036   -0.881595
  Fe     1.510400    0.171620   -0.088477
  Cl     1.803383    2.231430   -0.823648
  C     -2.254558    1.919465   -0.113582
  Cl     2.557989   -1.417666   -1.195661
  Cl     1.834379    0.027822    2.100373
  H     -3.210402   -1.224898    0.776987
  H     -2.681767    2.704833   -0.737082
  H     -1.934650    2.299792    0.861353
  H     -1.278768    1.533451   -0.540342
  H     -5.048082    1.083452   -0.380035
  H     -4.109032    1.010312   -1.860938
  H     -4.545829   -0.505310   -0.995310
  C     -1.927065   -0.039415    2.099837
  H     -2.624555    0.618402    2.627622
  H     -1.799980   -0.939443    2.702982
  H     -0.955567    0.452123    2.026486
  C     -0.733366   -2.249707    0.571104
  H     -1.531283   -2.960007    0.809473
  H      0.006014   -2.747445   -0.063884
  H     -0.228585   -1.940313    1.486774
  C     -1.814108   -1.499907   -1.580148
  H     -1.007168   -2.014788   -2.108591
  H     -2.658211   -2.190836   -1.476694
  H     -2.114640   -0.649396   -2.198685

ORBITAL ENERGIES
----------------
                 SPIN UP ORBITALS
  NO   OCC          E(Eh)            E(eV)
   0   1.0000    -261.536462     -7116.7689
   1   1.0000    -104.765208     -2850.8062
   2   1.0000    -104.764059     -2850.7750
   3   1.0000    -104.761842     -2850.7147
   4   1.0000     -32.204387      -876.3259
   5   1.0000     -27.680248      -753.2178
   6   1.0000     -27.680108      -753.2140
   7   1.0000     -27.679875      -753.2077
   8   1.0000     -20.534041      -558.7597
   9   1.0000     -11.407737      -310.4203
  10   1.0000     -11.341365      -308.6142
  11   1.0000     -11.312824      -307.8376
  12   1.0000     -11.293548      -307.3131
  13   1.0000     -11.282652      -307.0166
  14   1.0000     -11.256314      -306.2999
  15   1.0000     -11.244132      -305.9684
  16   1.0000     -11.231711      -305.6304
  17   1.0000     -10.491822      -285.4970
  18   1.0000     -10.490635      -285.4647
  19   1.0000     -10.488452      -285.4053
  20   1.0000      -7.958699      -216.5672
  21   1.0000      -7.957873      -216.5447
  22   1.0000      -7.957815      -216.5432
  23   1.0000      -7.957464      -216.5336
  24   1.0000      -7.956739      -216.5139
  25   1.0000      -7.956636      -216.5111
  26   1.0000      -7.955295      -216.4746
  27   1.0000      -7.954552      -216.4544
  28   1.0000      -7.954468      -216.4521
  29   1.0000      -4.559876      -124.0805
  30   1.0000      -3.172380       -86.3248
  31   1.0000      -3.172036       -86.3155
  32   1.0000      -3.171521       -86.3015
  33   1.0000      -1.362753       -37.0824
  34   1.0000      -1.207978       -32.8707
  35   1.0000      -1.091886       -29.7117
  36   1.0000      -1.048134       -28.5212
  37   1.0000      -1.035943       -28.1894
  38   1.0000      -1.030868       -28.0513
  39   1.0000      -1.028659       -27.9912
  40   1.0000      -1.024634       -27.8817
  41   1.0000      -0.966001       -26.2862
  42   1.0000      -0.932733       -25.3809
  43   1.0000      -0.902169       -24.5493
  44   1.0000      -0.889505       -24.2047
  45   1.0000      -0.889412       -24.2021
  46   1.0000      -0.881077       -23.9753
  47   1.0000      -0.880767       -23.9669
  48   1.0000      -0.808932       -22.0122
  49   1.0000      -0.768663       -20.9164
  50   1.0000      -0.718437       -19.5497
  51   1.0000      -0.698948       -19.0193
  52   1.0000      -0.679858       -18.4999
  53   1.0000      -0.650514       -17.7014
  54   1.0000      -0.645428       -17.5630
  55   1.0000      -0.637916       -17.3586
  56   1.0000      -0.614190       -16.7130
  57   1.0000      -0.600864       -16.3503
  58   1.0000      -0.593526       -16.1507
  59   1.0000      -0.581938       -15.8353
  60   1.0000      -0.574842       -15.6422
  61   1.0000      -0.562023       -15.2934
  62   1.0000      -0.551762       -15.0142
  63   1.0000      -0.538738       -14.6598
  64   1.0000      -0.528816       -14.3898
  65   1.0000      -0.515510       -14.0278
  66   1.0000      -0.497629       -13.5412
  67   1.0000      -0.461821       -12.5668
  68   1.0000      -0.457266       -12.4428
  69   1.0000      -0.436522       -11.8784
  70   1.0000      -0.429824       -11.6961
  71   1.0000      -0.416119       -11.3232
  72   1.0000      -0.411861       -11.2073
  73   1.0000      -0.407453       -11.0874
  74   1.0000      -0.403778       -10.9873
  75   1.0000      -0.402753       -10.9595
  76   1.0000      -0.401660       -10.9297
  77   0.0000      -0.008178        -0.2225
  78   0.0000      -0.000680        -0.0185
  79   0.0000       0.016110         0.4384
  80   0.0000       0.016606         0.4519
  81   0.0000       0.026218         0.7134

                 SPIN DOWN ORBITALS
  NO   OCC          E(Eh)            E(eV)
   0   1.0000    -261.532914     -7116.6724
   1   1.0000    -104.763853     -2850.7694
   2   1.0000    -104.762718     -2850.7385
   3   1.0000    -104.760432     -2850.6763
   4   1.0000     -32.042311      -871.9156
   5   1.0000     -27.520397      -748.8681
   6   1.0000     -27.520232      -748.8636
   7   1.0000     -27.519725      -748.8498
   8   1.0000     -20.528238      -558.6018
   9   1.0000     -11.407718      -310.4198
  10   1.0000     -11.341199      -308.6097
  11   1.0000     -11.312828      -307.8377
  12   1.0000     -11.293433      -307.3099
  13   1.0000     -11.282650      -307.0165
  14   1.0000     -11.256340      -306.3006
  15   1.0000     -11.244038      -305.9658
  16   1.0000     -11.231676      -305.6294
  17   1.0000     -10.490364      -285.4573
  18   1.0000     -10.489196      -285.4255
  19   1.0000     -10.486940      -285.3641
  20   1.0000      -7.956257      -216.5008
  21   1.0000      -7.955719      -216.4861
  22   1.0000      -7.955647      -216.4842
  23   1.0000      -7.955159      -216.4709
  24   1.0000      -7.954538      -216.4540
  25   1.0000      -7.954430      -216.4511
  26   1.0000      -7.952887      -216.4091
  27   1.0000      -7.952223      -216.3910
  28   1.0000      -7.952145      -216.3889
  29   1.0000      -4.117615      -112.0460
  30   1.0000      -2.639530       -71.8253
  31   1.0000      -2.639435       -71.8227
  32   1.0000      -2.638506       -71.7974
  33   1.0000      -1.348012       -36.6813
  34   1.0000      -1.206916       -32.8418
  35   1.0000      -1.089392       -29.6439
  36   1.0000      -1.047404       -28.5013
  37   1.0000      -1.024051       -27.8658
  38   1.0000      -1.021209       -27.7885
  39   1.0000      -1.010731       -27.5034
  40   1.0000      -1.008644       -27.4466
  41   1.0000      -0.965387       -26.2695
  42   1.0000      -0.932482       -25.3741
  43   1.0000      -0.813562       -22.1381
  44   1.0000      -0.776007       -21.1162
  45   1.0000      -0.719177       -19.5698
  46   1.0000      -0.698555       -19.0086
  47   1.0000      -0.680039       -18.5048
  48   1.0000      -0.650218       -17.6933
  49   1.0000      -0.647093       -17.6083
  50   1.0000      -0.636996       -17.3335
  51   1.0000      -0.614202       -16.7133
  52   1.0000      -0.600753       -16.3473
  53   1.0000      -0.593460       -16.1489
  54   1.0000      -0.580697       -15.8016
  55   1.0000      -0.573485       -15.6053
  56   1.0000      -0.561569       -15.2811
  57   1.0000      -0.551819       -15.0158
  58   1.0000      -0.538779       -14.6609
  59   1.0000      -0.526598       -14.3295
  60   1.0000      -0.511428       -13.9167
  61   1.0000      -0.492035       -13.3890
  62   1.0000      -0.459443       -12.5021
  63   1.0000      -0.457188       -12.4407
  64   1.0000      -0.442754       -12.0480
  65   1.0000      -0.437887       -11.9155
  66   1.0000      -0.426443       -11.6041
  67   1.0000      -0.423120       -11.5137
  68   1.0000      -0.422276       -11.4907
  69   1.0000      -0.401286       -10.9195
  70   1.0000      -0.394458       -10.7338
  71   1.0000      -0.388717       -10.5775
  72   0.0000      -0.008300        -0.2259
  73   0.0000      -0.000685        -0.0186
  74   0.0000       0.016101         0.4381
  75   0.0000       0.016593         0.4515
  76   0.0000       0.026234         0.7139

E(0)                                       ...  -3028.425173939
E(0)                                       ...  -3028.425173939
E(CORR)(strong-pairs)                      ...     -2.873086345
E(CORR)(weak-pairs)                        ...     -0.035150814
E(CORR)(corrected)                         ...     -2.908237159
E(TOT)                                     ...  -3031.333411098
E(CCSD(T))                                 ...  -3031.452083680
FINAL SINGLE POINT ENERGY     -3031.452083679743

DIPOLE MOMENT
-------------
                                X             Y             Z
Electronic contribution:     42.31555       7.06126      -1.11491
Nuclear contribution   :    -48.53315      -7.06473       1.10438
                        -----------------------------------------
Total Dipole Moment    :     -6.21761      -0.00347      -0.01052
                        -----------------------------------------
Magnitude (a.u.)       :      6.21762
Magnitude (Debye)      :     15.80393

Rotational constants in cm-1:     0.020243     0.010237     0.009769
Rotational constants in MHz :   606.865773   306.909302   292.879941

                             ****ORCA TERMINATED NORMALLY****
TOTAL RUN TIME: 0 days 20 hours 15 minutes 57 seconds 398 msec
