                         Program Version 4.1.2  - RELEASE  -
|  1> ! aug-cc-pVTZ aug-cc-pVTZ/C DLPNO-CCSD(T1) TightSCF NormalPNO UNO MiniPrint AutoAux
|  2> %pal nproc 10 end
|  3> %maxcore 20000
|  4> %mdci
|  5>      density none
|  6> end
|  7>
|  8> * xyz 0 6
|  9>  O     -0.36821100     -0.19810700     -0.54678800
| 10>  C     -1.36825500     -1.18337200     -0.41383100
| 11>  C     -2.85318700     -0.11329800     -0.14472600
| 12>  C     -2.05100500      1.10996000     -0.26456900
| 13>  C     -1.92775700      1.79283900     -1.57339900
| 14> Fe      1.38459900      0.04604300      0.03727500
| 15> Cl      1.81545500      2.05172900     -0.80888800
| 16>  C     -1.57505300      1.83833200      0.93310900
| 17> Cl      2.55974200     -1.64995500     -0.71568000
| 18> Cl      1.31120800      0.12166000      2.25688000
| 19>  H     -3.47537200     -0.26875500     -1.02765000
| 20>  H     -2.42681900      2.44422100      1.28540700
| 21>  H     -1.28800600      1.17172800      1.74744600
| 22>  H     -0.74558400      2.50735300      0.69683000
| 23>  H     -2.65761600      2.61981400     -1.56576000
| 24>  H     -0.93092200      2.22645700     -1.69317300
| 25>  H     -2.16648100      1.13665800     -2.41140100
| 26>  C     -3.60468700     -0.37978700      1.14674700
| 27>  H     -4.42605800      0.33502900      1.27961400
| 28>  H     -4.04389200     -1.38103300      1.11920200
| 29>  H     -2.96305300     -0.32262000      2.02873300
| 30>  C     -1.15686500     -2.08747000      0.77653500
| 31>  H     -1.98270400     -2.79388200      0.89995400
| 32>  H     -0.23853300     -2.66152000      0.59566300
| 33>  H     -1.00878000     -1.52314000      1.69860800
| 34>  C     -1.56328300     -1.92209400     -1.71921000
| 35>  H     -0.63589000     -2.46530900     -1.93955900
| 36>  H     -2.38868000     -2.63861500     -1.65795900
| 37>  H     -1.74384300     -1.22769600     -2.54405400
| 38> *
| 39>
| 40>
| 41>                          ****END OF INPUT****

CARTESIAN COORDINATES (ANGSTROEM)
---------------------------------
  O     -0.368211   -0.198107   -0.546788
  C     -1.368255   -1.183372   -0.413831
  C     -2.853187   -0.113298   -0.144726
  C     -2.051005    1.109960   -0.264569
  C     -1.927757    1.792839   -1.573399
  Fe     1.384599    0.046043    0.037275
  Cl     1.815455    2.051729   -0.808888
  C     -1.575053    1.838332    0.933109
  Cl     2.559742   -1.649955   -0.715680
  Cl     1.311208    0.121660    2.256880
  H     -3.475372   -0.268755   -1.027650
  H     -2.426819    2.444221    1.285407
  H     -1.288006    1.171728    1.747446
  H     -0.745584    2.507353    0.696830
  H     -2.657616    2.619814   -1.565760
  H     -0.930922    2.226457   -1.693173
  H     -2.166481    1.136658   -2.411401
  C     -3.604687   -0.379787    1.146747
  H     -4.426058    0.335029    1.279614
  H     -4.043892   -1.381033    1.119202
  H     -2.963053   -0.322620    2.028733
  C     -1.156865   -2.087470    0.776535
  H     -1.982704   -2.793882    0.899954
  H     -0.238533   -2.661520    0.595663
  H     -1.008780   -1.523140    1.698608
  C     -1.563283   -1.922094   -1.719210
  H     -0.635890   -2.465309   -1.939559
  H     -2.388680   -2.638615   -1.657959
  H     -1.743843   -1.227696   -2.544054

ORBITAL ENERGIES
----------------
                 SPIN UP ORBITALS
  NO   OCC          E(Eh)            E(eV)
   0   1.0000    -261.547621     -7117.0726
   1   1.0000    -104.775801     -2851.0945
   2   1.0000    -104.774412     -2851.0567
   3   1.0000    -104.772359     -2851.0008
   4   1.0000     -32.215521      -876.6289
   5   1.0000     -27.691380      -753.5208
   6   1.0000     -27.691296      -753.5185
   7   1.0000     -27.690968      -753.5095
   8   1.0000     -20.550863      -559.2174
   9   1.0000     -11.401101      -310.2397
  10   1.0000     -11.358525      -309.0812
  11   1.0000     -11.288127      -307.1656
  12   1.0000     -11.279363      -306.9271
  13   1.0000     -11.275576      -306.8240
  14   1.0000     -11.262492      -306.4680
  15   1.0000     -11.243237      -305.9440
  16   1.0000     -11.239005      -305.8289
  17   1.0000     -10.502326      -285.7828
  18   1.0000     -10.501026      -285.7474
  19   1.0000     -10.498923      -285.6902
  20   1.0000      -7.969156      -216.8518
  21   1.0000      -7.968405      -216.8313
  22   1.0000      -7.968323      -216.8291
  23   1.0000      -7.967921      -216.8181
  24   1.0000      -7.967064      -216.7948
  25   1.0000      -7.967021      -216.7937
  26   1.0000      -7.965724      -216.7584
  27   1.0000      -7.965039      -216.7397
  28   1.0000      -7.964959      -216.7375
  29   1.0000      -4.570979      -124.3827
  30   1.0000      -3.183439       -86.6258
  31   1.0000      -3.183193       -86.6191
  32   1.0000      -3.182569       -86.6021
  33   1.0000      -1.363382       -37.0995
  34   1.0000      -1.176184       -32.0056
  35   1.0000      -1.085043       -29.5255
  36   1.0000      -1.046786       -28.4845
  37   1.0000      -1.041183       -28.3320
  38   1.0000      -1.040501       -28.3135
  39   1.0000      -1.039280       -28.2803
  40   1.0000      -1.012855       -27.5612
  41   1.0000      -0.971152       -26.4264
  42   1.0000      -0.930854       -25.3298
  43   1.0000      -0.906392       -24.6642
  44   1.0000      -0.900543       -24.5050
  45   1.0000      -0.900309       -24.4987
  46   1.0000      -0.892295       -24.2806
  47   1.0000      -0.891873       -24.2691
  48   1.0000      -0.788525       -21.4569
  49   1.0000      -0.761290       -20.7157
  50   1.0000      -0.699074       -19.0228
  51   1.0000      -0.688677       -18.7398
  52   1.0000      -0.671226       -18.2650
  53   1.0000      -0.641621       -17.4594
  54   1.0000      -0.631108       -17.1733
  55   1.0000      -0.628481       -17.1018
  56   1.0000      -0.598993       -16.2994
  57   1.0000      -0.597448       -16.2574
  58   1.0000      -0.593130       -16.1399
  59   1.0000      -0.581008       -15.8100
  60   1.0000      -0.576008       -15.6740
  61   1.0000      -0.559399       -15.2220
  62   1.0000      -0.551791       -15.0150
  63   1.0000      -0.540473       -14.7070
  64   1.0000      -0.534274       -14.5383
  65   1.0000      -0.525972       -14.3124
  66   1.0000      -0.506557       -13.7841
  67   1.0000      -0.476610       -12.9692
  68   1.0000      -0.462196       -12.5770
  69   1.0000      -0.449999       -12.2451
  70   1.0000      -0.429844       -11.6966
  71   1.0000      -0.425843       -11.5878
  72   1.0000      -0.422129       -11.4867
  73   1.0000      -0.415806       -11.3146
  74   1.0000      -0.413446       -11.2504
  75   1.0000      -0.411841       -11.2068
  76   1.0000      -0.398867       -10.8537
  77   0.0000       0.007270         0.1978
  78   0.0000       0.019284         0.5247
  79   0.0000       0.021773         0.5925
  80   0.0000       0.030572         0.8319
  81   0.0000       0.032501         0.8844

                 SPIN DOWN ORBITALS
  NO   OCC          E(Eh)            E(eV)
   0   1.0000    -261.544074     -7116.9761
   1   1.0000    -104.774500     -2851.0591
   2   1.0000    -104.773052     -2851.0197
   3   1.0000    -104.770924     -2850.9618
   4   1.0000     -32.053521      -872.2207
   5   1.0000     -27.531606      -749.1731
   6   1.0000     -27.531410      -749.1678
   7   1.0000     -27.530930      -749.1547
   8   1.0000     -20.545046      -559.0591
   9   1.0000     -11.401141      -310.2408
  10   1.0000     -11.358396      -309.0777
  11   1.0000     -11.287885      -307.1590
  12   1.0000     -11.279343      -306.9265
  13   1.0000     -11.275588      -306.8243
  14   1.0000     -11.262506      -306.4684
  15   1.0000     -11.243170      -305.9422
  16   1.0000     -11.238979      -305.8282
  17   1.0000     -10.500928      -285.7448
  18   1.0000     -10.499562      -285.7076
  19   1.0000     -10.497388      -285.6484
  20   1.0000      -7.966880      -216.7898
  21   1.0000      -7.966291      -216.7738
  22   1.0000      -7.966208      -216.7716
  23   1.0000      -7.965439      -216.7506
  24   1.0000      -7.964922      -216.7366
  25   1.0000      -7.964853      -216.7347
  26   1.0000      -7.963368      -216.6943
  27   1.0000      -7.962610      -216.6736
  28   1.0000      -7.962548      -216.6719
  29   1.0000      -4.128857      -112.3519
  30   1.0000      -2.650712       -72.1295
  31   1.0000      -2.650650       -72.1278
  32   1.0000      -2.649860       -72.1063
  33   1.0000      -1.348103       -36.6837
  34   1.0000      -1.174903       -31.9707
  35   1.0000      -1.082337       -29.4519
  36   1.0000      -1.039233       -28.2790
  37   1.0000      -1.032450       -28.0944
  38   1.0000      -1.021914       -27.8077
  39   1.0000      -1.019236       -27.7348
  40   1.0000      -1.012285       -27.5457
  41   1.0000      -0.970508       -26.4089
  42   1.0000      -0.927207       -25.2306
  43   1.0000      -0.793280       -21.5862
  44   1.0000      -0.766211       -20.8497
  45   1.0000      -0.699213       -19.0266
  46   1.0000      -0.687978       -18.7208
  47   1.0000      -0.672274       -18.2935
  48   1.0000      -0.643456       -17.5093
  49   1.0000      -0.629663       -17.1340
  50   1.0000      -0.627882       -17.0855
  51   1.0000      -0.598157       -16.2767
  52   1.0000      -0.597521       -16.2594
  53   1.0000      -0.592962       -16.1353
  54   1.0000      -0.579475       -15.7683
  55   1.0000      -0.575642       -15.6640
  56   1.0000      -0.559349       -15.2207
  57   1.0000      -0.550093       -14.9688
  58   1.0000      -0.539965       -14.6932
  59   1.0000      -0.532918       -14.5014
  60   1.0000      -0.520255       -14.1569
  61   1.0000      -0.502039       -13.6612
  62   1.0000      -0.473025       -12.8717
  63   1.0000      -0.465673       -12.6716
  64   1.0000      -0.460009       -12.5175
  65   1.0000      -0.436864       -11.8877
  66   1.0000      -0.433345       -11.7919
  67   1.0000      -0.432153       -11.7595
  68   1.0000      -0.424988       -11.5645
  69   1.0000      -0.411525       -11.1982
  70   1.0000      -0.399689       -10.8761
  71   1.0000      -0.394560       -10.7365
  72   0.0000       0.007246         0.1972
  73   0.0000       0.019132         0.5206
  74   0.0000       0.021754         0.5920
  75   0.0000       0.030607         0.8329
  76   0.0000       0.031637         0.8609

E(0)                                       ...  -3028.424622155
E(0)                                       ...  -3028.424622155
E(CORR)(strong-pairs)                      ...     -2.871000535
E(CORR)(weak-pairs)                        ...     -0.035574219
E(CORR)(corrected)                         ...     -2.906574754
E(TOT)                                     ...  -3031.331196910
E(CCSD(T))                                 ...  -3031.449840429
FINAL SINGLE POINT ENERGY     -3031.449840428631

DIPOLE MOMENT
-------------
                                X             Y             Z
Electronic contribution:     40.15776       4.02294       2.13134
Nuclear contribution   :    -44.86273      -3.63198      -2.58903
                        -----------------------------------------
Total Dipole Moment    :     -4.70497       0.39096      -0.45769
                        -----------------------------------------
Magnitude (a.u.)       :      4.74332
Magnitude (Debye)      :     12.05656

Rotational constants in cm-1:     0.018985     0.011859     0.010746
Rotational constants in MHz :   569.149942   355.518286   322.166949

                             ****ORCA TERMINATED NORMALLY****
TOTAL RUN TIME: 0 days 20 hours 1 minutes 19 seconds 589 msec
