                         Program Version 4.1.2  - RELEASE  -
|  1> ! aug-cc-pVTZ aug-cc-pVTZ/C DLPNO-CCSD(T1) TightSCF NormalPNO UNO MiniPrint AutoAux
|  2> %pal nproc 10 end
|  3> %maxcore 20000
|  4> %mdci
|  5>      density none
|  6> end
|  7>
|  8> * xyz 0 6
|  9>  O     -0.22607500     -0.38871400     -0.65633100
| 10>  C     -1.32214700     -1.13810600     -0.31108000
| 11>  C     -2.27393200     -0.36392600      0.71593300
| 12>  C     -2.94178000      0.71118400     -0.01203200
| 13>  C     -4.35298400      0.59166700     -0.43360600
| 14> Fe      1.47708000      0.12179300     -0.09398600
| 15> Cl      2.83618600     -0.24906600     -1.77591100
| 16>  C     -2.14332100      1.84554900     -0.44433800
| 17> Cl      2.05839800     -0.97337000      1.73690100
| 18> Cl      1.24687200      2.29722700      0.37376200
| 19>  H     -3.02116000     -1.10248800      1.02350100
| 20>  H     -2.66515700      2.56422500     -1.07649400
| 21>  H     -1.61400600      2.34381300      0.37777600
| 22>  H     -1.27510100      1.37089100     -0.97070200
| 23>  H     -4.93783800      1.23878700      0.24306400
| 24>  H     -4.51190800      0.98945200     -1.44196900
| 25>  H     -4.74354900     -0.42365200     -0.34609600
| 26>  C     -1.48953100      0.13029500      1.95014500
| 27>  H     -2.16089100      0.65927100      2.63373800
| 28>  H     -1.06127700     -0.71718100      2.48547000
| 29>  H     -0.67500000      0.79939000      1.67462100
| 30>  C     -0.91152600     -2.44875000      0.39727900
| 31>  H     -1.78875100     -3.03756200      0.68370600
| 32>  H     -0.31616400     -3.02889500     -0.31364900
| 33>  H     -0.28837100     -2.26288400      1.27125200
| 34>  C     -2.09017900     -1.48980200     -1.60180700
| 35>  H     -1.44733300     -2.11715200     -2.22416200
| 36>  H     -3.01562100     -2.03928600     -1.39449600
| 37>  H     -2.32568100     -0.59373100     -2.18501300
| 38> *
| 39>
| 40>
| 41>                          ****END OF INPUT****

CARTESIAN COORDINATES (ANGSTROEM)
---------------------------------
  O     -0.226075   -0.388714   -0.656331
  C     -1.322147   -1.138106   -0.311080
  C     -2.273932   -0.363926    0.715933
  C     -2.941780    0.711184   -0.012032
  C     -4.352984    0.591667   -0.433606
  Fe     1.477080    0.121793   -0.093986
  Cl     2.836186   -0.249066   -1.775911
  C     -2.143321    1.845549   -0.444338
  Cl     2.058398   -0.973370    1.736901
  Cl     1.246872    2.297227    0.373762
  H     -3.021160   -1.102488    1.023501
  H     -2.665157    2.564225   -1.076494
  H     -1.614006    2.343813    0.377776
  H     -1.275101    1.370891   -0.970702
  H     -4.937838    1.238787    0.243064
  H     -4.511908    0.989452   -1.441969
  H     -4.743549   -0.423652   -0.346096
  C     -1.489531    0.130295    1.950145
  H     -2.160891    0.659271    2.633738
  H     -1.061277   -0.717181    2.485470
  H     -0.675000    0.799390    1.674621
  C     -0.911526   -2.448750    0.397279
  H     -1.788751   -3.037562    0.683706
  H     -0.316164   -3.028895   -0.313649
  H     -0.288371   -2.262884    1.271252
  C     -2.090179   -1.489802   -1.601807
  H     -1.447333   -2.117152   -2.224162
  H     -3.015621   -2.039286   -1.394496
  H     -2.325681   -0.593731   -2.185013

ORBITAL ENERGIES
----------------
                 SPIN UP ORBITALS
  NO   OCC          E(Eh)            E(eV)
   0   1.0000    -261.536034     -7116.7573
   1   1.0000    -104.767183     -2850.8600
   2   1.0000    -104.763980     -2850.7728
   3   1.0000    -104.756741     -2850.5758
   4   1.0000     -32.203815      -876.3104
   5   1.0000     -27.679683      -753.2025
   6   1.0000     -27.679613      -753.2006
   7   1.0000     -27.679299      -753.1920
   8   1.0000     -20.529469      -558.6353
   9   1.0000     -11.417508      -310.6862
  10   1.0000     -11.334647      -308.4314
  11   1.0000     -11.318568      -307.9939
  12   1.0000     -11.294144      -307.3293
  13   1.0000     -11.285438      -307.0924
  14   1.0000     -11.256069      -306.2932
  15   1.0000     -11.245989      -306.0189
  16   1.0000     -11.229397      -305.5674
  17   1.0000     -10.493805      -285.5510
  18   1.0000     -10.490706      -285.4666
  19   1.0000     -10.483338      -285.2661
  20   1.0000      -7.960711      -216.6220
  21   1.0000      -7.959843      -216.5983
  22   1.0000      -7.959761      -216.5961
  23   1.0000      -7.957556      -216.5361
  24   1.0000      -7.956755      -216.5143
  25   1.0000      -7.956748      -216.5141
  26   1.0000      -7.950176      -216.3353
  27   1.0000      -7.949471      -216.3161
  28   1.0000      -7.949345      -216.3127
  29   1.0000      -4.559153      -124.0609
  30   1.0000      -3.171633       -86.3045
  31   1.0000      -3.171204       -86.2928
  32   1.0000      -3.170967       -86.2864
  33   1.0000      -1.352171       -36.7944
  34   1.0000      -1.212190       -32.9854
  35   1.0000      -1.095242       -29.8030
  36   1.0000      -1.049696       -28.5637
  37   1.0000      -1.036070       -28.1929
  38   1.0000      -1.031958       -28.0810
  39   1.0000      -1.029481       -28.0136
  40   1.0000      -1.024855       -27.8877
  41   1.0000      -0.963497       -26.2181
  42   1.0000      -0.932603       -25.3774
  43   1.0000      -0.900754       -24.5108
  44   1.0000      -0.889075       -24.1930
  45   1.0000      -0.888025       -24.1644
  46   1.0000      -0.881131       -23.9768
  47   1.0000      -0.879662       -23.9368
  48   1.0000      -0.817284       -22.2394
  49   1.0000      -0.767893       -20.8954
  50   1.0000      -0.721343       -19.6287
  51   1.0000      -0.699139       -19.0246
  52   1.0000      -0.681582       -18.5468
  53   1.0000      -0.653249       -17.7758
  54   1.0000      -0.643150       -17.5010
  55   1.0000      -0.637166       -17.3382
  56   1.0000      -0.618780       -16.8379
  57   1.0000      -0.601124       -16.3574
  58   1.0000      -0.594337       -16.1727
  59   1.0000      -0.581617       -15.8266
  60   1.0000      -0.574005       -15.6195
  61   1.0000      -0.561951       -15.2915
  62   1.0000      -0.548932       -14.9372
  63   1.0000      -0.538986       -14.6666
  64   1.0000      -0.526506       -14.3270
  65   1.0000      -0.523053       -14.2330
  66   1.0000      -0.497402       -13.5350
  67   1.0000      -0.460500       -12.5308
  68   1.0000      -0.456782       -12.4297
  69   1.0000      -0.437349       -11.9009
  70   1.0000      -0.426159       -11.5964
  71   1.0000      -0.417389       -11.3577
  72   1.0000      -0.410552       -11.1717
  73   1.0000      -0.408341       -11.1115
  74   1.0000      -0.403706       -10.9854
  75   1.0000      -0.400589       -10.9006
  76   1.0000      -0.397896       -10.8273
  77   0.0000      -0.014928        -0.4062
  78   0.0000      -0.002018        -0.0549
  79   0.0000       0.015469         0.4209
  80   0.0000       0.016335         0.4445
  81   0.0000       0.025770         0.7012

                 SPIN DOWN ORBITALS
  NO   OCC          E(Eh)            E(eV)
   0   1.0000    -261.532509     -7116.6614
   1   1.0000    -104.765915     -2850.8255
   2   1.0000    -104.762591     -2850.7350
   3   1.0000    -104.755307     -2850.5368
   4   1.0000     -32.041725      -871.8997
   5   1.0000     -27.519866      -748.8536
   6   1.0000     -27.519728      -748.8499
   7   1.0000     -27.519076      -748.8321
   8   1.0000     -20.523406      -558.4703
   9   1.0000     -11.417531      -310.6868
  10   1.0000     -11.334439      -308.4258
  11   1.0000     -11.318566      -307.9938
  12   1.0000     -11.294055      -307.3269
  13   1.0000     -11.285434      -307.0923
  14   1.0000     -11.256104      -306.2942
  15   1.0000     -11.245881      -306.0160
  16   1.0000     -11.229338      -305.5658
  17   1.0000     -10.492434      -285.5136
  18   1.0000     -10.489212      -285.4260
  19   1.0000     -10.481804      -285.2244
  20   1.0000      -7.958286      -216.5560
  21   1.0000      -7.957904      -216.5456
  22   1.0000      -7.957816      -216.5432
  23   1.0000      -7.955134      -216.4702
  24   1.0000      -7.954504      -216.4530
  25   1.0000      -7.954475      -216.4523
  26   1.0000      -7.947765      -216.2697
  27   1.0000      -7.947064      -216.2506
  28   1.0000      -7.946968      -216.2480
  29   1.0000      -4.116827      -112.0246
  30   1.0000      -2.638975       -71.8102
  31   1.0000      -2.638633       -71.8008
  32   1.0000      -2.637452       -71.7687
  33   1.0000      -1.336836       -36.3772
  34   1.0000      -1.211197       -32.9583
  35   1.0000      -1.092578       -29.7306
  36   1.0000      -1.048863       -28.5410
  37   1.0000      -1.028419       -27.9847
  38   1.0000      -1.022265       -27.8172
  39   1.0000      -1.012243       -27.5445
  40   1.0000      -1.004298       -27.3283
  41   1.0000      -0.962890       -26.2016
  42   1.0000      -0.932438       -25.3729
  43   1.0000      -0.820972       -22.3398
  44   1.0000      -0.775303       -21.0971
  45   1.0000      -0.722103       -19.6494
  46   1.0000      -0.699664       -19.0388
  47   1.0000      -0.681630       -18.5481
  48   1.0000      -0.653517       -17.7831
  49   1.0000      -0.645159       -17.5557
  50   1.0000      -0.635237       -17.2857
  51   1.0000      -0.618768       -16.8375
  52   1.0000      -0.601105       -16.3569
  53   1.0000      -0.594072       -16.1655
  54   1.0000      -0.580737       -15.8027
  55   1.0000      -0.572647       -15.5825
  56   1.0000      -0.561059       -15.2672
  57   1.0000      -0.548962       -14.9380
  58   1.0000      -0.539224       -14.6730
  59   1.0000      -0.523842       -14.2545
  60   1.0000      -0.518411       -14.1067
  61   1.0000      -0.491435       -13.3726
  62   1.0000      -0.459275       -12.4975
  63   1.0000      -0.454769       -12.3749
  64   1.0000      -0.442663       -12.0455
  65   1.0000      -0.433765       -11.8034
  66   1.0000      -0.426748       -11.6124
  67   1.0000      -0.422536       -11.4978
  68   1.0000      -0.421383       -11.4664
  69   1.0000      -0.400072       -10.8865
  70   1.0000      -0.392492       -10.6802
  71   1.0000      -0.387391       -10.5414
  72   0.0000      -0.015194        -0.4134
  73   0.0000      -0.002020        -0.0550
  74   0.0000       0.015462         0.4207
  75   0.0000       0.016316         0.4440
  76   0.0000       0.025786         0.7017

E(0)                                       ...  -3028.421941144
E(0)                                       ...  -3028.421941144
E(CORR)(strong-pairs)                      ...     -2.873287297
E(CORR)(weak-pairs)                        ...     -0.034511256
E(CORR)(corrected)                         ...     -2.907798552
E(TOT)                                     ...  -3031.329739696
E(CCSD(T))                                 ...  -3031.448186768
FINAL SINGLE POINT ENERGY     -3031.448186768354

DIPOLE MOMENT
-------------
                                X             Y             Z
Electronic contribution:     42.04469       7.18840      -0.23606
Nuclear contribution   :    -48.45495      -7.09811       0.29953
                        -----------------------------------------
Total Dipole Moment    :     -6.41026       0.09029       0.06347
                        -----------------------------------------
Magnitude (a.u.)       :      6.41121
Magnitude (Debye)      :     16.29600

Rotational constants in cm-1:     0.021007     0.010308     0.009778
Rotational constants in MHz :   629.784198   309.030653   293.137525

                             ****ORCA TERMINATED NORMALLY****
TOTAL RUN TIME: 0 days 20 hours 38 minutes 32 seconds 357 msec
