                         Program Version 4.1.2  - RELEASE  -
|  1> ! aug-cc-pVTZ aug-cc-pVTZ/C DLPNO-CCSD(T1) TightSCF NormalPNO UNO MiniPrint AutoAux
|  2> %pal nproc 10 end
|  3> %maxcore 20000
|  4> %mdci
|  5>      density none
|  6> end
|  7>
|  8> * xyz 0 6
|  9>  O     -0.35622700     -0.26948700     -0.59677900
| 10>  C     -1.44698200     -1.18458900     -0.36099400
| 11>  C     -2.72844000     -0.14862100     -0.27649000
| 12>  C     -1.98688300      1.16402600     -0.24176100
| 13>  C     -1.84033900      1.96720200     -1.47156100
| 14> Fe      1.37987700      0.02201400      0.01407100
| 15> Cl      1.77900500      2.04263900     -0.82742000
| 16>  C     -1.60627500      1.78691500      1.04187100
| 17> Cl      2.62106400     -1.63575700     -0.70598700
| 18> Cl      1.32203000      0.14717500      2.23135800
| 19>  H     -3.25731200     -0.21559300     -1.23179400
| 20>  H     -2.49799300      2.33015300      1.39897600
| 21>  H     -1.33829600      1.05670700      1.80643800
| 22>  H     -0.79437100      2.50654400      0.91667700
| 23>  H     -2.53738000      2.81867900     -1.39637800
| 24>  H     -0.82740400      2.38385100     -1.52506500
| 25>  H     -2.06833300      1.39970000     -2.37408900
| 26>  C     -3.71744300     -0.37921500      0.86521700
| 27>  H     -4.52271800      0.36382600      0.84488100
| 28>  H     -4.17806800     -1.36516300      0.75397000
| 29>  H     -3.24137900     -0.34196500      1.84755900
| 30>  C     -1.22816200     -1.97804500      0.91806800
| 31>  H     -2.05745200     -2.66758300      1.10445400
| 32>  H     -0.31318400     -2.56995800      0.80512400
| 33>  H     -1.09184300     -1.33421400      1.78888900
| 34>  C     -1.57653600     -2.09768200     -1.57053900
| 35>  H     -0.66443900     -2.69617700     -1.66566400
| 36>  H     -2.43286700     -2.77421300     -1.46766000
| 37>  H     -1.69327500     -1.50997000     -2.48596500
| 38> *
| 39>
| 40>
| 41>                          ****END OF INPUT****

CARTESIAN COORDINATES (ANGSTROEM)
---------------------------------
  O     -0.356227   -0.269487   -0.596779
  C     -1.446982   -1.184589   -0.360994
  C     -2.728440   -0.148621   -0.276490
  C     -1.986883    1.164026   -0.241761
  C     -1.840339    1.967202   -1.471561
  Fe     1.379877    0.022014    0.014071
  Cl     1.779005    2.042639   -0.827420
  C     -1.606275    1.786915    1.041871
  Cl     2.621064   -1.635757   -0.705987
  Cl     1.322030    0.147175    2.231358
  H     -3.257312   -0.215593   -1.231794
  H     -2.497993    2.330153    1.398976
  H     -1.338296    1.056707    1.806438
  H     -0.794371    2.506544    0.916677
  H     -2.537380    2.818679   -1.396378
  H     -0.827404    2.383851   -1.525065
  H     -2.068333    1.399700   -2.374089
  C     -3.717443   -0.379215    0.865217
  H     -4.522718    0.363826    0.844881
  H     -4.178068   -1.365163    0.753970
  H     -3.241379   -0.341965    1.847559
  C     -1.228162   -1.978045    0.918068
  H     -2.057452   -2.667583    1.104454
  H     -0.313184   -2.569958    0.805124
  H     -1.091843   -1.334214    1.788889
  C     -1.576536   -2.097682   -1.570539
  H     -0.664439   -2.696177   -1.665664
  H     -2.432867   -2.774213   -1.467660
  H     -1.693275   -1.509970   -2.485965

ORBITAL ENERGIES
----------------
                 SPIN UP ORBITALS
  NO   OCC          E(Eh)            E(eV)
   0   1.0000    -261.544206     -7116.9797
   1   1.0000    -104.774260     -2851.0526
   2   1.0000    -104.772642     -2851.0085
   3   1.0000    -104.768750     -2850.9026
   4   1.0000     -32.212094      -876.5356
   5   1.0000     -27.688003      -753.4289
   6   1.0000     -27.687841      -753.4244
   7   1.0000     -27.687513      -753.4155
   8   1.0000     -20.546823      -559.1075
   9   1.0000     -11.413669      -310.5817
  10   1.0000     -11.334938      -308.4393
  11   1.0000     -11.295366      -307.3625
  12   1.0000     -11.284057      -307.0548
  13   1.0000     -11.283787      -307.0475
  14   1.0000     -11.268114      -306.6210
  15   1.0000     -11.235326      -305.7288
  16   1.0000     -11.233708      -305.6847
  17   1.0000     -10.500831      -285.7421
  18   1.0000     -10.499338      -285.7015
  19   1.0000     -10.495348      -285.5929
  20   1.0000      -7.967674      -216.8114
  21   1.0000      -7.966901      -216.7904
  22   1.0000      -7.966814      -216.7880
  23   1.0000      -7.966229      -216.7721
  24   1.0000      -7.965366      -216.7486
  25   1.0000      -7.965344      -216.7480
  26   1.0000      -7.962148      -216.6611
  27   1.0000      -7.961477      -216.6428
  28   1.0000      -7.961380      -216.6402
  29   1.0000      -4.567525      -124.2887
  30   1.0000      -3.179946       -86.5307
  31   1.0000      -3.179719       -86.5246
  32   1.0000      -3.179185       -86.5100
  33   1.0000      -1.347090       -36.6562
  34   1.0000      -1.181633       -32.1539
  35   1.0000      -1.094529       -29.7836
  36   1.0000      -1.044791       -28.4302
  37   1.0000      -1.039827       -28.2951
  38   1.0000      -1.036396       -28.2018
  39   1.0000      -1.036210       -28.1967
  40   1.0000      -1.020218       -27.7615
  41   1.0000      -0.963710       -26.2239
  42   1.0000      -0.935013       -25.4430
  43   1.0000      -0.901018       -24.5179
  44   1.0000      -0.896881       -24.4054
  45   1.0000      -0.896757       -24.4020
  46   1.0000      -0.889147       -24.1949
  47   1.0000      -0.888615       -24.1805
  48   1.0000      -0.802894       -21.8479
  49   1.0000      -0.759543       -20.6682
  50   1.0000      -0.704154       -19.1610
  51   1.0000      -0.689616       -18.7654
  52   1.0000      -0.672689       -18.3048
  53   1.0000      -0.636372       -17.3166
  54   1.0000      -0.635861       -17.3027
  55   1.0000      -0.621637       -16.9156
  56   1.0000      -0.606042       -16.4912
  57   1.0000      -0.597760       -16.2659
  58   1.0000      -0.595107       -16.1937
  59   1.0000      -0.584273       -15.8989
  60   1.0000      -0.576944       -15.6994
  61   1.0000      -0.558707       -15.2032
  62   1.0000      -0.545660       -14.8482
  63   1.0000      -0.537472       -14.6254
  64   1.0000      -0.527099       -14.3431
  65   1.0000      -0.519672       -14.1410
  66   1.0000      -0.502610       -13.6767
  67   1.0000      -0.470601       -12.8057
  68   1.0000      -0.465135       -12.6570
  69   1.0000      -0.447871       -12.1872
  70   1.0000      -0.436858       -11.8875
  71   1.0000      -0.425212       -11.5706
  72   1.0000      -0.420412       -11.4400
  73   1.0000      -0.415768       -11.3136
  74   1.0000      -0.412046       -11.2123
  75   1.0000      -0.411159       -11.1882
  76   1.0000      -0.408951       -11.1281
  77   0.0000       0.005299         0.1442
  78   0.0000       0.017275         0.4701
  79   0.0000       0.020923         0.5693
  80   0.0000       0.026534         0.7220
  81   0.0000       0.030238         0.8228

                 SPIN DOWN ORBITALS
  NO   OCC          E(Eh)            E(eV)
   0   1.0000    -261.540661     -7116.8832
   1   1.0000    -104.772981     -2851.0178
   2   1.0000    -104.771287     -2850.9716
   3   1.0000    -104.767304     -2850.8633
   4   1.0000     -32.050082      -872.1271
   5   1.0000     -27.528223      -749.0810
   6   1.0000     -27.527967      -749.0741
   7   1.0000     -27.527458      -749.0602
   8   1.0000     -20.540713      -558.9412
   9   1.0000     -11.413718      -310.5831
  10   1.0000     -11.334709      -308.4331
  11   1.0000     -11.295255      -307.3595
  12   1.0000     -11.284064      -307.0550
  13   1.0000     -11.283766      -307.0469
  14   1.0000     -11.268109      -306.6208
  15   1.0000     -11.235273      -305.7273
  16   1.0000     -11.233687      -305.6842
  17   1.0000     -10.499453      -285.7046
  18   1.0000     -10.497878      -285.6618
  19   1.0000     -10.493801      -285.5508
  20   1.0000      -7.965383      -216.7491
  21   1.0000      -7.964854      -216.7347
  22   1.0000      -7.964771      -216.7324
  23   1.0000      -7.963757      -216.7048
  24   1.0000      -7.963234      -216.6906
  25   1.0000      -7.963182      -216.6892
  26   1.0000      -7.959787      -216.5968
  27   1.0000      -7.959014      -216.5758
  28   1.0000      -7.958952      -216.5741
  29   1.0000      -4.125424      -112.2585
  30   1.0000      -2.647400       -72.0394
  31   1.0000      -2.647297       -72.0366
  32   1.0000      -2.646251       -72.0082
  33   1.0000      -1.331230       -36.2246
  34   1.0000      -1.180000       -32.1094
  35   1.0000      -1.092007       -29.7150
  36   1.0000      -1.034503       -28.1503
  37   1.0000      -1.030868       -28.0513
  38   1.0000      -1.022870       -27.8337
  39   1.0000      -1.017799       -27.6957
  40   1.0000      -1.015734       -27.6395
  41   1.0000      -0.962913       -26.2022
  42   1.0000      -0.931829       -25.3564
  43   1.0000      -0.805572       -21.9207
  44   1.0000      -0.764255       -20.7964
  45   1.0000      -0.704296       -19.1649
  46   1.0000      -0.689509       -18.7625
  47   1.0000      -0.673871       -18.3370
  48   1.0000      -0.637785       -17.3550
  49   1.0000      -0.635873       -17.3030
  50   1.0000      -0.620183       -16.8760
  51   1.0000      -0.606168       -16.4947
  52   1.0000      -0.596781       -16.2392
  53   1.0000      -0.594611       -16.1802
  54   1.0000      -0.583625       -15.8813
  55   1.0000      -0.575813       -15.6687
  56   1.0000      -0.558135       -15.1876
  57   1.0000      -0.542199       -14.7540
  58   1.0000      -0.537165       -14.6170
  59   1.0000      -0.524579       -14.2745
  60   1.0000      -0.514860       -14.0100
  61   1.0000      -0.499138       -13.5822
  62   1.0000      -0.468046       -12.7362
  63   1.0000      -0.464453       -12.6384
  64   1.0000      -0.455604       -12.3976
  65   1.0000      -0.443752       -12.0751
  66   1.0000      -0.435727       -11.8567
  67   1.0000      -0.430619       -11.7177
  68   1.0000      -0.430395       -11.7117
  69   1.0000      -0.410057       -11.1582
  70   1.0000      -0.402495       -10.9524
  71   1.0000      -0.397418       -10.8143
  72   0.0000       0.005261         0.1432
  73   0.0000       0.016908         0.4601
  74   0.0000       0.020902         0.5688
  75   0.0000       0.025797         0.7020
  76   0.0000       0.030257         0.8233

E(0)                                       ...  -3028.437284436
E(0)                                       ...  -3028.437284436
E(CORR)(strong-pairs)                      ...     -2.869973532
E(CORR)(weak-pairs)                        ...     -0.034989070
E(CORR)(corrected)                         ...     -2.904962602
E(TOT)                                     ...  -3031.342247038
E(CCSD(T))                                 ...  -3031.460101127
FINAL SINGLE POINT ENERGY     -3031.460101126534

DIPOLE MOMENT
-------------
                                X             Y             Z
Electronic contribution:     40.32867       4.06712       1.55482
Nuclear contribution   :    -45.27405      -3.36900      -1.87062
                        -----------------------------------------
Total Dipole Moment    :     -4.94538       0.69812      -0.31580
                        -----------------------------------------
Magnitude (a.u.)       :      5.00439
Magnitude (Debye)      :     12.72014

Rotational constants in cm-1:     0.019111     0.011917     0.010608
Rotational constants in MHz :   572.933312   357.253653   318.024846

                             ****ORCA TERMINATED NORMALLY****
TOTAL RUN TIME: 0 days 20 hours 46 minutes 35 seconds 677 msec
