                         Program Version 4.1.2  - RELEASE  -
|  1> ! aug-cc-pVTZ aug-cc-pVTZ/C DLPNO-CCSD(T1) TightSCF NormalPNO UNO MiniPrint AutoAux
|  2> %pal nproc 10 end
|  3> %maxcore 20000
|  4> %mdci
|  5>      density none
|  6> end
|  7>
|  8> * xyz 0 6
|  9>  O     -0.33228200     -0.10593000     -0.58450600
| 10>  C     -1.23038500     -1.03410900     -0.52241400
| 11>  C     -3.10834100     -0.01285300     -0.00249700
| 12>  C     -2.27941500      1.05737600     -0.20324200
| 13>  C     -2.15928500      1.71547600     -1.54045800
| 14> Fe      1.45181300      0.06203600      0.05206000
| 15> Cl      2.06000500      2.00279400     -0.76910100
| 16>  C     -1.57510700      1.75412500      0.91830600
| 17> Cl      2.43819500     -1.72606200     -0.76390200
| 18> Cl      1.38336200      0.03031700      2.25753600
| 19>  H     -3.69280200     -0.34378000     -0.85798200
| 20>  H     -2.26737900      2.50084100      1.33400100
| 21>  H     -1.28330400      1.08795600      1.73103000
| 22>  H     -0.68793400      2.28375800      0.56430100
| 23>  H     -2.55777700      2.73525000     -1.44847300
| 24>  H     -1.10909400      1.80683900     -1.83335300
| 25>  H     -2.72602600      1.20341800     -2.32126100
| 26>  C     -3.62871200     -0.46554100      1.33709300
| 27>  H     -4.54688900      0.08816500      1.57442700
| 28>  H     -3.89095700     -1.52747400      1.33153500
| 29>  H     -2.92399900     -0.29147300      2.15293100
| 30>  C     -1.15848100     -1.99708900      0.63106600
| 31>  H     -2.02835400     -2.65129700      0.69347300
| 32>  H     -0.27325600     -2.61867900      0.43031600
| 33>  H     -0.98240300     -1.48857900      1.57924800
| 34>  C     -1.67403700     -1.60105200     -1.84767900
| 35>  H     -0.82999600     -2.21164400     -2.19861100
| 36>  H     -2.55533300     -2.23940600     -1.75952700
| 37>  H     -1.83733900     -0.81722000     -2.58766600
| 38> *
| 39>
| 40>
| 41>                          ****END OF INPUT****

CARTESIAN COORDINATES (ANGSTROEM)
---------------------------------
  O     -0.332282   -0.105930   -0.584506
  C     -1.230385   -1.034109   -0.522414
  C     -3.108341   -0.012853   -0.002497
  C     -2.279415    1.057376   -0.203242
  C     -2.159285    1.715476   -1.540458
  Fe     1.451813    0.062036    0.052060
  Cl     2.060005    2.002794   -0.769101
  C     -1.575107    1.754125    0.918306
  Cl     2.438195   -1.726062   -0.763902
  Cl     1.383362    0.030317    2.257536
  H     -3.692802   -0.343780   -0.857982
  H     -2.267379    2.500841    1.334001
  H     -1.283304    1.087956    1.731030
  H     -0.687934    2.283758    0.564301
  H     -2.557777    2.735250   -1.448473
  H     -1.109094    1.806839   -1.833353
  H     -2.726026    1.203418   -2.321261
  C     -3.628712   -0.465541    1.337093
  H     -4.546889    0.088165    1.574427
  H     -3.890957   -1.527474    1.331535
  H     -2.923999   -0.291473    2.152931
  C     -1.158481   -1.997089    0.631066
  H     -2.028354   -2.651297    0.693473
  H     -0.273256   -2.618679    0.430316
  H     -0.982403   -1.488579    1.579248
  C     -1.674037   -1.601052   -1.847679
  H     -0.829996   -2.211644   -2.198611
  H     -2.555333   -2.239406   -1.759527
  H     -1.837339   -0.817220   -2.587666

ORBITAL ENERGIES
----------------
                 SPIN UP ORBITALS
  NO   OCC          E(Eh)            E(eV)
   0   1.0000    -261.561657     -7117.4545
   1   1.0000    -104.783250     -2851.2972
   2   1.0000    -104.781999     -2851.2631
   3   1.0000    -104.781518     -2851.2501
   4   1.0000     -32.229496      -877.0092
   5   1.0000     -27.705688      -753.9101
   6   1.0000     -27.704998      -753.8913
   7   1.0000     -27.704858      -753.8875
   8   1.0000     -20.576170      -559.9061
   9   1.0000     -11.411894      -310.5334
  10   1.0000     -11.319198      -308.0110
  11   1.0000     -11.267543      -306.6054
  12   1.0000     -11.264178      -306.5139
  13   1.0000     -11.262682      -306.4732
  14   1.0000     -11.254827      -306.2594
  15   1.0000     -11.254509      -306.2508
  16   1.0000     -11.249339      -306.1101
  17   1.0000     -10.509890      -285.9886
  18   1.0000     -10.508585      -285.9531
  19   1.0000     -10.508076      -285.9393
  20   1.0000      -7.976759      -217.0586
  21   1.0000      -7.975950      -217.0366
  22   1.0000      -7.975909      -217.0355
  23   1.0000      -7.975446      -217.0229
  24   1.0000      -7.974877      -217.0074
  25   1.0000      -7.974683      -217.0022
  26   1.0000      -7.974597      -216.9998
  27   1.0000      -7.974191      -216.9888
  28   1.0000      -7.974113      -216.9867
  29   1.0000      -4.584787      -124.7584
  30   1.0000      -3.197733       -87.0147
  31   1.0000      -3.196553       -86.9826
  32   1.0000      -3.196183       -86.9726
  33   1.0000      -1.430118       -38.9155
  34   1.0000      -1.155769       -31.4501
  35   1.0000      -1.092440       -29.7268
  36   1.0000      -1.055802       -28.7298
  37   1.0000      -1.050405       -28.5830
  38   1.0000      -1.048643       -28.5350
  39   1.0000      -1.034364       -28.1465
  40   1.0000      -1.002525       -27.2801
  41   1.0000      -0.978962       -26.6389
  42   1.0000      -0.932307       -25.3694
  43   1.0000      -0.916885       -24.9497
  44   1.0000      -0.914255       -24.8781
  45   1.0000      -0.914112       -24.8743
  46   1.0000      -0.904356       -24.6088
  47   1.0000      -0.904039       -24.6002
  48   1.0000      -0.796675       -21.6786
  49   1.0000      -0.750902       -20.4331
  50   1.0000      -0.698327       -19.0024
  51   1.0000      -0.693025       -18.8582
  52   1.0000      -0.685353       -18.6494
  53   1.0000      -0.667719       -18.1696
  54   1.0000      -0.638728       -17.3807
  55   1.0000      -0.620003       -16.8711
  56   1.0000      -0.602656       -16.3991
  57   1.0000      -0.598228       -16.2786
  58   1.0000      -0.582634       -15.8543
  59   1.0000      -0.575792       -15.6681
  60   1.0000      -0.571734       -15.5577
  61   1.0000      -0.566826       -15.4241
  62   1.0000      -0.550624       -14.9832
  63   1.0000      -0.548281       -14.9195
  64   1.0000      -0.543389       -14.7864
  65   1.0000      -0.519732       -14.1426
  66   1.0000      -0.515933       -14.0393
  67   1.0000      -0.488494       -13.2926
  68   1.0000      -0.469879       -12.7861
  69   1.0000      -0.461691       -12.5632
  70   1.0000      -0.437605       -11.9078
  71   1.0000      -0.432152       -11.7595
  72   1.0000      -0.430561       -11.7162
  73   1.0000      -0.422551       -11.4982
  74   1.0000      -0.420641       -11.4462
  75   1.0000      -0.420324       -11.4376
  76   1.0000      -0.371670       -10.1137
  77   0.0000       0.011373         0.3095
  78   0.0000       0.021936         0.5969
  79   0.0000       0.023001         0.6259
  80   0.0000       0.030285         0.8241
  81   0.0000       0.039004         1.0613

                 SPIN DOWN ORBITALS
  NO   OCC          E(Eh)            E(eV)
   0   1.0000    -261.558102     -7117.3578
   1   1.0000    -104.781816     -2851.2582
   2   1.0000    -104.780531     -2851.2232
   3   1.0000    -104.780081     -2851.2110
   4   1.0000     -32.067466      -872.6001
   5   1.0000     -27.545426      -749.5491
   6   1.0000     -27.545356      -749.5472
   7   1.0000     -27.545049      -749.5389
   8   1.0000     -20.571693      -559.7842
   9   1.0000     -11.411769      -310.5300
  10   1.0000     -11.319222      -308.0117
  11   1.0000     -11.267445      -306.6028
  12   1.0000     -11.263878      -306.5057
  13   1.0000     -11.262659      -306.4725
  14   1.0000     -11.254860      -306.2603
  15   1.0000     -11.254497      -306.2504
  16   1.0000     -11.249356      -306.1106
  17   1.0000     -10.508354      -285.9468
  18   1.0000     -10.507014      -285.9104
  19   1.0000     -10.506543      -285.8976
  20   1.0000      -7.974251      -216.9904
  21   1.0000      -7.973628      -216.9735
  22   1.0000      -7.973558      -216.9715
  23   1.0000      -7.972917      -216.9541
  24   1.0000      -7.972525      -216.9434
  25   1.0000      -7.972270      -216.9365
  26   1.0000      -7.972176      -216.9339
  27   1.0000      -7.971764      -216.9227
  28   1.0000      -7.971672      -216.9202
  29   1.0000      -4.142536      -112.7241
  30   1.0000      -2.664195       -72.4964
  31   1.0000      -2.664127       -72.4946
  32   1.0000      -2.663683       -72.4825
  33   1.0000      -1.418741       -38.6059
  34   1.0000      -1.154919       -31.4269
  35   1.0000      -1.089779       -29.6544
  36   1.0000      -1.040929       -28.3251
  37   1.0000      -1.033866       -28.1329
  38   1.0000      -1.028975       -27.9998
  39   1.0000      -1.027736       -27.9661
  40   1.0000      -1.001718       -27.2581
  41   1.0000      -0.978880       -26.6367
  42   1.0000      -0.918965       -25.0063
  43   1.0000      -0.810743       -22.0614
  44   1.0000      -0.750971       -20.4350
  45   1.0000      -0.699217       -19.0267
  46   1.0000      -0.695088       -18.9143
  47   1.0000      -0.683878       -18.6093
  48   1.0000      -0.667343       -18.1593
  49   1.0000      -0.638659       -17.3788
  50   1.0000      -0.619806       -16.8658
  51   1.0000      -0.601983       -16.3808
  52   1.0000      -0.598178       -16.2772
  53   1.0000      -0.582378       -15.8473
  54   1.0000      -0.575461       -15.6591
  55   1.0000      -0.571613       -15.5544
  56   1.0000      -0.566526       -15.4159
  57   1.0000      -0.550405       -14.9773
  58   1.0000      -0.546828       -14.8800
  59   1.0000      -0.540213       -14.6999
  60   1.0000      -0.516334       -14.0502
  61   1.0000      -0.511543       -13.9198
  62   1.0000      -0.486161       -13.2291
  63   1.0000      -0.474202       -12.9037
  64   1.0000      -0.472385       -12.8542
  65   1.0000      -0.444702       -12.1009
  66   1.0000      -0.441843       -12.0232
  67   1.0000      -0.439753       -11.9663
  68   1.0000      -0.425990       -11.5918
  69   1.0000      -0.420126       -11.4322
  70   1.0000      -0.406206       -11.0534
  71   1.0000      -0.370057       -10.0698
  72   0.0000       0.011370         0.3094
  73   0.0000       0.021904         0.5960
  74   0.0000       0.022976         0.6252
  75   0.0000       0.030307         0.8247
  76   0.0000       0.038982         1.0607

E(0)                                       ...  -3028.427156913
E(0)                                       ...  -3028.427156913
E(CORR)(strong-pairs)                      ...     -2.872998276
E(CORR)(weak-pairs)                        ...     -0.036012370
E(CORR)(corrected)                         ...     -2.909010646
E(TOT)                                     ...  -3031.336167559
E(CCSD(T))                                 ...  -3031.455908238
FINAL SINGLE POINT ENERGY     -3031.455908237790

DIPOLE MOMENT
-------------
                                X             Y             Z
Electronic contribution:     42.30777       2.51897       2.23141
Nuclear contribution   :    -46.41055      -3.04632      -2.75624
                        -----------------------------------------
Total Dipole Moment    :     -4.10278      -0.52736      -0.52483
                        -----------------------------------------
Magnitude (a.u.)       :      4.16969
Magnitude (Debye)      :     10.59852

Rotational constants in cm-1:     0.019514     0.011169     0.010467
Rotational constants in MHz :   585.010350   334.838444   313.781767

                             ****ORCA TERMINATED NORMALLY****
TOTAL RUN TIME: 0 days 20 hours 4 minutes 37 seconds 875 msec
