                         Program Version 4.1.2  - RELEASE  -
|  1> ! aug-cc-pVTZ aug-cc-pVTZ/C DLPNO-CCSD(T1) TightSCF NormalPNO UNO MiniPrint AutoAux
|  2> %pal nproc 10 end
|  3> %maxcore 20000
|  4> %mdci
|  5>      density none
|  6> end
|  7>
|  8> * xyz 0 6
|  9>  O     -0.31358800     -0.10022800     -0.41107500
| 10>  C     -1.23899900     -1.05158000     -0.21725300
| 11>  C     -2.52497400     -0.37373100      0.75706400
| 12>  C     -3.02850400      0.68764500     -0.04910200
| 13>  C     -4.18600100      0.49293800     -0.95766200
| 14> Fe      1.51286500      0.17219400     -0.09206100
| 15> Cl      1.82242000      2.20189700     -0.89010500
| 16>  C     -2.28652900      1.94467500     -0.11144700
| 17> Cl      2.53706900     -1.46061400     -1.15591600
| 18> Cl      1.83748900      0.08383100      2.09673800
| 19>  H     -3.23093700     -1.20486700      0.82073200
| 20>  H     -2.73038400      2.70116400     -0.75966000
| 21>  H     -2.04824500      2.35577300      0.87438100
| 22>  H     -1.28879100      1.62344200     -0.50884700
| 23>  H     -5.01348600      1.10926600     -0.57213300
| 24>  H     -3.97098200      0.87518000     -1.96299500
| 25>  H     -4.52402100     -0.54293600     -1.01012900
| 26>  C     -1.93274200      0.01654500      2.11630500
| 27>  H     -2.60511100      0.70153800      2.64285100
| 28>  H     -1.80835400     -0.86916300      2.74063400
| 29>  H     -0.95537500      0.49094900      2.01171700
| 30>  C     -0.73781100     -2.22694400      0.63712800
| 31>  H     -1.54339100     -2.92275400      0.88908100
| 32>  H      0.00834500     -2.75456300      0.03315600
| 33>  H     -0.24282200     -1.88433400      1.54578700
| 34>  C     -1.80723700     -1.54755500     -1.55011800
| 35>  H     -1.01277700     -2.10292400     -2.05790800
| 36>  H     -2.66482700     -2.21508800     -1.41632700
| 37>  H     -2.08647900     -0.71480100     -2.19984900
| 38> *
| 39>
| 40>
| 41>                          ****END OF INPUT****

CARTESIAN COORDINATES (ANGSTROEM)
---------------------------------
  O     -0.313588   -0.100228   -0.411075
  C     -1.238999   -1.051580   -0.217253
  C     -2.524974   -0.373731    0.757064
  C     -3.028504    0.687645   -0.049102
  C     -4.186001    0.492938   -0.957662
  Fe     1.512865    0.172194   -0.092061
  Cl     1.822420    2.201897   -0.890105
  C     -2.286529    1.944675   -0.111447
  Cl     2.537069   -1.460614   -1.155916
  Cl     1.837489    0.083831    2.096738
  H     -3.230937   -1.204867    0.820732
  H     -2.730384    2.701164   -0.759660
  H     -2.048245    2.355773    0.874381
  H     -1.288791    1.623442   -0.508847
  H     -5.013486    1.109266   -0.572133
  H     -3.970982    0.875180   -1.962995
  H     -4.524021   -0.542936   -1.010129
  C     -1.932742    0.016545    2.116305
  H     -2.605111    0.701538    2.642851
  H     -1.808354   -0.869163    2.740634
  H     -0.955375    0.490949    2.011717
  C     -0.737811   -2.226944    0.637128
  H     -1.543391   -2.922754    0.889081
  H      0.008345   -2.754563    0.033156
  H     -0.242822   -1.884334    1.545787
  C     -1.807237   -1.547555   -1.550118
  H     -1.012777   -2.102924   -2.057908
  H     -2.664827   -2.215088   -1.416327
  H     -2.086479   -0.714801   -2.199849

ORBITAL ENERGIES
----------------
                 SPIN UP ORBITALS
  NO   OCC          E(Eh)            E(eV)
   0   1.0000    -261.540177     -7116.8700
   1   1.0000    -104.767726     -2850.8748
   2   1.0000    -104.766184     -2850.8328
   3   1.0000    -104.764560     -2850.7886
   4   1.0000     -32.208097      -876.4269
   5   1.0000     -27.684027      -753.3207
   6   1.0000     -27.683765      -753.3135
   7   1.0000     -27.683564      -753.3081
   8   1.0000     -20.541010      -558.9493
   9   1.0000     -11.394608      -310.0631
  10   1.0000     -11.356146      -309.0164
  11   1.0000     -11.306017      -307.6524
  12   1.0000     -11.290219      -307.2225
  13   1.0000     -11.278470      -306.9028
  14   1.0000     -11.254140      -306.2407
  15   1.0000     -11.247203      -306.0520
  16   1.0000     -11.236651      -305.7648
  17   1.0000     -10.494349      -285.5658
  18   1.0000     -10.492768      -285.5227
  19   1.0000     -10.491177      -285.4794
  20   1.0000      -7.961221      -216.6358
  21   1.0000      -7.960402      -216.6135
  22   1.0000      -7.960348      -216.6121
  23   1.0000      -7.959593      -216.5915
  24   1.0000      -7.958877      -216.5721
  25   1.0000      -7.958776      -216.5693
  26   1.0000      -7.958028      -216.5489
  27   1.0000      -7.957275      -216.5285
  28   1.0000      -7.957193      -216.5262
  29   1.0000      -4.563546      -124.1804
  30   1.0000      -3.176109       -86.4263
  31   1.0000      -3.175649       -86.4138
  32   1.0000      -3.175148       -86.4002
  33   1.0000      -1.374279       -37.3960
  34   1.0000      -1.200680       -32.6722
  35   1.0000      -1.085265       -29.5316
  36   1.0000      -1.046889       -28.4873
  37   1.0000      -1.038677       -28.2638
  38   1.0000      -1.033462       -28.1219
  39   1.0000      -1.031405       -28.0660
  40   1.0000      -1.020996       -27.7827
  41   1.0000      -0.970053       -26.3965
  42   1.0000      -0.932079       -25.3632
  43   1.0000      -0.906543       -24.6683
  44   1.0000      -0.893082       -24.3020
  45   1.0000      -0.893039       -24.3008
  46   1.0000      -0.884425       -24.0664
  47   1.0000      -0.884075       -24.0569
  48   1.0000      -0.799321       -21.7506
  49   1.0000      -0.769134       -20.9292
  50   1.0000      -0.712196       -19.3798
  51   1.0000      -0.696584       -18.9550
  52   1.0000      -0.675304       -18.3760
  53   1.0000      -0.651557       -17.7298
  54   1.0000      -0.649187       -17.6653
  55   1.0000      -0.636532       -17.3209
  56   1.0000      -0.608794       -16.5661
  57   1.0000      -0.602166       -16.3858
  58   1.0000      -0.591274       -16.0894
  59   1.0000      -0.584043       -15.8926
  60   1.0000      -0.575371       -15.6566
  61   1.0000      -0.562862       -15.3163
  62   1.0000      -0.554943       -15.1008
  63   1.0000      -0.538615       -14.6565
  64   1.0000      -0.533919       -14.5287
  65   1.0000      -0.517384       -14.0787
  66   1.0000      -0.501602       -13.6493
  67   1.0000      -0.464125       -12.6295
  68   1.0000      -0.456904       -12.4330
  69   1.0000      -0.440214       -11.9788
  70   1.0000      -0.426593       -11.6082
  71   1.0000      -0.418704       -11.3935
  72   1.0000      -0.414504       -11.2792
  73   1.0000      -0.407544       -11.0898
  74   1.0000      -0.405124       -11.0240
  75   1.0000      -0.404518       -11.0075
  76   1.0000      -0.404145       -10.9974
  77   0.0000      -0.002055        -0.0559
  78   0.0000       0.001212         0.0330
  79   0.0000       0.016929         0.4607
  80   0.0000       0.017700         0.4816
  81   0.0000       0.026929         0.7328

                 SPIN DOWN ORBITALS
  NO   OCC          E(Eh)            E(eV)
   0   1.0000    -261.536627     -7116.7734
   1   1.0000    -104.766356     -2850.8375
   2   1.0000    -104.764820     -2850.7957
   3   1.0000    -104.763138     -2850.7499
   4   1.0000     -32.046014      -872.0164
   5   1.0000     -27.524075      -748.9681
   6   1.0000     -27.523932      -748.9643
   7   1.0000     -27.523461      -748.9514
   8   1.0000     -20.535491      -558.7991
   9   1.0000     -11.394547      -310.0614
  10   1.0000     -11.356041      -309.0136
  11   1.0000     -11.306028      -307.6527
  12   1.0000     -11.290083      -307.2188
  13   1.0000     -11.278479      -306.9030
  14   1.0000     -11.254170      -306.2415
  15   1.0000     -11.247103      -306.0492
  16   1.0000     -11.236620      -305.7640
  17   1.0000     -10.492876      -285.5257
  18   1.0000     -10.491307      -285.4830
  19   1.0000     -10.489652      -285.4379
  20   1.0000      -7.958771      -216.5692
  21   1.0000      -7.958214      -216.5540
  22   1.0000      -7.958141      -216.5520
  23   1.0000      -7.957275      -216.5285
  24   1.0000      -7.956625      -216.5108
  25   1.0000      -7.956518      -216.5079
  26   1.0000      -7.955588      -216.4826
  27   1.0000      -7.954933      -216.4647
  28   1.0000      -7.954852      -216.4625
  29   1.0000      -4.121252      -112.1450
  30   1.0000      -2.643115       -71.9228
  31   1.0000      -2.643048       -71.9210
  32   1.0000      -2.642144       -71.8964
  33   1.0000      -1.360164       -37.0119
  34   1.0000      -1.199758       -32.6471
  35   1.0000      -1.082830       -29.4653
  36   1.0000      -1.045893       -28.4602
  37   1.0000      -1.024505       -27.8782
  38   1.0000      -1.020217       -27.7615
  39   1.0000      -1.013057       -27.5667
  40   1.0000      -1.011223       -27.5168
  41   1.0000      -0.969410       -26.3790
  42   1.0000      -0.931737       -25.3538
  43   1.0000      -0.805333       -21.9142
  44   1.0000      -0.776103       -21.1188
  45   1.0000      -0.712800       -19.3963
  46   1.0000      -0.695900       -18.9364
  47   1.0000      -0.675416       -18.3790
  48   1.0000      -0.654041       -17.7974
  49   1.0000      -0.648044       -17.6342
  50   1.0000      -0.635682       -17.2978
  51   1.0000      -0.608818       -16.5668
  52   1.0000      -0.602038       -16.3823
  53   1.0000      -0.590883       -16.0787
  54   1.0000      -0.583151       -15.8683
  55   1.0000      -0.574389       -15.6299
  56   1.0000      -0.562537       -15.3074
  57   1.0000      -0.554992       -15.1021
  58   1.0000      -0.538611       -14.6564
  59   1.0000      -0.532339       -14.4857
  60   1.0000      -0.512586       -13.9482
  61   1.0000      -0.495046       -13.4709
  62   1.0000      -0.462464       -12.5843
  63   1.0000      -0.458557       -12.4780
  64   1.0000      -0.447700       -12.1825
  65   1.0000      -0.431825       -11.7506
  66   1.0000      -0.428710       -11.6658
  67   1.0000      -0.425327       -11.5737
  68   1.0000      -0.424550       -11.5526
  69   1.0000      -0.403829       -10.9888
  70   1.0000      -0.394557       -10.7364
  71   1.0000      -0.390893       -10.6367
  72   0.0000      -0.002167        -0.0590
  73   0.0000       0.001206         0.0328
  74   0.0000       0.016924         0.4605
  75   0.0000       0.017685         0.4812
  76   0.0000       0.026941         0.7331

E(0)                                       ...  -3028.426267522
E(0)                                       ...  -3028.426267522
E(CORR)(strong-pairs)                      ...     -2.873814988
E(CORR)(weak-pairs)                        ...     -0.035415286
E(CORR)(corrected)                         ...     -2.909230274
E(TOT)                                     ...  -3031.335497796
E(CCSD(T))                                 ...  -3031.454934404
FINAL SINGLE POINT ENERGY     -3031.454934403567

DIPOLE MOMENT
-------------
                                X             Y             Z
Electronic contribution:     42.58459       6.79224      -1.33029
Nuclear contribution   :    -48.53931      -6.93257       1.29467
                        -----------------------------------------
Total Dipole Moment    :     -5.95472      -0.14033      -0.03562
                        -----------------------------------------
Magnitude (a.u.)       :      5.95648
Magnitude (Debye)      :     15.14016

Rotational constants in cm-1:     0.020104     0.010225     0.009773
Rotational constants in MHz :   602.710839   306.536725   292.996619

                             ****ORCA TERMINATED NORMALLY****
TOTAL RUN TIME: 0 days 20 hours 14 minutes 23 seconds 334 msec
