                         Program Version 4.1.2  - RELEASE  -
|  1> ! aug-cc-pVTZ aug-cc-pVTZ/C DLPNO-CCSD(T1) TightSCF NormalPNO UNO MiniPrint AutoAux
|  2> %pal nproc 10 end
|  3> %maxcore 20000
|  4> %mdci
|  5>      density none
|  6> end
|  7>
|  8> * xyz 0 6
|  9>  O     -0.32614300     -0.14529800     -0.70586700
| 10>  C     -1.24088100     -1.06990600     -0.58798300
| 11>  C     -2.86823600     -0.21407500      0.31853200
| 12>  C     -2.41190200      1.00611100     -0.13455800
| 13>  C     -2.73288200      1.52219700     -1.49643600
| 14> Fe      1.41222500      0.09936400      0.00802400
| 15> Cl      2.00210900      2.07683700     -0.74186100
| 16>  C     -1.56712000      1.90773100      0.69495700
| 17> Cl      2.58180000     -1.60437000     -0.73685400
| 18> Cl      1.20542400      0.05517300      2.21880600
| 19>  H     -3.63304900     -0.69288400     -0.28969100
| 20>  H     -2.23080900      2.67813400      1.11764400
| 21>  H     -1.06933700      1.40631400      1.52341800
| 22>  H     -0.81946300      2.42265600      0.08432400
| 23>  H     -3.09076800      2.55573300     -1.41017200
| 24>  H     -1.80956700      1.56422700     -2.08892700
| 25>  H     -3.48716600      0.93162300     -2.01908900
| 26>  C     -2.91725200     -0.56310500      1.79152500
| 27>  H     -3.72958200     -0.00306600      2.27123400
| 28>  H     -3.12494900     -1.62514000      1.93849900
| 29>  H     -1.99175900     -0.32238300      2.31903800
| 30>  C     -0.96062300     -2.19699900      0.38285100
| 31>  H     -1.80878500     -2.87531500      0.49254200
| 32>  H     -0.12399400     -2.75539500     -0.05967400
| 33>  H     -0.62978600     -1.83553900      1.35576100
| 34>  C     -1.82955800     -1.53280100     -1.90835400
| 35>  H     -1.03590300     -2.11255400     -2.39672700
| 36>  H     -2.69894200     -2.18076900     -1.77607800
| 37>  H     -2.07276800     -0.70153600     -2.56853400
| 38> *
| 39>
| 40>
| 41>                          ****END OF INPUT****

CARTESIAN COORDINATES (ANGSTROEM)
---------------------------------
  O     -0.326143   -0.145298   -0.705867
  C     -1.240881   -1.069906   -0.587983
  C     -2.868236   -0.214075    0.318532
  C     -2.411902    1.006111   -0.134558
  C     -2.732882    1.522197   -1.496436
  Fe     1.412225    0.099364    0.008024
  Cl     2.002109    2.076837   -0.741861
  C     -1.567120    1.907731    0.694957
  Cl     2.581800   -1.604370   -0.736854
  Cl     1.205424    0.055173    2.218806
  H     -3.633049   -0.692884   -0.289691
  H     -2.230809    2.678134    1.117644
  H     -1.069337    1.406314    1.523418
  H     -0.819463    2.422656    0.084324
  H     -3.090768    2.555733   -1.410172
  H     -1.809567    1.564227   -2.088927
  H     -3.487166    0.931623   -2.019089
  C     -2.917252   -0.563105    1.791525
  H     -3.729582   -0.003066    2.271234
  H     -3.124949   -1.625140    1.938499
  H     -1.991759   -0.322383    2.319038
  C     -0.960623   -2.196999    0.382851
  H     -1.808785   -2.875315    0.492542
  H     -0.123994   -2.755395   -0.059674
  H     -0.629786   -1.835539    1.355761
  C     -1.829558   -1.532801   -1.908354
  H     -1.035903   -2.112554   -2.396727
  H     -2.698942   -2.180769   -1.776078
  H     -2.072768   -0.701536   -2.568534

ORBITAL ENERGIES
----------------
                 SPIN UP ORBITALS
  NO   OCC          E(Eh)            E(eV)
   0   1.0000    -261.556669     -7117.3188
   1   1.0000    -104.781177     -2851.2408
   2   1.0000    -104.777494     -2851.1406
   3   1.0000    -104.776933     -2851.1253
   4   1.0000     -32.224540      -876.8743
   5   1.0000     -27.700589      -753.7713
   6   1.0000     -27.700146      -753.7593
   7   1.0000     -27.699942      -753.7537
   8   1.0000     -20.565594      -559.6182
   9   1.0000     -11.397910      -310.1529
  10   1.0000     -11.341337      -308.6135
  11   1.0000     -11.272132      -306.7303
  12   1.0000     -11.270080      -306.6745
  13   1.0000     -11.260647      -306.4178
  14   1.0000     -11.254687      -306.2556
  15   1.0000     -11.253264      -306.2169
  16   1.0000     -11.252962      -306.2087
  17   1.0000     -10.507804      -285.9319
  18   1.0000     -10.504077      -285.8305
  19   1.0000     -10.503549      -285.8161
  20   1.0000      -7.974686      -217.0022
  21   1.0000      -7.973832      -216.9790
  22   1.0000      -7.973797      -216.9780
  23   1.0000      -7.970886      -216.8988
  24   1.0000      -7.970400      -216.8856
  25   1.0000      -7.970184      -216.8797
  26   1.0000      -7.970111      -216.8777
  27   1.0000      -7.969647      -216.8651
  28   1.0000      -7.969574      -216.8631
  29   1.0000      -4.579797      -124.6226
  30   1.0000      -3.192482       -86.8718
  31   1.0000      -3.191718       -86.8511
  32   1.0000      -3.191318       -86.8402
  33   1.0000      -1.411291       -38.4032
  34   1.0000      -1.168320       -31.7916
  35   1.0000      -1.086106       -29.5544
  36   1.0000      -1.052271       -28.6338
  37   1.0000      -1.046707       -28.4824
  38   1.0000      -1.044260       -28.4158
  39   1.0000      -1.040204       -28.3054
  40   1.0000      -0.994860       -27.0715
  41   1.0000      -0.985072       -26.8052
  42   1.0000      -0.929128       -25.2828
  43   1.0000      -0.919488       -25.0205
  44   1.0000      -0.909139       -24.7389
  45   1.0000      -0.909027       -24.7359
  46   1.0000      -0.899970       -24.4894
  47   1.0000      -0.899353       -24.4726
  48   1.0000      -0.789997       -21.4969
  49   1.0000      -0.759275       -20.6609
  50   1.0000      -0.693772       -18.8785
  51   1.0000      -0.691829       -18.8256
  52   1.0000      -0.678063       -18.4510
  53   1.0000      -0.661275       -17.9942
  54   1.0000      -0.646696       -17.5975
  55   1.0000      -0.623919       -16.9777
  56   1.0000      -0.602162       -16.3857
  57   1.0000      -0.594413       -16.1748
  58   1.0000      -0.585376       -15.9289
  59   1.0000      -0.575420       -15.6580
  60   1.0000      -0.571907       -15.5624
  61   1.0000      -0.562354       -15.3024
  62   1.0000      -0.553923       -15.0730
  63   1.0000      -0.551478       -15.0065
  64   1.0000      -0.541662       -14.7394
  65   1.0000      -0.522140       -14.2082
  66   1.0000      -0.517890       -14.0925
  67   1.0000      -0.480886       -13.0856
  68   1.0000      -0.465249       -12.6601
  69   1.0000      -0.458307       -12.4712
  70   1.0000      -0.432041       -11.7564
  71   1.0000      -0.428984       -11.6733
  72   1.0000      -0.427410       -11.6304
  73   1.0000      -0.418520       -11.3885
  74   1.0000      -0.417257       -11.3541
  75   1.0000      -0.416384       -11.3304
  76   1.0000      -0.382867       -10.4183
  77   0.0000       0.009828         0.2674
  78   0.0000       0.020387         0.5548
  79   0.0000       0.021863         0.5949
  80   0.0000       0.029333         0.7982
  81   0.0000       0.034815         0.9474

                 SPIN DOWN ORBITALS
  NO   OCC          E(Eh)            E(eV)
   0   1.0000    -261.553120     -7117.2222
   1   1.0000    -104.779811     -2851.2036
   2   1.0000    -104.776079     -2851.1021
   3   1.0000    -104.775464     -2851.0853
   4   1.0000     -32.062472      -872.4642
   5   1.0000     -27.540481      -749.4146
   6   1.0000     -27.540375      -749.4117
   7   1.0000     -27.539992      -749.4013
   8   1.0000     -20.560759      -559.4867
   9   1.0000     -11.397878      -310.1520
  10   1.0000     -11.341235      -308.6107
  11   1.0000     -11.271976      -306.7261
  12   1.0000     -11.270090      -306.6748
  13   1.0000     -11.260535      -306.4147
  14   1.0000     -11.254726      -306.2567
  15   1.0000     -11.253239      -306.2162
  16   1.0000     -11.252979      -306.2091
  17   1.0000     -10.506334      -285.8919
  18   1.0000     -10.502566      -285.7893
  19   1.0000     -10.501978      -285.7733
  20   1.0000      -7.972200      -216.9346
  21   1.0000      -7.971680      -216.9204
  22   1.0000      -7.971607      -216.9185
  23   1.0000      -7.968546      -216.8352
  24   1.0000      -7.967898      -216.8175
  25   1.0000      -7.967809      -216.8151
  26   1.0000      -7.967721      -216.8127
  27   1.0000      -7.967219      -216.7990
  28   1.0000      -7.967134      -216.7968
  29   1.0000      -4.137476      -112.5865
  30   1.0000      -2.659196       -72.3604
  31   1.0000      -2.659185       -72.3601
  32   1.0000      -2.658360       -72.3377
  33   1.0000      -1.398988       -38.0684
  34   1.0000      -1.167428       -31.7673
  35   1.0000      -1.083378       -29.4802
  36   1.0000      -1.039907       -28.2973
  37   1.0000      -1.037691       -28.2370
  38   1.0000      -1.025997       -27.9188
  39   1.0000      -1.023295       -27.8453
  40   1.0000      -0.994411       -27.0593
  41   1.0000      -0.984559       -26.7912
  42   1.0000      -0.924867       -25.1669
  43   1.0000      -0.802823       -21.8459
  44   1.0000      -0.759822       -20.6758
  45   1.0000      -0.694905       -18.9093
  46   1.0000      -0.691180       -18.8080
  47   1.0000      -0.679363       -18.4864
  48   1.0000      -0.660486       -17.9727
  49   1.0000      -0.646434       -17.5904
  50   1.0000      -0.623547       -16.9676
  51   1.0000      -0.601271       -16.3614
  52   1.0000      -0.594549       -16.1785
  53   1.0000      -0.585191       -15.9239
  54   1.0000      -0.574977       -15.6459
  55   1.0000      -0.571742       -15.5579
  56   1.0000      -0.562272       -15.3002
  57   1.0000      -0.553387       -15.0584
  58   1.0000      -0.550946       -14.9920
  59   1.0000      -0.536857       -14.6086
  60   1.0000      -0.522092       -14.2068
  61   1.0000      -0.508480       -13.8364
  62   1.0000      -0.479323       -13.0430
  63   1.0000      -0.470315       -12.7979
  64   1.0000      -0.467898       -12.7322
  65   1.0000      -0.441175       -12.0050
  66   1.0000      -0.438314       -11.9271
  67   1.0000      -0.436421       -11.8756
  68   1.0000      -0.422950       -11.5090
  69   1.0000      -0.416659       -11.3379
  70   1.0000      -0.402972       -10.9654
  71   1.0000      -0.379830       -10.3357
  72   0.0000       0.009825         0.2674
  73   0.0000       0.020355         0.5539
  74   0.0000       0.021847         0.5945
  75   0.0000       0.029237         0.7956
  76   0.0000       0.034413         0.9364

E(0)                                       ...  -3028.427543871
E(0)                                       ...  -3028.427543871
E(CORR)(strong-pairs)                      ...     -2.873811559
E(CORR)(weak-pairs)                        ...     -0.036314622
E(CORR)(corrected)                         ...     -2.910126181
E(TOT)                                     ...  -3031.337670052
E(CCSD(T))                                 ...  -3031.457616546
FINAL SINGLE POINT ENERGY     -3031.457616545667

DIPOLE MOMENT
-------------
                                X             Y             Z
Electronic contribution:     40.89278       4.17577       1.97892
Nuclear contribution   :    -45.33166      -4.51243      -2.51200
                        -----------------------------------------
Total Dipole Moment    :     -4.43888      -0.33666      -0.53308
                        -----------------------------------------
Magnitude (a.u.)       :      4.48343
Magnitude (Debye)      :     11.39598

Rotational constants in cm-1:     0.019146     0.011429     0.010699
Rotational constants in MHz :   573.988281   342.633654   320.735926

                             ****ORCA TERMINATED NORMALLY****
TOTAL RUN TIME: 0 days 21 hours 39 minutes 47 seconds 805 msec
