                         Program Version 4.1.2  - RELEASE  -
|  1> ! aug-cc-pVTZ aug-cc-pVTZ/C DLPNO-CCSD(T1) TightSCF NormalPNO UNO MiniPrint AutoAux
|  2> %pal nproc 10 end
|  3> %maxcore 20000
|  4> %mdci
|  5>      density none
|  6> end
|  7>
|  8> * xyz 0 6
|  9>  O     -0.31435500     -0.18729100     -0.72191000
| 10>  C     -1.24700600     -1.10221800     -0.56368100
| 11>  C     -2.73257000     -0.31653800      0.42541300
| 12>  C     -2.50040500      0.95783100     -0.07976400
| 13>  C     -3.04475100      1.40008900     -1.39347800
| 14> Fe      1.40772900      0.12129000     -0.02467700
| 15> Cl      1.92603100      2.11609100     -0.79474700
| 16>  C     -1.62974300      1.94158000      0.61012600
| 17> Cl      2.66024000     -1.53961100     -0.72841800
| 18> Cl      1.19668000      0.12001100      2.19091800
| 19>  H     -3.54345100     -0.85985900     -0.05759800
| 20>  H     -2.26722100      2.76542900      0.96584000
| 21>  H     -1.08722200      1.53353500      1.46048300
| 22>  H     -0.91340300      2.37924000     -0.09531400
| 23>  H     -3.48940000      2.39709600     -1.28518500
| 24>  H     -2.21164700      1.51421300     -2.10107700
| 25>  H     -3.79052200      0.71968300     -1.80687700
| 26>  C     -2.59865000     -0.59458500      1.91426100
| 27>  H     -3.35326600     -0.01818800      2.46201000
| 28>  H     -2.77658600     -1.65035400      2.12661900
| 29>  H     -1.61704500     -0.32992700      2.31194200
| 30>  C     -0.88225800     -2.27841000      0.32863800
| 31>  H     -1.71926700     -2.96361200      0.48061700
| 32>  H     -0.08653100     -2.81218600     -0.20702600
| 33>  H     -0.47328100     -1.96081600      1.28710400
| 34>  C     -1.87735600     -1.54235000     -1.87874500
| 35>  H     -1.10483500     -2.11512800     -2.40522000
| 36>  H     -2.74654400     -2.18855100     -1.73232400
| 37>  H     -2.13961700     -0.69853000     -2.51555400
| 38> *
| 39>
| 40>
| 41>                          ****END OF INPUT****

CARTESIAN COORDINATES (ANGSTROEM)
---------------------------------
  O     -0.314355   -0.187291   -0.721910
  C     -1.247006   -1.102218   -0.563681
  C     -2.732570   -0.316538    0.425413
  C     -2.500405    0.957831   -0.079764
  C     -3.044751    1.400089   -1.393478
  Fe     1.407729    0.121290   -0.024677
  Cl     1.926031    2.116091   -0.794747
  C     -1.629743    1.941580    0.610126
  Cl     2.660240   -1.539611   -0.728418
  Cl     1.196680    0.120011    2.190918
  H     -3.543451   -0.859859   -0.057598
  H     -2.267221    2.765429    0.965840
  H     -1.087222    1.533535    1.460483
  H     -0.913403    2.379240   -0.095314
  H     -3.489400    2.397096   -1.285185
  H     -2.211647    1.514213   -2.101077
  H     -3.790522    0.719683   -1.806877
  C     -2.598650   -0.594585    1.914261
  H     -3.353266   -0.018188    2.462010
  H     -2.776586   -1.650354    2.126619
  H     -1.617045   -0.329927    2.311942
  C     -0.882258   -2.278410    0.328638
  H     -1.719267   -2.963612    0.480617
  H     -0.086531   -2.812186   -0.207026
  H     -0.473281   -1.960816    1.287104
  C     -1.877356   -1.542350   -1.878745
  H     -1.104835   -2.115128   -2.405220
  H     -2.746544   -2.188551   -1.732324
  H     -2.139617   -0.698530   -2.515554

ORBITAL ENERGIES
----------------
                 SPIN UP ORBITALS
  NO   OCC          E(Eh)            E(eV)
   0   1.0000    -261.551800     -7117.1863
   1   1.0000    -104.778604     -2851.1708
   2   1.0000    -104.774351     -2851.0550
   3   1.0000    -104.773043     -2851.0194
   4   1.0000     -32.219699      -876.7426
   5   1.0000     -27.695669      -753.6375
   6   1.0000     -27.695365      -753.6292
   7   1.0000     -27.695124      -753.6226
   8   1.0000     -20.556299      -559.3653
   9   1.0000     -11.385940      -309.8272
  10   1.0000     -11.359815      -309.1163
  11   1.0000     -11.280837      -306.9672
  12   1.0000     -11.278028      -306.8907
  13   1.0000     -11.261888      -306.4515
  14   1.0000     -11.255201      -306.2696
  15   1.0000     -11.251910      -306.1800
  16   1.0000     -11.247736      -306.0665
  17   1.0000     -10.505223      -285.8617
  18   1.0000     -10.500936      -285.7450
  19   1.0000     -10.499663      -285.7104
  20   1.0000      -7.972117      -216.9323
  21   1.0000      -7.971242      -216.9085
  22   1.0000      -7.971208      -216.9076
  23   1.0000      -7.967752      -216.8136
  24   1.0000      -7.967038      -216.7941
  25   1.0000      -7.966957      -216.7919
  26   1.0000      -7.966503      -216.7796
  27   1.0000      -7.965767      -216.7595
  28   1.0000      -7.965691      -216.7575
  29   1.0000      -4.575024      -124.4927
  30   1.0000      -3.187617       -86.7395
  31   1.0000      -3.187027       -86.7234
  32   1.0000      -3.186612       -86.7121
  33   1.0000      -1.397917       -38.0393
  34   1.0000      -1.177951       -32.0537
  35   1.0000      -1.083340       -29.4792
  36   1.0000      -1.049097       -28.5474
  37   1.0000      -1.043842       -28.4044
  38   1.0000      -1.042035       -28.3552
  39   1.0000      -1.040422       -28.3113
  40   1.0000      -1.000547       -27.2263
  41   1.0000      -0.981415       -26.7056
  42   1.0000      -0.929931       -25.3047
  43   1.0000      -0.916746       -24.9459
  44   1.0000      -0.904410       -24.6103
  45   1.0000      -0.904312       -24.6076
  46   1.0000      -0.895697       -24.3732
  47   1.0000      -0.894946       -24.3527
  48   1.0000      -0.787558       -21.4305
  49   1.0000      -0.764982       -20.8162
  50   1.0000      -0.698967       -19.0199
  51   1.0000      -0.689559       -18.7638
  52   1.0000      -0.672750       -18.3064
  53   1.0000      -0.655801       -17.8452
  54   1.0000      -0.650126       -17.6908
  55   1.0000      -0.628205       -17.0943
  56   1.0000      -0.599363       -16.3095
  57   1.0000      -0.595336       -16.1999
  58   1.0000      -0.587430       -15.9848
  59   1.0000      -0.577169       -15.7056
  60   1.0000      -0.573782       -15.6134
  61   1.0000      -0.563196       -15.3253
  62   1.0000      -0.554297       -15.0832
  63   1.0000      -0.548606       -14.9283
  64   1.0000      -0.538327       -14.6486
  65   1.0000      -0.526017       -14.3136
  66   1.0000      -0.514133       -13.9903
  67   1.0000      -0.475121       -12.9287
  68   1.0000      -0.462223       -12.5777
  69   1.0000      -0.453710       -12.3461
  70   1.0000      -0.428211       -11.6522
  71   1.0000      -0.426535       -11.6066
  72   1.0000      -0.424555       -11.5527
  73   1.0000      -0.415434       -11.3045
  74   1.0000      -0.414234       -11.2719
  75   1.0000      -0.413043       -11.2395
  76   1.0000      -0.391356       -10.6493
  77   0.0000       0.007976         0.2170
  78   0.0000       0.018115         0.4929
  79   0.0000       0.020982         0.5710
  80   0.0000       0.021865         0.5950
  81   0.0000       0.031174         0.8483

                 SPIN DOWN ORBITALS
  NO   OCC          E(Eh)            E(eV)
   0   1.0000    -261.548252     -7117.0898
   1   1.0000    -104.777262     -2851.1342
   2   1.0000    -104.772966     -2851.0173
   3   1.0000    -104.771584     -2850.9797
   4   1.0000     -32.057617      -872.3321
   5   1.0000     -27.535665      -749.2835
   6   1.0000     -27.535530      -749.2799
   7   1.0000     -27.535084      -749.2677
   8   1.0000     -20.551144      -559.2251
   9   1.0000     -11.385909      -309.8263
  10   1.0000     -11.359731      -309.1140
  11   1.0000     -11.280848      -306.9675
  12   1.0000     -11.277875      -306.8866
  13   1.0000     -11.261923      -306.4525
  14   1.0000     -11.255085      -306.2664
  15   1.0000     -11.251927      -306.1805
  16   1.0000     -11.247705      -306.0656
  17   1.0000     -10.503778      -285.8223
  18   1.0000     -10.499454      -285.7047
  19   1.0000     -10.498102      -285.6679
  20   1.0000      -7.969634      -216.8648
  21   1.0000      -7.969152      -216.8517
  22   1.0000      -7.969083      -216.8498
  23   1.0000      -7.965428      -216.7503
  24   1.0000      -7.964731      -216.7313
  25   1.0000      -7.964640      -216.7289
  26   1.0000      -7.964041      -216.7126
  27   1.0000      -7.963341      -216.6935
  28   1.0000      -7.963260      -216.6913
  29   1.0000      -4.132694      -112.4563
  30   1.0000      -2.654509       -72.2329
  31   1.0000      -2.654428       -72.2307
  32   1.0000      -2.653529       -72.2062
  33   1.0000      -1.384721       -37.6802
  34   1.0000      -1.177091       -32.0303
  35   1.0000      -1.080600       -29.4046
  36   1.0000      -1.042131       -28.3578
  37   1.0000      -1.034611       -28.1532
  38   1.0000      -1.022953       -27.8360
  39   1.0000      -1.019729       -27.7482
  40   1.0000      -1.000375       -27.2216
  41   1.0000      -0.980600       -26.6835
  42   1.0000      -0.928046       -25.2534
  43   1.0000      -0.799128       -21.7454
  44   1.0000      -0.766874       -20.8677
  45   1.0000      -0.699569       -19.0362
  46   1.0000      -0.688755       -18.7420
  47   1.0000      -0.674377       -18.3507
  48   1.0000      -0.656353       -17.8603
  49   1.0000      -0.648998       -17.6601
  50   1.0000      -0.627668       -17.0797
  51   1.0000      -0.598333       -16.2815
  52   1.0000      -0.595605       -16.2072
  53   1.0000      -0.587254       -15.9800
  54   1.0000      -0.576774       -15.6948
  55   1.0000      -0.573526       -15.6064
  56   1.0000      -0.562616       -15.3096
  57   1.0000      -0.554103       -15.0779
  58   1.0000      -0.547866       -14.9082
  59   1.0000      -0.533025       -14.5043
  60   1.0000      -0.525984       -14.3127
  61   1.0000      -0.505030       -13.7426
  62   1.0000      -0.473835       -12.8937
  63   1.0000      -0.466871       -12.7042
  64   1.0000      -0.462459       -12.5842
  65   1.0000      -0.438576       -11.9343
  66   1.0000      -0.435397       -11.8477
  67   1.0000      -0.433377       -11.7928
  68   1.0000      -0.422246       -11.4899
  69   1.0000      -0.413223       -11.2444
  70   1.0000      -0.400263       -10.8917
  71   1.0000      -0.386245       -10.5103
  72   0.0000       0.007976         0.2170
  73   0.0000       0.017899         0.4871
  74   0.0000       0.020971         0.5706
  75   0.0000       0.021671         0.5897
  76   0.0000       0.031146         0.8475

E(0)                                       ...  -3028.426779328
E(0)                                       ...  -3028.426779328
E(CORR)(strong-pairs)                      ...     -2.873722061
E(CORR)(weak-pairs)                        ...     -0.036186128
E(CORR)(corrected)                         ...     -2.909908189
E(TOT)                                     ...  -3031.336687516
E(CCSD(T))                                 ...  -3031.456531018
FINAL SINGLE POINT ENERGY     -3031.456531018002

DIPOLE MOMENT
-------------
                                X             Y             Z
Electronic contribution:     40.50964       5.33973       1.47172
Nuclear contribution   :    -45.27066      -5.54165      -1.91150
                        -----------------------------------------
Total Dipole Moment    :     -4.76102      -0.20193      -0.43979
                        -----------------------------------------
Magnitude (a.u.)       :      4.78555
Magnitude (Debye)      :     12.16391

Rotational constants in cm-1:     0.019137     0.011433     0.010660
Rotational constants in MHz :   573.714119   342.759892   319.577654

                             ****ORCA TERMINATED NORMALLY****
TOTAL RUN TIME: 0 days 21 hours 16 minutes 40 seconds 418 msec
