                         Program Version 4.1.2  - RELEASE  -
|  1> ! aug-cc-pVTZ aug-cc-pVTZ/C DLPNO-CCSD(T1) TightSCF NormalPNO UNO MiniPrint AutoAux
|  2> %pal nproc 10 end
|  3> %maxcore 20000
|  4> %mdci
|  5>      density none
|  6> end
|  7>
|  8> * xyz 0 6
|  9>  O     -0.27367200     -0.24866200     -0.80827400
| 10>  C     -1.11224600     -1.18613600     -0.64850400
| 11>  C     -2.97484700     -0.15043500      0.45514800
| 12>  C     -2.52830000      0.97807600     -0.14929000
| 13>  C     -2.94347300      1.35024700     -1.54216900
| 14> Fe      1.44883800      0.12839000      0.01290000
| 15> Cl      2.07304400      2.01763700     -0.87996100
| 16>  C     -1.62058200      1.96936300      0.50821100
| 17> Cl      2.61958600     -1.63166100     -0.56418800
| 18> Cl      1.15085500      0.23681400      2.19312800
| 19>  H     -3.70843900     -0.74587300     -0.08618500
| 20>  H     -2.17572000      2.90098500      0.68488200
| 21>  H     -1.21182600      1.63225500      1.45960600
| 22>  H     -0.78871800      2.22834100     -0.15742400
| 23>  H     -3.38983200      2.35275800     -1.53446600
| 24>  H     -2.06646100      1.40827100     -2.20016900
| 25>  H     -3.67429200      0.65800700     -1.96746300
| 26>  C     -2.86140300     -0.44888800      1.92930000
| 27>  H     -3.66119000      0.07182200      2.47245200
| 28>  H     -2.98303000     -1.51587000      2.13413900
| 29>  H     -1.91042300     -0.12729400      2.36069000
| 30>  C     -0.90636000     -2.19713200      0.44239900
| 31>  H     -1.78555900     -2.82267600      0.60034900
| 32>  H     -0.08268400     -2.83703100      0.09227600
| 33>  H     -0.58397800     -1.73862300      1.37655400
| 34>  C     -1.85347500     -1.65209200     -1.87290300
| 35>  H     -1.17353500     -2.35706000     -2.37258000
| 36>  H     -2.77341900     -2.18631700     -1.63141500
| 37>  H     -2.04643700     -0.83597200     -2.56624700
| 38> *
| 39>
| 40>
| 41>                          ****END OF INPUT****

CARTESIAN COORDINATES (ANGSTROEM)
---------------------------------
  O     -0.273672   -0.248662   -0.808274
  C     -1.112246   -1.186136   -0.648504
  C     -2.974847   -0.150435    0.455148
  C     -2.528300    0.978076   -0.149290
  C     -2.943473    1.350247   -1.542169
  Fe     1.448838    0.128390    0.012900
  Cl     2.073044    2.017637   -0.879961
  C     -1.620582    1.969363    0.508211
  Cl     2.619586   -1.631661   -0.564188
  Cl     1.150855    0.236814    2.193128
  H     -3.708439   -0.745873   -0.086185
  H     -2.175720    2.900985    0.684882
  H     -1.211826    1.632255    1.459606
  H     -0.788718    2.228341   -0.157424
  H     -3.389832    2.352758   -1.534466
  H     -2.066461    1.408271   -2.200169
  H     -3.674292    0.658007   -1.967463
  C     -2.861403   -0.448888    1.929300
  H     -3.661190    0.071822    2.472452
  H     -2.983030   -1.515870    2.134139
  H     -1.910423   -0.127294    2.360690
  C     -0.906360   -2.197132    0.442399
  H     -1.785559   -2.822676    0.600349
  H     -0.082684   -2.837031    0.092276
  H     -0.583978   -1.738623    1.376554
  C     -1.853475   -1.652092   -1.872903
  H     -1.173535   -2.357060   -2.372580
  H     -2.773419   -2.186317   -1.631415
  H     -2.046437   -0.835972   -2.566247

ORBITAL ENERGIES
----------------
                 SPIN UP ORBITALS
  NO   OCC          E(Eh)            E(eV)
   0   1.0000    -261.570709     -7117.7008
   1   1.0000    -104.790371     -2851.4910
   2   1.0000    -104.786957     -2851.3981
   3   1.0000    -104.785528     -2851.3592
   4   1.0000     -32.238471      -877.2534
   5   1.0000     -27.714823      -754.1587
   6   1.0000     -27.713884      -754.1331
   7   1.0000     -27.713709      -754.1284
   8   1.0000     -20.603737      -560.6562
   9   1.0000     -11.418820      -310.7219
  10   1.0000     -11.285643      -307.0980
  11   1.0000     -11.273860      -306.7773
  12   1.0000     -11.267715      -306.6101
  13   1.0000     -11.251595      -306.1715
  14   1.0000     -11.250117      -306.1313
  15   1.0000     -11.241960      -305.9093
  16   1.0000     -11.235577      -305.7356
  17   1.0000     -10.517063      -286.1838
  18   1.0000     -10.513629      -286.0904
  19   1.0000     -10.512152      -286.0502
  20   1.0000      -7.983911      -217.2533
  21   1.0000      -7.983124      -217.2319
  22   1.0000      -7.983082      -217.2307
  23   1.0000      -7.980505      -217.1606
  24   1.0000      -7.979723      -217.1393
  25   1.0000      -7.979663      -217.1377
  26   1.0000      -7.978947      -217.1182
  27   1.0000      -7.978273      -217.0998
  28   1.0000      -7.978220      -217.0984
  29   1.0000      -4.593457      -124.9943
  30   1.0000      -3.206477       -87.2527
  31   1.0000      -3.204995       -87.2124
  32   1.0000      -3.204799       -87.2070
  33   1.0000      -1.450126       -39.4599
  34   1.0000      -1.138648       -30.9842
  35   1.0000      -1.096796       -29.8453
  36   1.0000      -1.062902       -28.9230
  37   1.0000      -1.057179       -28.7673
  38   1.0000      -1.054498       -28.6943
  39   1.0000      -1.026544       -27.9337
  40   1.0000      -1.006129       -27.3782
  41   1.0000      -0.966818       -26.3085
  42   1.0000      -0.938192       -25.5295
  43   1.0000      -0.922475       -25.1018
  44   1.0000      -0.922399       -25.0998
  45   1.0000      -0.912164       -24.8212
  46   1.0000      -0.911498       -24.8031
  47   1.0000      -0.904907       -24.6238
  48   1.0000      -0.806964       -21.9586
  49   1.0000      -0.738629       -20.0991
  50   1.0000      -0.704427       -19.1684
  51   1.0000      -0.695388       -18.9225
  52   1.0000      -0.685644       -18.6573
  53   1.0000      -0.662786       -18.0353
  54   1.0000      -0.629137       -17.1197
  55   1.0000      -0.621634       -16.9155
  56   1.0000      -0.604758       -16.4563
  57   1.0000      -0.598289       -16.2803
  58   1.0000      -0.584302       -15.8997
  59   1.0000      -0.575854       -15.6698
  60   1.0000      -0.562087       -15.2952
  61   1.0000      -0.555691       -15.1211
  62   1.0000      -0.549453       -14.9514
  63   1.0000      -0.546823       -14.8798
  64   1.0000      -0.535192       -14.5633
  65   1.0000      -0.529422       -14.4063
  66   1.0000      -0.502057       -13.6617
  67   1.0000      -0.496895       -13.5212
  68   1.0000      -0.473807       -12.8929
  69   1.0000      -0.471657       -12.8344
  70   1.0000      -0.442772       -12.0484
  71   1.0000      -0.437433       -11.9032
  72   1.0000      -0.435701       -11.8560
  73   1.0000      -0.426951       -11.6179
  74   1.0000      -0.425905       -11.5895
  75   1.0000      -0.424799       -11.5594
  76   1.0000      -0.365406        -9.9432
  77   0.0000       0.012321         0.3353
  78   0.0000       0.022857         0.6220
  79   0.0000       0.023603         0.6423
  80   0.0000       0.030364         0.8262
  81   0.0000       0.038901         1.0586

                 SPIN DOWN ORBITALS
  NO   OCC          E(Eh)            E(eV)
   0   1.0000    -261.567141     -7117.6038
   1   1.0000    -104.788919     -2851.4515
   2   1.0000    -104.785427     -2851.3564
   3   1.0000    -104.784006     -2851.3177
   4   1.0000     -32.076450      -872.8446
   5   1.0000     -27.554359      -749.7922
   6   1.0000     -27.554323      -749.7913
   7   1.0000     -27.554145      -749.7864
   8   1.0000     -20.599918      -560.5523
   9   1.0000     -11.418729      -310.7194
  10   1.0000     -11.285612      -307.0971
  11   1.0000     -11.273748      -306.7743
  12   1.0000     -11.267705      -306.6098
  13   1.0000     -11.251544      -306.1701
  14   1.0000     -11.250120      -306.1313
  15   1.0000     -11.241965      -305.9094
  16   1.0000     -11.235600      -305.7362
  17   1.0000     -10.515509      -286.1416
  18   1.0000     -10.511994      -286.0459
  19   1.0000     -10.510533      -286.0062
  20   1.0000      -7.981412      -217.1853
  21   1.0000      -7.980740      -217.1670
  22   1.0000      -7.980691      -217.1657
  23   1.0000      -7.977879      -217.0891
  24   1.0000      -7.977206      -217.0708
  25   1.0000      -7.977115      -217.0683
  26   1.0000      -7.976519      -217.0521
  27   1.0000      -7.975669      -217.0290
  28   1.0000      -7.975587      -217.0267
  29   1.0000      -4.151267      -112.9617
  30   1.0000      -2.672858       -72.7322
  31   1.0000      -2.672836       -72.7316
  32   1.0000      -2.672259       -72.7159
  33   1.0000      -1.440594       -39.2006
  34   1.0000      -1.138222       -30.9726
  35   1.0000      -1.094283       -29.7770
  36   1.0000      -1.047680       -28.5088
  37   1.0000      -1.035277       -28.1713
  38   1.0000      -1.032299       -28.0903
  39   1.0000      -1.026064       -27.9206
  40   1.0000      -1.005353       -27.3570
  41   1.0000      -0.966705       -26.3054
  42   1.0000      -0.905279       -24.6339
  43   1.0000      -0.820043       -22.3145
  44   1.0000      -0.738711       -20.1013
  45   1.0000      -0.707015       -19.2389
  46   1.0000      -0.694554       -18.8998
  47   1.0000      -0.684743       -18.6328
  48   1.0000      -0.662660       -18.0319
  49   1.0000      -0.629067       -17.1178
  50   1.0000      -0.621117       -16.9015
  51   1.0000      -0.604354       -16.4453
  52   1.0000      -0.598220       -16.2784
  53   1.0000      -0.584052       -15.8929
  54   1.0000      -0.574860       -15.6427
  55   1.0000      -0.561493       -15.2790
  56   1.0000      -0.555592       -15.1184
  57   1.0000      -0.547478       -14.8976
  58   1.0000      -0.546358       -14.8671
  59   1.0000      -0.533314       -14.5122
  60   1.0000      -0.519498       -14.1363
  61   1.0000      -0.501954       -13.6589
  62   1.0000      -0.497695       -13.5430
  63   1.0000      -0.481327       -13.0976
  64   1.0000      -0.479188       -13.0394
  65   1.0000      -0.450450       -12.2574
  66   1.0000      -0.447539       -12.1782
  67   1.0000      -0.444849       -12.1050
  68   1.0000      -0.428850       -11.6696
  69   1.0000      -0.425836       -11.5876
  70   1.0000      -0.410528       -11.1710
  71   1.0000      -0.364332        -9.9140
  72   0.0000       0.012307         0.3349
  73   0.0000       0.022832         0.6213
  74   0.0000       0.023579         0.6416
  75   0.0000       0.030287         0.8242
  76   0.0000       0.038736         1.0541

E(0)                                       ...  -3028.449406912
E(0)                                       ...  -3028.449406912
E(CORR)(strong-pairs)                      ...     -2.871252040
E(CORR)(weak-pairs)                        ...     -0.036133259
E(CORR)(corrected)                         ...     -2.907385299
E(TOT)                                     ...  -3031.356792211
E(CCSD(T))                                 ...  -3031.475727066
FINAL SINGLE POINT ENERGY     -3031.475727066440

DIPOLE MOMENT
-------------
                                X             Y             Z
Electronic contribution:     42.51470       4.03019       1.75709
Nuclear contribution   :    -46.17537      -5.10711      -2.37860
                        -----------------------------------------
Total Dipole Moment    :     -3.66067      -1.07692      -0.62151
                        -----------------------------------------
Magnitude (a.u.)       :      3.86608
Magnitude (Debye)      :      9.82679

Rotational constants in cm-1:     0.019027     0.011051     0.010407
Rotational constants in MHz :   570.400742   331.313515   311.989932

                             ****ORCA TERMINATED NORMALLY****
TOTAL RUN TIME: 0 days 18 hours 26 minutes 29 seconds 249 msec
