                         Program Version 4.1.2  - RELEASE  -
|  1> ! aug-cc-pVTZ aug-cc-pVTZ/C DLPNO-CCSD(T1) TightSCF NormalPNO UNO MiniPrint AutoAux
|  2> %pal nproc 10 end
|  3> %maxcore 20000
|  4> %mdci
|  5>      density none
|  6> end
|  7>
|  8> * xyz 0 6
|  9>  O     -0.31869000     -0.27174800     -0.62094600
| 10>  C     -1.37393300     -1.16044700     -0.46886300
| 11>  C     -2.80878300     -0.13813400     -0.09997200
| 12>  C     -2.10606200      1.12242600     -0.23161200
| 13>  C     -1.97439800      1.79183900     -1.54051700
| 14> Fe      1.38229100      0.03721300      0.02558200
| 15> Cl      1.74284600      2.09224600     -0.75642400
| 16>  C     -1.57672800      1.83077800      0.94945300
| 17> Cl      2.71205600     -1.55521800     -0.69526200
| 18> Cl      1.23312000      0.06767900      2.25355700
| 19>  H     -3.47544900     -0.30733800     -0.94723400
| 20>  H     -2.43877500      2.31910300      1.43483900
| 21>  H     -1.14804000      1.14571600      1.68622900
| 22>  H     -0.83828300      2.58798500      0.68189500
| 23>  H     -2.56806300      2.71942800     -1.49019900
| 24>  H     -0.93077600      2.09347800     -1.69270500
| 25>  H     -2.33216600      1.18667600     -2.37368000
| 26>  C     -3.48668200     -0.45066600      1.22654000
| 27>  H     -4.31947700      0.23951800      1.40645900
| 28>  H     -3.89881900     -1.46256300      1.20529300
| 29>  H     -2.80386800     -0.38592000      2.07609800
| 30>  C     -1.15429200     -2.14235800      0.66556900
| 31>  H     -1.99609100     -2.82860700      0.79051900
| 32>  H     -0.26602300     -2.73115700      0.40324600
| 33>  H     -0.93885400     -1.63791600      1.60865300
| 34>  C     -1.67690700     -1.84545000     -1.79179200
| 35>  H     -0.79842900     -2.44121000     -2.06536800
| 36>  H     -2.54714300     -2.50578800     -1.71937900
| 37>  H     -1.83945800     -1.11290100     -2.58685800
| 38> *
| 39>
| 40>
| 41>                          ****END OF INPUT****

CARTESIAN COORDINATES (ANGSTROEM)
---------------------------------
  O     -0.318690   -0.271748   -0.620946
  C     -1.373933   -1.160447   -0.468863
  C     -2.808783   -0.138134   -0.099972
  C     -2.106062    1.122426   -0.231612
  C     -1.974398    1.791839   -1.540517
  Fe     1.382291    0.037213    0.025582
  Cl     1.742846    2.092246   -0.756424
  C     -1.576728    1.830778    0.949453
  Cl     2.712056   -1.555218   -0.695262
  Cl     1.233120    0.067679    2.253557
  H     -3.475449   -0.307338   -0.947234
  H     -2.438775    2.319103    1.434839
  H     -1.148040    1.145716    1.686229
  H     -0.838283    2.587985    0.681895
  H     -2.568063    2.719428   -1.490199
  H     -0.930776    2.093478   -1.692705
  H     -2.332166    1.186676   -2.373680
  C     -3.486682   -0.450666    1.226540
  H     -4.319477    0.239518    1.406459
  H     -3.898819   -1.462563    1.205293
  H     -2.803868   -0.385920    2.076098
  C     -1.154292   -2.142358    0.665569
  H     -1.996091   -2.828607    0.790519
  H     -0.266023   -2.731157    0.403246
  H     -0.938854   -1.637916    1.608653
  C     -1.676907   -1.845450   -1.791792
  H     -0.798429   -2.441210   -2.065368
  H     -2.547143   -2.505788   -1.719379
  H     -1.839458   -1.112901   -2.586858

ORBITAL ENERGIES
----------------
                 SPIN UP ORBITALS
  NO   OCC          E(Eh)            E(eV)
   0   1.0000    -261.545136     -7117.0050
   1   1.0000    -104.773863     -2851.0418
   2   1.0000    -104.773598     -2851.0345
   3   1.0000    -104.769233     -2850.9158
   4   1.0000     -32.213004      -876.5604
   5   1.0000     -27.688914      -753.4537
   6   1.0000     -27.688776      -753.4499
   7   1.0000     -27.688444      -753.4409
   8   1.0000     -20.542285      -558.9840
   9   1.0000     -11.401847      -310.2600
  10   1.0000     -11.356837      -309.0352
  11   1.0000     -11.289519      -307.2034
  12   1.0000     -11.282646      -307.0164
  13   1.0000     -11.277513      -306.8767
  14   1.0000     -11.264493      -306.5224
  15   1.0000     -11.243089      -305.9400
  16   1.0000     -11.237315      -305.7829
  17   1.0000     -10.500348      -285.7290
  18   1.0000     -10.500190      -285.7247
  19   1.0000     -10.495764      -285.6042
  20   1.0000      -7.967195      -216.7984
  21   1.0000      -7.967091      -216.7956
  22   1.0000      -7.966419      -216.7773
  23   1.0000      -7.966323      -216.7747
  24   1.0000      -7.966207      -216.7715
  25   1.0000      -7.966170      -216.7705
  26   1.0000      -7.962562      -216.6723
  27   1.0000      -7.961887      -216.6540
  28   1.0000      -7.961792      -216.6514
  29   1.0000      -4.568515      -124.3156
  30   1.0000      -3.181030       -86.5602
  31   1.0000      -3.180723       -86.5519
  32   1.0000      -3.180171       -86.5369
  33   1.0000      -1.364002       -37.1164
  34   1.0000      -1.186897       -32.2971
  35   1.0000      -1.087737       -29.5988
  36   1.0000      -1.044591       -28.4248
  37   1.0000      -1.040828       -28.3224
  38   1.0000      -1.039296       -28.2807
  39   1.0000      -1.036205       -28.1966
  40   1.0000      -1.016130       -27.6503
  41   1.0000      -0.970752       -26.4155
  42   1.0000      -0.934871       -25.4391
  43   1.0000      -0.907384       -24.6912
  44   1.0000      -0.898194       -24.4411
  45   1.0000      -0.898085       -24.4381
  46   1.0000      -0.890187       -24.2232
  47   1.0000      -0.889725       -24.2107
  48   1.0000      -0.791140       -21.5280
  49   1.0000      -0.762818       -20.7573
  50   1.0000      -0.704325       -19.1657
  51   1.0000      -0.691104       -18.8059
  52   1.0000      -0.674628       -18.3576
  53   1.0000      -0.641410       -17.4536
  54   1.0000      -0.633330       -17.2338
  55   1.0000      -0.630766       -17.1640
  56   1.0000      -0.601748       -16.3744
  57   1.0000      -0.599608       -16.3162
  58   1.0000      -0.595002       -16.1908
  59   1.0000      -0.582468       -15.8498
  60   1.0000      -0.578827       -15.7507
  61   1.0000      -0.558414       -15.1952
  62   1.0000      -0.554986       -15.1019
  63   1.0000      -0.541099       -14.7241
  64   1.0000      -0.532338       -14.4857
  65   1.0000      -0.527244       -14.3470
  66   1.0000      -0.505333       -13.7508
  67   1.0000      -0.471582       -12.8324
  68   1.0000      -0.460899       -12.5417
  69   1.0000      -0.446942       -12.1619
  70   1.0000      -0.426027       -11.5928
  71   1.0000      -0.425371       -11.5749
  72   1.0000      -0.420529       -11.4432
  73   1.0000      -0.413568       -11.2538
  74   1.0000      -0.412170       -11.2157
  75   1.0000      -0.409262       -11.1366
  76   1.0000      -0.405515       -11.0346
  77   0.0000       0.005970         0.1624
  78   0.0000       0.016284         0.4431
  79   0.0000       0.020917         0.5692
  80   0.0000       0.022138         0.6024
  81   0.0000       0.030242         0.8229

                 SPIN DOWN ORBITALS
  NO   OCC          E(Eh)            E(eV)
   0   1.0000    -261.541597     -7116.9087
   1   1.0000    -104.772598     -2851.0073
   2   1.0000    -104.772276     -2850.9986
   3   1.0000    -104.767806     -2850.8769
   4   1.0000     -32.050959      -872.1509
   5   1.0000     -27.529106      -749.1051
   6   1.0000     -27.528885      -749.0990
   7   1.0000     -27.528306      -749.0833
   8   1.0000     -20.536066      -558.8148
   9   1.0000     -11.401860      -310.2604
  10   1.0000     -11.356662      -309.0305
  11   1.0000     -11.289312      -307.1978
  12   1.0000     -11.282631      -307.0160
  13   1.0000     -11.277534      -306.8773
  14   1.0000     -11.264507      -306.5228
  15   1.0000     -11.242997      -305.9375
  16   1.0000     -11.237278      -305.7819
  17   1.0000     -10.498987      -285.6920
  18   1.0000     -10.498764      -285.6859
  19   1.0000     -10.494236      -285.5627
  20   1.0000      -7.964918      -216.7364
  21   1.0000      -7.964612      -216.7281
  22   1.0000      -7.964401      -216.7224
  23   1.0000      -7.964305      -216.7197
  24   1.0000      -7.964169      -216.7161
  25   1.0000      -7.964095      -216.7140
  26   1.0000      -7.960224      -216.6087
  27   1.0000      -7.959462      -216.5880
  28   1.0000      -7.959393      -216.5861
  29   1.0000      -4.126311      -112.2826
  30   1.0000      -2.648196       -72.0611
  31   1.0000      -2.648072       -72.0577
  32   1.0000      -2.647419       -72.0399
  33   1.0000      -1.347681       -36.6723
  34   1.0000      -1.185664       -32.2636
  35   1.0000      -1.085115       -29.5275
  36   1.0000      -1.039017       -28.2731
  37   1.0000      -1.030754       -28.0482
  38   1.0000      -1.021076       -27.7849
  39   1.0000      -1.016682       -27.6653
  40   1.0000      -1.014576       -27.6080
  41   1.0000      -0.970019       -26.3955
  42   1.0000      -0.932826       -25.3835
  43   1.0000      -0.796616       -21.6770
  44   1.0000      -0.769132       -20.9291
  45   1.0000      -0.704606       -19.1733
  46   1.0000      -0.690314       -18.7844
  47   1.0000      -0.675808       -18.3897
  48   1.0000      -0.643953       -17.5229
  49   1.0000      -0.632038       -17.1986
  50   1.0000      -0.629733       -17.1359
  51   1.0000      -0.601049       -16.3554
  52   1.0000      -0.599573       -16.3152
  53   1.0000      -0.594760       -16.1843
  54   1.0000      -0.581258       -15.8168
  55   1.0000      -0.578365       -15.7381
  56   1.0000      -0.558337       -15.1931
  57   1.0000      -0.553623       -15.0649
  58   1.0000      -0.540471       -14.7070
  59   1.0000      -0.530691       -14.4408
  60   1.0000      -0.521241       -14.1837
  61   1.0000      -0.499668       -13.5967
  62   1.0000      -0.469223       -12.7682
  63   1.0000      -0.463274       -12.6063
  64   1.0000      -0.455637       -12.3985
  65   1.0000      -0.435093       -11.8395
  66   1.0000      -0.432274       -11.7628
  67   1.0000      -0.430657       -11.7188
  68   1.0000      -0.426740       -11.6122
  69   1.0000      -0.409733       -11.1494
  70   1.0000      -0.397990       -10.8299
  71   1.0000      -0.396048       -10.7770
  72   0.0000       0.005959         0.1622
  73   0.0000       0.016043         0.4366
  74   0.0000       0.020897         0.5686
  75   0.0000       0.022058         0.6002
  76   0.0000       0.030276         0.8238

E(0)                                       ...  -3028.428032823
E(0)                                       ...  -3028.428032823
E(CORR)(strong-pairs)                      ...     -2.869091817
E(CORR)(weak-pairs)                        ...     -0.035690065
E(CORR)(corrected)                         ...     -2.904781881
E(TOT)                                     ...  -3031.332814704
E(CCSD(T))                                 ...  -3031.450776603
FINAL SINGLE POINT ENERGY     -3031.450776603013

DIPOLE MOMENT
-------------
                                X             Y             Z
Electronic contribution:     39.96562       4.43326       2.29335
Nuclear contribution   :    -44.87254      -3.98255      -2.73360
                        -----------------------------------------
Total Dipole Moment    :     -4.90692       0.45071      -0.44025
                        -----------------------------------------
Magnitude (a.u.)       :      4.94720
Magnitude (Debye)      :     12.57479

Rotational constants in cm-1:     0.019094     0.011804     0.010740
Rotational constants in MHz :   572.413222   353.889439   321.976307

                             ****ORCA TERMINATED NORMALLY****
TOTAL RUN TIME: 0 days 19 hours 33 minutes 10 seconds 604 msec
