                         Program Version 4.1.2  - RELEASE  -
|  1> ! aug-cc-pVTZ aug-cc-pVTZ/C DLPNO-CCSD(T1) TightSCF NormalPNO UNO MiniPrint AutoAux
|  2> %pal nproc 10 end
|  3> %maxcore 20000
|  4> %mdci
|  5>      density none
|  6> end
|  7>
|  8> * xyz 0 6
|  9>  O     -0.29046300     -0.21540200     -0.76538400
| 10>  C     -1.17875900     -1.13339200     -0.60621000
| 11>  C     -2.80619900     -0.27867900      0.50887300
| 12>  C     -2.57491500      0.93795800     -0.07726700
| 13>  C     -3.17578100      1.30911800     -1.39656500
| 14> Fe      1.43738500      0.13431500     -0.01710900
| 15> Cl      1.99889700      2.07122200     -0.86945900
| 16>  C     -1.67221200      1.96625100      0.51256500
| 17> Cl      2.65014600     -1.57847400     -0.65204900
| 18> Cl      1.18945900      0.21013900      2.17924300
| 19>  H     -3.57207500     -0.89814200      0.04535600
| 20>  H     -2.22683400      2.90412200      0.64799000
| 21>  H     -1.23161500      1.67677600      1.46486600
| 22>  H     -0.85978300      2.18769800     -0.19242100
| 23>  H     -3.72135300      2.25528300     -1.28959000
| 24>  H     -2.38487500      1.49253300     -2.13599800
| 25>  H     -3.86763200      0.55599800     -1.77870400
| 26>  C     -2.57813100     -0.54006000      1.98305000
| 27>  H     -3.32198300      0.01502300      2.56791000
| 28>  H     -2.70660900     -1.59804000      2.22065000
| 29>  H     -1.58841300     -0.23298000      2.32693200
| 30>  C     -0.87058400     -2.25925800      0.35494800
| 31>  H     -1.72932200     -2.91049000      0.52684500
| 32>  H     -0.08140900     -2.84538000     -0.13627000
| 33>  H     -0.46629200     -1.90036700      1.30057500
| 34>  C     -1.88837000     -1.56129600     -1.87445500
| 35>  H     -1.17569900     -2.20543100     -2.40608800
| 36>  H     -2.79214100     -2.14236600     -1.68080100
| 37>  H     -2.10710200     -0.71612600     -2.52446000
| 38> *
| 39>
| 40>
| 41>                          ****END OF INPUT****

CARTESIAN COORDINATES (ANGSTROEM)
---------------------------------
  O     -0.290463   -0.215402   -0.765384
  C     -1.178759   -1.133392   -0.606210
  C     -2.806199   -0.278679    0.508873
  C     -2.574915    0.937958   -0.077267
  C     -3.175781    1.309118   -1.396565
  Fe     1.437385    0.134315   -0.017109
  Cl     1.998897    2.071222   -0.869459
  C     -1.672212    1.966251    0.512565
  Cl     2.650146   -1.578474   -0.652049
  Cl     1.189459    0.210139    2.179243
  H     -3.572075   -0.898142    0.045356
  H     -2.226834    2.904122    0.647990
  H     -1.231615    1.676776    1.464866
  H     -0.859783    2.187698   -0.192421
  H     -3.721353    2.255283   -1.289590
  H     -2.384875    1.492533   -2.135998
  H     -3.867632    0.555998   -1.778704
  C     -2.578131   -0.540060    1.983050
  H     -3.321983    0.015023    2.567910
  H     -2.706609   -1.598040    2.220650
  H     -1.588413   -0.232980    2.326932
  C     -0.870584   -2.259258    0.354948
  H     -1.729322   -2.910490    0.526845
  H     -0.081409   -2.845380   -0.136270
  H     -0.466292   -1.900367    1.300575
  C     -1.888370   -1.561296   -1.874455
  H     -1.175699   -2.205431   -2.406088
  H     -2.792141   -2.142366   -1.680801
  H     -2.107102   -0.716126   -2.524460

ORBITAL ENERGIES
----------------
                 SPIN UP ORBITALS
  NO   OCC          E(Eh)            E(eV)
   0   1.0000    -261.561662     -7117.4547
   1   1.0000    -104.784820     -2851.3399
   2   1.0000    -104.780425     -2851.2203
   3   1.0000    -104.779804     -2851.2034
   4   1.0000     -32.229509      -877.0095
   5   1.0000     -27.705687      -753.9101
   6   1.0000     -27.705031      -753.8922
   7   1.0000     -27.704840      -753.8870
   8   1.0000     -20.581324      -560.0463
   9   1.0000     -11.406896      -310.3974
  10   1.0000     -11.318440      -307.9904
  11   1.0000     -11.265891      -306.5605
  12   1.0000     -11.265313      -306.5447
  13   1.0000     -11.265126      -306.5397
  14   1.0000     -11.259980      -306.3996
  15   1.0000     -11.247217      -306.0523
  16   1.0000     -11.245613      -306.0087
  17   1.0000     -10.511486      -286.0321
  18   1.0000     -10.507082      -285.9122
  19   1.0000     -10.506414      -285.8941
  20   1.0000      -7.978356      -217.1021
  21   1.0000      -7.977525      -217.0795
  22   1.0000      -7.977496      -217.0787
  23   1.0000      -7.973936      -216.9818
  24   1.0000      -7.973223      -216.9624
  25   1.0000      -7.973181      -216.9613
  26   1.0000      -7.973118      -216.9596
  27   1.0000      -7.972527      -216.9435
  28   1.0000      -7.972460      -216.9417
  29   1.0000      -4.584682      -124.7555
  30   1.0000      -3.197519       -87.0089
  31   1.0000      -3.196430       -86.9793
  32   1.0000      -3.196141       -86.9714
  33   1.0000      -1.426255       -38.8104
  34   1.0000      -1.157157       -31.4878
  35   1.0000      -1.088363       -29.6159
  36   1.0000      -1.056379       -28.7455
  37   1.0000      -1.050525       -28.5862
  38   1.0000      -1.047761       -28.5110
  39   1.0000      -1.034908       -28.1613
  40   1.0000      -0.996365       -27.1125
  41   1.0000      -0.981159       -26.6987
  42   1.0000      -0.930245       -25.3132
  43   1.0000      -0.915497       -24.9119
  44   1.0000      -0.913854       -24.8672
  45   1.0000      -0.913793       -24.8656
  46   1.0000      -0.904267       -24.6064
  47   1.0000      -0.903526       -24.5862
  48   1.0000      -0.796400       -21.6712
  49   1.0000      -0.752959       -20.4891
  50   1.0000      -0.692515       -18.8443
  51   1.0000      -0.687971       -18.7206
  52   1.0000      -0.681367       -18.5409
  53   1.0000      -0.667877       -18.1738
  54   1.0000      -0.641044       -17.4437
  55   1.0000      -0.624041       -16.9810
  56   1.0000      -0.603814       -16.4306
  57   1.0000      -0.594189       -16.1687
  58   1.0000      -0.582020       -15.8376
  59   1.0000      -0.574262       -15.6265
  60   1.0000      -0.568054       -15.4575
  61   1.0000      -0.559312       -15.2197
  62   1.0000      -0.555927       -15.1276
  63   1.0000      -0.546318       -14.8661
  64   1.0000      -0.540521       -14.7083
  65   1.0000      -0.523521       -14.2457
  66   1.0000      -0.515107       -14.0168
  67   1.0000      -0.486286       -13.2325
  68   1.0000      -0.468236       -12.7413
  69   1.0000      -0.463499       -12.6125
  70   1.0000      -0.435923       -11.8621
  71   1.0000      -0.432055       -11.7568
  72   1.0000      -0.430296       -11.7090
  73   1.0000      -0.421427       -11.4676
  74   1.0000      -0.420095       -11.4314
  75   1.0000      -0.419219       -11.4075
  76   1.0000      -0.377186       -10.2638
  77   0.0000       0.010807         0.2941
  78   0.0000       0.021037         0.5725
  79   0.0000       0.022667         0.6168
  80   0.0000       0.029001         0.7891
  81   0.0000       0.036241         0.9862

                 SPIN DOWN ORBITALS
  NO   OCC          E(Eh)            E(eV)
   0   1.0000    -261.558104     -7117.3579
   1   1.0000    -104.783413     -2851.3016
   2   1.0000    -104.778926     -2851.1795
   3   1.0000    -104.778340     -2851.1636
   4   1.0000     -32.067449      -872.5996
   5   1.0000     -27.545415      -749.5488
   6   1.0000     -27.545335      -749.5467
   7   1.0000     -27.545046      -749.5388
   8   1.0000     -20.576966      -559.9277
   9   1.0000     -11.406839      -310.3959
  10   1.0000     -11.318238      -307.9849
  11   1.0000     -11.265777      -306.5574
  12   1.0000     -11.265327      -306.5451
  13   1.0000     -11.265153      -306.5404
  14   1.0000     -11.259963      -306.3992
  15   1.0000     -11.247264      -306.0536
  16   1.0000     -11.245610      -306.0086
  17   1.0000     -10.509976      -285.9910
  18   1.0000     -10.505480      -285.8686
  19   1.0000     -10.504854      -285.8516
  20   1.0000      -7.975859      -217.0342
  21   1.0000      -7.975270      -217.0181
  22   1.0000      -7.975213      -217.0166
  23   1.0000      -7.971394      -216.9127
  24   1.0000      -7.970829      -216.8973
  25   1.0000      -7.970700      -216.8938
  26   1.0000      -7.970615      -216.8915
  27   1.0000      -7.970056      -216.8763
  28   1.0000      -7.969967      -216.8738
  29   1.0000      -4.142391      -112.7202
  30   1.0000      -2.664085       -72.4934
  31   1.0000      -2.664049       -72.4925
  32   1.0000      -2.663287       -72.4717
  33   1.0000      -1.415225       -38.5102
  34   1.0000      -1.156418       -31.4677
  35   1.0000      -1.085621       -29.5413
  36   1.0000      -1.041772       -28.3480
  37   1.0000      -1.034605       -28.1530
  38   1.0000      -1.029101       -28.0033
  39   1.0000      -1.026203       -27.9244
  40   1.0000      -0.995654       -27.0931
  41   1.0000      -0.980991       -26.6941
  42   1.0000      -0.916481       -24.9387
  43   1.0000      -0.809917       -22.0390
  44   1.0000      -0.753195       -20.4955
  45   1.0000      -0.695111       -18.9149
  46   1.0000      -0.687460       -18.7067
  47   1.0000      -0.680818       -18.5260
  48   1.0000      -0.667339       -18.1592
  49   1.0000      -0.640931       -17.4406
  50   1.0000      -0.623544       -16.9675
  51   1.0000      -0.603128       -16.4120
  52   1.0000      -0.594187       -16.1687
  53   1.0000      -0.581856       -15.8331
  54   1.0000      -0.573224       -15.5982
  55   1.0000      -0.567965       -15.4551
  56   1.0000      -0.559197       -15.2165
  57   1.0000      -0.555597       -15.1186
  58   1.0000      -0.544985       -14.8298
  59   1.0000      -0.537782       -14.6338
  60   1.0000      -0.515831       -14.0365
  61   1.0000      -0.512215       -13.9381
  62   1.0000      -0.485630       -13.2147
  63   1.0000      -0.474466       -12.9109
  64   1.0000      -0.472263       -12.8509
  65   1.0000      -0.444969       -12.1082
  66   1.0000      -0.441774       -12.0213
  67   1.0000      -0.439309       -11.9542
  68   1.0000      -0.424759       -11.5583
  69   1.0000      -0.419638       -11.4189
  70   1.0000      -0.405531       -11.0351
  71   1.0000      -0.374943       -10.2027
  72   0.0000       0.010797         0.2938
  73   0.0000       0.021010         0.5717
  74   0.0000       0.022656         0.6165
  75   0.0000       0.028786         0.7833
  76   0.0000       0.035661         0.9704

E(0)                                       ...  -3028.435569262
E(0)                                       ...  -3028.435569262
E(CORR)(strong-pairs)                      ...     -2.874030737
E(CORR)(weak-pairs)                        ...     -0.036247616
E(CORR)(corrected)                         ...     -2.910278354
E(TOT)                                     ...  -3031.345847616
E(CCSD(T))                                 ...  -3031.465894890
FINAL SINGLE POINT ENERGY     -3031.465894889975

DIPOLE MOMENT
-------------
                                X             Y             Z
Electronic contribution:     41.74065       4.94578       1.34234
Nuclear contribution   :    -45.95078      -5.67015      -1.86040
                        -----------------------------------------
Total Dipole Moment    :     -4.21013      -0.72437      -0.51806
                        -----------------------------------------
Magnitude (a.u.)       :      4.30329
Magnitude (Debye)      :     10.93809

Rotational constants in cm-1:     0.019151     0.011155     0.010473
Rotational constants in MHz :   574.123322   334.430993   313.984409

                             ****ORCA TERMINATED NORMALLY****
TOTAL RUN TIME: 0 days 19 hours 53 minutes 23 seconds 997 msec
