                         Program Version 4.1.2  - RELEASE  -
|  1> ! aug-cc-pVTZ aug-cc-pVTZ/C DLPNO-CCSD(T1) TightSCF NormalPNO UNO MiniPrint AutoAux
|  2> %pal nproc 10 end
|  3> %maxcore 20000
|  4> %mdci
|  5>      density none
|  6> end
|  7>
|  8> * xyz 0 6
|  9>  O     -0.33681300     -0.12772600     -0.64012200
| 10>  C     -1.28411800     -1.05720000     -0.55073300
| 11>  C     -2.87753300     -0.19409400      0.16939100
| 12>  C     -2.31964400      1.04069800     -0.16505400
| 13>  C     -2.47505600      1.63798200     -1.51776600
| 14> Fe      1.40374400      0.07964800      0.02155600
| 15> Cl      1.95039800      2.08462800     -0.71448000
| 16>  C     -1.55902800      1.85763700      0.81290600
| 17> Cl      2.56991000     -1.61037000     -0.76742200
| 18> Cl      1.24243500      0.01561200      2.24079600
| 19>  H     -3.62187400     -0.56640100     -0.53185500
| 20>  H     -2.28968100      2.52698400      1.29629100
| 21>  H     -1.08472000      1.26816400      1.59726700
| 22>  H     -0.80687100      2.47908100      0.32065000
| 23>  H     -2.82702400      2.67162300     -1.40477600
| 24>  H     -1.48557200      1.69685300     -1.98834800
| 25>  H     -3.16940800      1.09383300     -2.15916200
| 26>  C     -3.14363000     -0.57183900      1.61379400
| 27>  H     -3.99422900      0.00668600      1.99439500
| 28>  H     -3.40455300     -1.62901900      1.69775500
| 29>  H     -2.29102800     -0.38113400      2.26857700
| 30>  C     -1.01628800     -2.17376200      0.43781000
| 31>  H     -1.85032300     -2.87437700      0.51516200
| 32>  H     -0.14577900     -2.71308000      0.04004700
| 33>  H     -0.74060300     -1.79651200      1.42243300
| 34>  C     -1.75198000     -1.55450100     -1.90866200
| 35>  H     -0.90237600     -2.09780200     -2.34034500
| 36>  H     -2.60250300     -2.23679000     -1.83179200
| 37>  H     -1.98925200     -0.73448000     -2.58710400
| 38> *
| 39>
| 40>
| 41>                          ****END OF INPUT****

CARTESIAN COORDINATES (ANGSTROEM)
---------------------------------
  O     -0.336813   -0.127726   -0.640122
  C     -1.284118   -1.057200   -0.550733
  C     -2.877533   -0.194094    0.169391
  C     -2.319644    1.040698   -0.165054
  C     -2.475056    1.637982   -1.517766
  Fe     1.403744    0.079648    0.021556
  Cl     1.950398    2.084628   -0.714480
  C     -1.559028    1.857637    0.812906
  Cl     2.569910   -1.610370   -0.767422
  Cl     1.242435    0.015612    2.240796
  H     -3.621874   -0.566401   -0.531855
  H     -2.289681    2.526984    1.296291
  H     -1.084720    1.268164    1.597267
  H     -0.806871    2.479081    0.320650
  H     -2.827024    2.671623   -1.404776
  H     -1.485572    1.696853   -1.988348
  H     -3.169408    1.093833   -2.159162
  C     -3.143630   -0.571839    1.613794
  H     -3.994229    0.006686    1.994395
  H     -3.404553   -1.629019    1.697755
  H     -2.291028   -0.381134    2.268577
  C     -1.016288   -2.173762    0.437810
  H     -1.850323   -2.874377    0.515162
  H     -0.145779   -2.713080    0.040047
  H     -0.740603   -1.796512    1.422433
  C     -1.751980   -1.554501   -1.908662
  H     -0.902376   -2.097802   -2.340345
  H     -2.602503   -2.236790   -1.831792
  H     -1.989252   -0.734480   -2.587104

ORBITAL ENERGIES
----------------
                 SPIN UP ORBITALS
  NO   OCC          E(Eh)            E(eV)
   0   1.0000    -261.551223     -7117.1706
   1   1.0000    -104.777397     -2851.1379
   2   1.0000    -104.775058     -2851.0743
   3   1.0000    -104.773656     -2851.0361
   4   1.0000     -32.219118      -876.7268
   5   1.0000     -27.695047      -753.6205
   6   1.0000     -27.694813      -753.6142
   7   1.0000     -27.694575      -753.6077
   8   1.0000     -20.553075      -559.2776
   9   1.0000     -11.384533      -309.7889
  10   1.0000     -11.366382      -309.2950
  11   1.0000     -11.279211      -306.9229
  12   1.0000     -11.276239      -306.8421
  13   1.0000     -11.263446      -306.4940
  14   1.0000     -11.258323      -306.3545
  15   1.0000     -11.254384      -306.2474
  16   1.0000     -11.246860      -306.0426
  17   1.0000     -10.503981      -285.8278
  18   1.0000     -10.501600      -285.7631
  19   1.0000     -10.500224      -285.7256
  20   1.0000      -7.970871      -216.8984
  21   1.0000      -7.970008      -216.8749
  22   1.0000      -7.969965      -216.8738
  23   1.0000      -7.968417      -216.8317
  24   1.0000      -7.967700      -216.8121
  25   1.0000      -7.967616      -216.8099
  26   1.0000      -7.967058      -216.7947
  27   1.0000      -7.966324      -216.7747
  28   1.0000      -7.966248      -216.7726
  29   1.0000      -4.574509      -124.4787
  30   1.0000      -3.187108       -86.7256
  31   1.0000      -3.186574       -86.7111
  32   1.0000      -3.186076       -86.6975
  33   1.0000      -1.395212       -37.9656
  34   1.0000      -1.178415       -32.0663
  35   1.0000      -1.085178       -29.5292
  36   1.0000      -1.048272       -28.5249
  37   1.0000      -1.043277       -28.3890
  38   1.0000      -1.042510       -28.3681
  39   1.0000      -1.040540       -28.3145
  40   1.0000      -1.001953       -27.2645
  41   1.0000      -0.981364       -26.7043
  42   1.0000      -0.933266       -25.3955
  43   1.0000      -0.915808       -24.9204
  44   1.0000      -0.904046       -24.6003
  45   1.0000      -0.903926       -24.5971
  46   1.0000      -0.895210       -24.3599
  47   1.0000      -0.894871       -24.3507
  48   1.0000      -0.785857       -21.3843
  49   1.0000      -0.764893       -20.8138
  50   1.0000      -0.698988       -19.0204
  51   1.0000      -0.693701       -18.8766
  52   1.0000      -0.674302       -18.3487
  53   1.0000      -0.653217       -17.7749
  54   1.0000      -0.647863       -17.6292
  55   1.0000      -0.625463       -17.0197
  56   1.0000      -0.600791       -16.3484
  57   1.0000      -0.593860       -16.1597
  58   1.0000      -0.590567       -16.0701
  59   1.0000      -0.580307       -15.7910
  60   1.0000      -0.575939       -15.6721
  61   1.0000      -0.562485       -15.3060
  62   1.0000      -0.555965       -15.1286
  63   1.0000      -0.549383       -14.9495
  64   1.0000      -0.537286       -14.6203
  65   1.0000      -0.528567       -14.3830
  66   1.0000      -0.512156       -13.9365
  67   1.0000      -0.476254       -12.9595
  68   1.0000      -0.462604       -12.5881
  69   1.0000      -0.452767       -12.3204
  70   1.0000      -0.428854       -11.6697
  71   1.0000      -0.426076       -11.5941
  72   1.0000      -0.424086       -11.5400
  73   1.0000      -0.415755       -11.3133
  74   1.0000      -0.414482       -11.2786
  75   1.0000      -0.413313       -11.2468
  76   1.0000      -0.390545       -10.6273
  77   0.0000       0.008383         0.2281
  78   0.0000       0.019516         0.5310
  79   0.0000       0.021206         0.5771
  80   0.0000       0.028443         0.7740
  81   0.0000       0.031487         0.8568

                 SPIN DOWN ORBITALS
  NO   OCC          E(Eh)            E(eV)
   0   1.0000    -261.547678     -7117.0741
   1   1.0000    -104.776053     -2851.1013
   2   1.0000    -104.773695     -2851.0372
   3   1.0000    -104.772217     -2850.9970
   4   1.0000     -32.057062      -872.3170
   5   1.0000     -27.535111      -749.2685
   6   1.0000     -27.534975      -749.2648
   7   1.0000     -27.534512      -749.2522
   8   1.0000     -20.547715      -559.1318
   9   1.0000     -11.384494      -309.7878
  10   1.0000     -11.366350      -309.2941
  11   1.0000     -11.278957      -306.9160
  12   1.0000     -11.276237      -306.8420
  13   1.0000     -11.263476      -306.4948
  14   1.0000     -11.258350      -306.3553
  15   1.0000     -11.254277      -306.2444
  16   1.0000     -11.246826      -306.0417
  17   1.0000     -10.502533      -285.7884
  18   1.0000     -10.500141      -285.7234
  19   1.0000     -10.498683      -285.6837
  20   1.0000      -7.968393      -216.8310
  21   1.0000      -7.967910      -216.8178
  22   1.0000      -7.967829      -216.8156
  23   1.0000      -7.966114      -216.7690
  24   1.0000      -7.965439      -216.7506
  25   1.0000      -7.965347      -216.7481
  26   1.0000      -7.964624      -216.7284
  27   1.0000      -7.963932      -216.7096
  28   1.0000      -7.963854      -216.7075
  29   1.0000      -4.132223      -112.4435
  30   1.0000      -2.653988       -72.2187
  31   1.0000      -2.653958       -72.2179
  32   1.0000      -2.653201       -72.1973
  33   1.0000      -1.381487       -37.5922
  34   1.0000      -1.177360       -32.0376
  35   1.0000      -1.082501       -29.4564
  36   1.0000      -1.042008       -28.3545
  37   1.0000      -1.034104       -28.1394
  38   1.0000      -1.022686       -27.8287
  39   1.0000      -1.020220       -27.7616
  40   1.0000      -1.001661       -27.2566
  41   1.0000      -0.980637       -26.6845
  42   1.0000      -0.931127       -25.3373
  43   1.0000      -0.797357       -21.6972
  44   1.0000      -0.766688       -20.8626
  45   1.0000      -0.699368       -19.0308
  46   1.0000      -0.692882       -18.8543
  47   1.0000      -0.675978       -18.3943
  48   1.0000      -0.653990       -17.7960
  49   1.0000      -0.646494       -17.5920
  50   1.0000      -0.625245       -17.0138
  51   1.0000      -0.599753       -16.3201
  52   1.0000      -0.593995       -16.1634
  53   1.0000      -0.590439       -16.0667
  54   1.0000      -0.579714       -15.7748
  55   1.0000      -0.575852       -15.6697
  56   1.0000      -0.562387       -15.3033
  57   1.0000      -0.555474       -15.1152
  58   1.0000      -0.548698       -14.9308
  59   1.0000      -0.531596       -14.4655
  60   1.0000      -0.528272       -14.3750
  61   1.0000      -0.504329       -13.7235
  62   1.0000      -0.474285       -12.9060
  63   1.0000      -0.466781       -12.7018
  64   1.0000      -0.462160       -12.5760
  65   1.0000      -0.437787       -11.9128
  66   1.0000      -0.434678       -11.8282
  67   1.0000      -0.433350       -11.7921
  68   1.0000      -0.422513       -11.4972
  69   1.0000      -0.413161       -11.2427
  70   1.0000      -0.400419       -10.8959
  71   1.0000      -0.386301       -10.5118
  72   0.0000       0.008382         0.2281
  73   0.0000       0.019462         0.5296
  74   0.0000       0.021188         0.5765
  75   0.0000       0.028258         0.7689
  76   0.0000       0.031383         0.8540

E(0)                                       ...  -3028.423749492
E(0)                                       ...  -3028.423749492
E(CORR)(strong-pairs)                      ...     -2.872189793
E(CORR)(weak-pairs)                        ...     -0.036308450
E(CORR)(corrected)                         ...     -2.908498243
E(TOT)                                     ...  -3031.332247734
E(CCSD(T))                                 ...  -3031.451598902
FINAL SINGLE POINT ENERGY     -3031.451598901795

DIPOLE MOMENT
-------------
                                X             Y             Z
Electronic contribution:     40.44186       4.11921       2.25521
Nuclear contribution   :    -45.11858      -4.13736      -2.76445
                        -----------------------------------------
Total Dipole Moment    :     -4.67672      -0.01815      -0.50924
                        -----------------------------------------
Magnitude (a.u.)       :      4.70440
Magnitude (Debye)      :     11.95762

Rotational constants in cm-1:     0.019141     0.011559     0.010759
Rotational constants in MHz :   573.818510   346.517054   322.549816

                             ****ORCA TERMINATED NORMALLY****
TOTAL RUN TIME: 0 days 20 hours 43 minutes 46 seconds 931 msec
