                         Program Version 4.1.2  - RELEASE  -
|  1> ! aug-cc-pVTZ aug-cc-pVTZ/C DLPNO-CCSD(T1) TightSCF NormalPNO UNO MiniPrint AutoAux
|  2> %pal nproc 10 end
|  3> %maxcore 20000
|  4> %mdci
|  5>      density none
|  6> end
|  7>
|  8> * xyz 0 6
|  9>  O     -0.35424700     -0.26379000     -0.59526600
| 10>  C     -1.42860900     -1.19368600     -0.39120400
| 11>  C     -2.75506900     -0.14661800     -0.20640600
| 12>  C     -2.00477000      1.14983200     -0.25255600
| 13>  C     -1.88282400      1.89065700     -1.52425200
| 14> Fe      1.37620300      0.02936300      0.02199500
| 15> Cl      1.76548300      2.05685100     -0.80724800
| 16>  C     -1.58112400      1.82835500      0.98821700
| 17> Cl      2.63371100     -1.61517000     -0.70201600
| 18> Cl      1.29243200      0.12961000      2.24206400
| 19>  H     -3.35585800     -0.24033500     -1.11534300
| 20>  H     -2.46622200      2.37143200      1.36173800
| 21>  H     -1.27392300      1.12953300      1.76811300
| 22>  H     -0.78345100      2.55062600      0.80350400
| 23>  H     -2.59638800      2.73095300     -1.48016300
| 24>  H     -0.87900700      2.32039300     -1.61457800
| 25>  H     -2.11845600      1.27552000     -2.39317600
| 26>  C     -3.62781900     -0.38128600      1.02237700
| 27>  H     -4.43627400      0.35684500      1.07803900
| 28>  H     -4.09082200     -1.37003100      0.95786300
| 29>  H     -3.06203500     -0.33875600      1.95557200
| 30>  C     -1.19002100     -2.05637700      0.83473900
| 31>  H     -2.01772300     -2.75251200      1.00193300
| 32>  H     -0.27992300     -2.64367600      0.66569500
| 33>  H     -1.02901500     -1.45953000      1.73426200
| 34>  C     -1.60091500     -2.02372300     -1.65200000
| 35>  H     -0.68961500     -2.60918100     -1.81574500
| 36>  H     -2.45093900     -2.70977400     -1.56465100
| 37>  H     -1.74838400     -1.37949900     -2.52388100
| 38> *
| 39>
| 40>
| 41>                          ****END OF INPUT****

CARTESIAN COORDINATES (ANGSTROEM)
---------------------------------
  O     -0.354247   -0.263790   -0.595266
  C     -1.428609   -1.193686   -0.391204
  C     -2.755069   -0.146618   -0.206406
  C     -2.004770    1.149832   -0.252556
  C     -1.882824    1.890657   -1.524252
  Fe     1.376203    0.029363    0.021995
  Cl     1.765483    2.056851   -0.807248
  C     -1.581124    1.828355    0.988217
  Cl     2.633711   -1.615170   -0.702016
  Cl     1.292432    0.129610    2.242064
  H     -3.355858   -0.240335   -1.115343
  H     -2.466222    2.371432    1.361738
  H     -1.273923    1.129533    1.768113
  H     -0.783451    2.550626    0.803504
  H     -2.596388    2.730953   -1.480163
  H     -0.879007    2.320393   -1.614578
  H     -2.118456    1.275520   -2.393176
  C     -3.627819   -0.381286    1.022377
  H     -4.436274    0.356845    1.078039
  H     -4.090822   -1.370031    0.957863
  H     -3.062035   -0.338756    1.955572
  C     -1.190021   -2.056377    0.834739
  H     -2.017723   -2.752512    1.001933
  H     -0.279923   -2.643676    0.665695
  H     -1.029015   -1.459530    1.734262
  C     -1.600915   -2.023723   -1.652000
  H     -0.689615   -2.609181   -1.815745
  H     -2.450939   -2.709774   -1.564651
  H     -1.748384   -1.379499   -2.523881

ORBITAL ENERGIES
----------------
                 SPIN UP ORBITALS
  NO   OCC          E(Eh)            E(eV)
   0   1.0000    -261.544670     -7116.9923
   1   1.0000    -104.774421     -2851.0569
   2   1.0000    -104.773050     -2851.0196
   3   1.0000    -104.769247     -2850.9162
   4   1.0000     -32.212555      -876.5482
   5   1.0000     -27.688456      -753.4412
   6   1.0000     -27.688313      -753.4373
   7   1.0000     -27.687983      -753.4283
   8   1.0000     -20.546518      -559.0992
   9   1.0000     -11.411822      -310.5315
  10   1.0000     -11.340364      -308.5870
  11   1.0000     -11.294861      -307.3488
  12   1.0000     -11.283781      -307.0473
  13   1.0000     -11.281874      -306.9954
  14   1.0000     -11.266343      -306.5728
  15   1.0000     -11.237213      -305.7801
  16   1.0000     -11.233942      -305.6911
  17   1.0000     -10.500972      -285.7460
  18   1.0000     -10.499716      -285.7118
  19   1.0000     -10.495834      -285.6062
  20   1.0000      -7.967816      -216.8153
  21   1.0000      -7.967043      -216.7943
  22   1.0000      -7.966957      -216.7919
  23   1.0000      -7.966609      -216.7824
  24   1.0000      -7.965742      -216.7589
  25   1.0000      -7.965715      -216.7581
  26   1.0000      -7.962632      -216.6742
  27   1.0000      -7.961960      -216.6559
  28   1.0000      -7.961868      -216.6534
  29   1.0000      -4.568001      -124.3016
  30   1.0000      -3.180426       -86.5438
  31   1.0000      -3.180206       -86.5378
  32   1.0000      -3.179661       -86.5230
  33   1.0000      -1.349407       -36.7192
  34   1.0000      -1.181275       -32.1441
  35   1.0000      -1.091304       -29.6959
  36   1.0000      -1.044991       -28.4357
  37   1.0000      -1.039905       -28.2972
  38   1.0000      -1.037807       -28.2402
  39   1.0000      -1.036638       -28.2084
  40   1.0000      -1.019018       -27.7289
  41   1.0000      -0.964993       -26.2588
  42   1.0000      -0.933291       -25.3961
  43   1.0000      -0.902235       -24.5511
  44   1.0000      -0.897426       -24.4202
  45   1.0000      -0.897304       -24.4169
  46   1.0000      -0.889597       -24.2072
  47   1.0000      -0.889131       -24.1945
  48   1.0000      -0.798642       -21.7321
  49   1.0000      -0.759578       -20.6692
  50   1.0000      -0.703268       -19.1369
  51   1.0000      -0.689177       -18.7535
  52   1.0000      -0.672861       -18.3095
  53   1.0000      -0.636196       -17.3118
  54   1.0000      -0.634105       -17.2549
  55   1.0000      -0.624065       -16.9817
  56   1.0000      -0.603779       -16.4297
  57   1.0000      -0.598448       -16.2846
  58   1.0000      -0.595319       -16.1995
  59   1.0000      -0.582771       -15.8580
  60   1.0000      -0.576982       -15.7005
  61   1.0000      -0.558153       -15.1881
  62   1.0000      -0.547462       -14.8972
  63   1.0000      -0.538496       -14.6532
  64   1.0000      -0.528157       -14.3719
  65   1.0000      -0.520603       -14.1663
  66   1.0000      -0.503474       -13.7002
  67   1.0000      -0.471519       -12.8307
  68   1.0000      -0.463420       -12.6103
  69   1.0000      -0.447913       -12.1883
  70   1.0000      -0.433625       -11.7995
  71   1.0000      -0.425491       -11.5782
  72   1.0000      -0.420612       -11.4454
  73   1.0000      -0.415104       -11.2956
  74   1.0000      -0.411831       -11.2065
  75   1.0000      -0.411403       -11.1948
  76   1.0000      -0.409381       -11.1398
  77   0.0000       0.005516         0.1501
  78   0.0000       0.017779         0.4838
  79   0.0000       0.021048         0.5727
  80   0.0000       0.026750         0.7279
  81   0.0000       0.030352         0.8259

                 SPIN DOWN ORBITALS
  NO   OCC          E(Eh)            E(eV)
   0   1.0000    -261.541127     -7116.8959
   1   1.0000    -104.773143     -2851.0222
   2   1.0000    -104.771702     -2850.9829
   3   1.0000    -104.767805     -2850.8769
   4   1.0000     -32.050545      -872.1397
   5   1.0000     -27.528678      -749.0934
   6   1.0000     -27.528436      -749.0868
   7   1.0000     -27.527919      -749.0728
   8   1.0000     -20.540411      -558.9330
   9   1.0000     -11.411865      -310.5326
  10   1.0000     -11.340143      -308.5810
  11   1.0000     -11.294730      -307.3452
  12   1.0000     -11.283760      -307.0467
  13   1.0000     -11.281884      -306.9957
  14   1.0000     -11.266343      -306.5728
  15   1.0000     -11.237154      -305.7785
  16   1.0000     -11.233921      -305.6905
  17   1.0000     -10.499597      -285.7086
  18   1.0000     -10.498263      -285.6723
  19   1.0000     -10.494291      -285.5642
  20   1.0000      -7.965531      -216.7531
  21   1.0000      -7.964997      -216.7386
  22   1.0000      -7.964912      -216.7363
  23   1.0000      -7.964137      -216.7152
  24   1.0000      -7.963631      -216.7014
  25   1.0000      -7.963572      -216.6998
  26   1.0000      -7.960279      -216.6102
  27   1.0000      -7.959505      -216.5891
  28   1.0000      -7.959443      -216.5874
  29   1.0000      -4.125887      -112.2711
  30   1.0000      -2.647823       -72.0509
  31   1.0000      -2.647747       -72.0489
  32   1.0000      -2.646775       -72.0224
  33   1.0000      -1.333430       -36.2845
  34   1.0000      -1.179784       -32.1036
  35   1.0000      -1.088763       -29.6268
  36   1.0000      -1.035983       -28.1905
  37   1.0000      -1.031073       -28.0569
  38   1.0000      -1.022142       -27.8139
  39   1.0000      -1.017702       -27.6931
  40   1.0000      -1.015938       -27.6451
  41   1.0000      -0.964246       -26.2385
  42   1.0000      -0.930217       -25.3125
  43   1.0000      -0.801624       -21.8133
  44   1.0000      -0.764803       -20.8113
  45   1.0000      -0.703452       -19.1419
  46   1.0000      -0.688793       -18.7430
  47   1.0000      -0.673900       -18.3377
  48   1.0000      -0.638120       -17.3641
  49   1.0000      -0.634003       -17.2521
  50   1.0000      -0.622290       -16.9334
  51   1.0000      -0.603956       -16.4345
  52   1.0000      -0.597494       -16.2586
  53   1.0000      -0.594893       -16.1879
  54   1.0000      -0.582058       -15.8386
  55   1.0000      -0.575778       -15.6677
  56   1.0000      -0.557785       -15.1781
  57   1.0000      -0.544583       -14.8189
  58   1.0000      -0.538069       -14.6416
  59   1.0000      -0.525927       -14.3112
  60   1.0000      -0.515370       -14.0239
  61   1.0000      -0.499554       -13.5936
  62   1.0000      -0.468880       -12.7589
  63   1.0000      -0.464190       -12.6312
  64   1.0000      -0.456274       -12.4158
  65   1.0000      -0.438914       -11.9434
  66   1.0000      -0.435651       -11.8547
  67   1.0000      -0.430893       -11.7252
  68   1.0000      -0.430521       -11.7151
  69   1.0000      -0.410255       -11.1636
  70   1.0000      -0.401745       -10.9320
  71   1.0000      -0.397846       -10.8260
  72   0.0000       0.005478         0.1491
  73   0.0000       0.017474         0.4755
  74   0.0000       0.021028         0.5722
  75   0.0000       0.026040         0.7086
  76   0.0000       0.030382         0.8267

E(0)                                       ...  -3028.434861264
E(0)                                       ...  -3028.434861264
E(CORR)(strong-pairs)                      ...     -2.869611362
E(CORR)(weak-pairs)                        ...     -0.035376064
E(CORR)(corrected)                         ...     -2.904987427
E(TOT)                                     ...  -3031.339848691
E(CCSD(T))                                 ...  -3031.457723066
FINAL SINGLE POINT ENERGY     -3031.457723066123

DIPOLE MOMENT
-------------
                                X             Y             Z
Electronic contribution:     40.08569       4.19802       1.86765
Nuclear contribution   :    -44.98888      -3.56681      -2.23803
                        -----------------------------------------
Total Dipole Moment    :     -4.90319       0.63121      -0.37039
                        -----------------------------------------
Magnitude (a.u.)       :      4.95751
Magnitude (Debye)      :     12.60099

Rotational constants in cm-1:     0.019013     0.011935     0.010691
Rotational constants in MHz :   570.000351   357.804167   320.496530

                             ****ORCA TERMINATED NORMALLY****
TOTAL RUN TIME: 0 days 20 hours 27 minutes 15 seconds 824 msec
