                         Program Version 4.1.2  - RELEASE  -
|  1> ! aug-cc-pVTZ aug-cc-pVTZ/C DLPNO-CCSD(T1) TightSCF NormalPNO UNO MiniPrint AutoAux
|  2> %pal nproc 10 end
|  3> %maxcore 20000
|  4> %mdci
|  5>      density none
|  6> end
|  7>
|  8> * xyz 0 6
|  9>  O      0.24013900      0.42111500     -0.81279500
| 10>  C      0.92521300      1.44173000     -0.59692600
| 11>  C      3.23211500     -0.06398100      0.45831600
| 12>  C      2.56871400     -0.95125000     -0.30601600
| 13>  C      2.86022600     -1.08642100     -1.77782700
| 14> Fe     -1.46107600     -0.16879900      0.03790000
| 15> Cl     -2.08103400     -1.91928900     -1.08732400
| 16>  C      1.61769200     -1.98555900      0.22756400
| 17> Cl     -2.67097000      1.62618000     -0.29671800
| 18> Cl     -1.10083800     -0.51065400      2.17105400
| 19>  H      3.96959200      0.57014400     -0.03669000
| 20>  H      2.11448500     -2.96573500      0.23353300
| 21>  H      1.26922600     -1.78412500      1.24049500
| 22>  H      0.74492800     -2.09468400     -0.42534900
| 23>  H      3.26236900     -2.08548400     -1.99231800
| 24>  H      1.94070400     -0.99135500     -2.36896300
| 25>  H      3.58943500     -0.34969300     -2.12871900
| 26>  C      3.14596900      0.09927000      1.95028400
| 27>  H      4.01401100     -0.36136600      2.44185300
| 28>  H      3.15431000      1.15798000      2.23649600
| 29>  H      2.24812900     -0.35629000      2.37598900
| 30>  C      0.81262300      2.20114300      0.68537800
| 31>  H      1.67907200      2.84258500      0.85408600
| 32>  H     -0.08293200      2.83483000      0.60459800
| 33>  H      0.65896600      1.52748300      1.52989300
| 34>  C      1.72135100      2.03157600     -1.71646800
| 35>  H      1.20114000      2.94816200     -2.03044800
| 36>  H      2.71887300      2.32258800     -1.37938100
| 37>  H      1.77946600      1.34974800     -2.56315500
| 38> *
| 39>
| 40>
| 41>                          ****END OF INPUT****

CARTESIAN COORDINATES (ANGSTROEM)
---------------------------------
  O      0.240139    0.421115   -0.812795
  C      0.925213    1.441730   -0.596926
  C      3.232115   -0.063981    0.458316
  C      2.568714   -0.951250   -0.306016
  C      2.860226   -1.086421   -1.777827
  Fe    -1.461076   -0.168799    0.037900
  Cl    -2.081034   -1.919289   -1.087324
  C      1.617692   -1.985559    0.227564
  Cl    -2.670970    1.626180   -0.296718
  Cl    -1.100838   -0.510654    2.171054
  H      3.969592    0.570144   -0.036690
  H      2.114485   -2.965735    0.233533
  H      1.269226   -1.784125    1.240495
  H      0.744928   -2.094684   -0.425349
  H      3.262369   -2.085484   -1.992318
  H      1.940704   -0.991355   -2.368963
  H      3.589435   -0.349693   -2.128719
  C      3.145969    0.099270    1.950284
  H      4.014011   -0.361366    2.441853
  H      3.154310    1.157980    2.236496
  H      2.248129   -0.356290    2.375989
  C      0.812623    2.201143    0.685378
  H      1.679072    2.842585    0.854086
  H     -0.082932    2.834830    0.604598
  H      0.658966    1.527483    1.529893
  C      1.721351    2.031576   -1.716468
  H      1.201140    2.948162   -2.030448
  H      2.718873    2.322588   -1.379381
  H      1.779466    1.349748   -2.563155

ORBITAL ENERGIES
----------------
                 SPIN UP ORBITALS
  NO   OCC          E(Eh)            E(eV)
   0   1.0000    -261.580356     -7117.9634
   1   1.0000    -104.796234     -2851.6505
   2   1.0000    -104.793589     -2851.5785
   3   1.0000    -104.791952     -2851.5340
   4   1.0000     -32.247963      -877.5117
   5   1.0000     -27.724531      -754.4228
   6   1.0000     -27.723260      -754.3883
   7   1.0000     -27.723073      -754.3832
   8   1.0000     -20.627918      -561.3142
   9   1.0000     -11.422876      -310.8323
  10   1.0000     -11.280435      -306.9562
  11   1.0000     -11.274338      -306.7903
  12   1.0000     -11.256076      -306.2934
  13   1.0000     -11.236841      -305.7700
  14   1.0000     -11.235966      -305.7462
  15   1.0000     -11.234573      -305.7083
  16   1.0000     -11.224643      -305.4381
  17   1.0000     -10.522967      -286.3445
  18   1.0000     -10.520304      -286.2720
  19   1.0000     -10.518609      -286.2259
  20   1.0000      -7.989783      -217.4131
  21   1.0000      -7.989062      -217.3934
  22   1.0000      -7.988998      -217.3917
  23   1.0000      -7.987216      -217.3432
  24   1.0000      -7.986386      -217.3206
  25   1.0000      -7.986331      -217.3191
  26   1.0000      -7.985384      -217.2934
  27   1.0000      -7.984735      -217.2757
  28   1.0000      -7.984698      -217.2747
  29   1.0000      -4.602661      -125.2448
  30   1.0000      -3.215831       -87.5072
  31   1.0000      -3.213968       -87.4565
  32   1.0000      -3.213880       -87.4541
  33   1.0000      -1.473191       -40.0876
  34   1.0000      -1.117122       -30.3984
  35   1.0000      -1.105088       -30.0710
  36   1.0000      -1.070027       -29.1169
  37   1.0000      -1.064284       -28.9606
  38   1.0000      -1.061932       -28.8966
  39   1.0000      -1.020668       -27.7738
  40   1.0000      -1.008198       -27.4345
  41   1.0000      -0.952713       -25.9246
  42   1.0000      -0.945684       -25.7334
  43   1.0000      -0.931490       -25.3471
  44   1.0000      -0.931335       -25.3429
  45   1.0000      -0.920268       -25.0418
  46   1.0000      -0.919658       -25.0252
  47   1.0000      -0.889827       -24.2134
  48   1.0000      -0.818242       -22.2655
  49   1.0000      -0.722518       -19.6607
  50   1.0000      -0.716973       -19.5098
  51   1.0000      -0.707679       -19.2569
  52   1.0000      -0.686451       -18.6793
  53   1.0000      -0.648222       -17.6390
  54   1.0000      -0.622320       -16.9342
  55   1.0000      -0.615209       -16.7407
  56   1.0000      -0.602774       -16.4023
  57   1.0000      -0.600310       -16.3353
  58   1.0000      -0.586909       -15.9706
  59   1.0000      -0.579642       -15.7729
  60   1.0000      -0.561150       -15.2697
  61   1.0000      -0.549510       -14.9529
  62   1.0000      -0.546752       -14.8779
  63   1.0000      -0.536760       -14.6060
  64   1.0000      -0.534238       -14.5373
  65   1.0000      -0.521560       -14.1924
  66   1.0000      -0.507167       -13.8007
  67   1.0000      -0.487054       -13.2534
  68   1.0000      -0.479680       -13.0528
  69   1.0000      -0.478436       -13.0189
  70   1.0000      -0.449828       -12.2405
  71   1.0000      -0.443238       -12.0611
  72   1.0000      -0.441508       -12.0141
  73   1.0000      -0.433024       -11.7832
  74   1.0000      -0.431722       -11.7478
  75   1.0000      -0.430688       -11.7196
  76   1.0000      -0.353001        -9.6056
  77   0.0000       0.012840         0.3494
  78   0.0000       0.024036         0.6540
  79   0.0000       0.025069         0.6822
  80   0.0000       0.030950         0.8422
  81   0.0000       0.039655         1.0791

                 SPIN DOWN ORBITALS
  NO   OCC          E(Eh)            E(eV)
   0   1.0000    -261.576770     -7117.8658
   1   1.0000    -104.794721     -2851.6093
   2   1.0000    -104.792023     -2851.5359
   3   1.0000    -104.790370     -2851.4909
   4   1.0000     -32.086013      -873.1048
   5   1.0000     -27.563984      -750.0541
   6   1.0000     -27.563822      -750.0497
   7   1.0000     -27.563761      -750.0481
   8   1.0000     -20.624711      -561.2269
   9   1.0000     -11.422789      -310.8299
  10   1.0000     -11.280338      -306.9536
  11   1.0000     -11.274337      -306.7903
  12   1.0000     -11.256145      -306.2953
  13   1.0000     -11.236754      -305.7676
  14   1.0000     -11.235955      -305.7459
  15   1.0000     -11.234580      -305.7085
  16   1.0000     -11.224648      -305.4382
  17   1.0000     -10.521353      -286.3006
  18   1.0000     -10.518632      -286.2265
  19   1.0000     -10.516931      -286.1802
  20   1.0000      -7.987289      -217.3452
  21   1.0000      -7.986498      -217.3237
  22   1.0000      -7.986458      -217.3226
  23   1.0000      -7.984477      -217.2687
  24   1.0000      -7.983843      -217.2514
  25   1.0000      -7.983743      -217.2487
  26   1.0000      -7.982932      -217.2266
  27   1.0000      -7.981993      -217.2011
  28   1.0000      -7.981916      -217.1990
  29   1.0000      -4.160668      -113.2175
  30   1.0000      -2.682222       -72.9870
  31   1.0000      -2.682106       -72.9838
  32   1.0000      -2.681757       -72.9743
  33   1.0000      -1.465376       -39.8749
  34   1.0000      -1.116832       -30.3906
  35   1.0000      -1.103012       -30.0145
  36   1.0000      -1.054213       -28.6866
  37   1.0000      -1.041561       -28.3423
  38   1.0000      -1.038868       -28.2690
  39   1.0000      -1.019652       -27.7461
  40   1.0000      -1.008030       -27.4299
  41   1.0000      -0.952414       -25.9165
  42   1.0000      -0.889910       -24.2157
  43   1.0000      -0.829742       -22.5784
  44   1.0000      -0.722724       -19.6663
  45   1.0000      -0.718267       -19.5450
  46   1.0000      -0.706975       -19.2378
  47   1.0000      -0.685950       -18.6656
  48   1.0000      -0.648187       -17.6381
  49   1.0000      -0.621760       -16.9189
  50   1.0000      -0.615107       -16.7379
  51   1.0000      -0.602677       -16.3997
  52   1.0000      -0.600215       -16.3327
  53   1.0000      -0.586635       -15.9632
  54   1.0000      -0.578483       -15.7413
  55   1.0000      -0.560087       -15.2408
  56   1.0000      -0.547619       -14.9015
  57   1.0000      -0.545769       -14.8511
  58   1.0000      -0.534699       -14.5499
  59   1.0000      -0.526493       -14.3266
  60   1.0000      -0.521287       -14.1849
  61   1.0000      -0.508457       -13.8358
  62   1.0000      -0.488654       -13.2970
  63   1.0000      -0.486655       -13.2426
  64   1.0000      -0.485074       -13.1995
  65   1.0000      -0.456477       -12.4214
  66   1.0000      -0.453732       -12.3467
  67   1.0000      -0.450573       -12.2607
  68   1.0000      -0.433738       -11.8026
  69   1.0000      -0.432326       -11.7642
  70   1.0000      -0.415789       -11.3142
  71   1.0000      -0.352632        -9.5956
  72   0.0000       0.012823         0.3489
  73   0.0000       0.024011         0.6534
  74   0.0000       0.025023         0.6809
  75   0.0000       0.030891         0.8406
  76   0.0000       0.039565         1.0766

E(0)                                       ...  -3028.470582499
E(0)                                       ...  -3028.470582499
E(CORR)(strong-pairs)                      ...     -2.865970297
E(CORR)(weak-pairs)                        ...     -0.035016274
E(CORR)(corrected)                         ...     -2.900986571
E(TOT)                                     ...  -3031.371569071
E(CCSD(T))                                 ...  -3031.489184621
FINAL SINGLE POINT ENERGY     -3031.489184621214

DIPOLE MOMENT
-------------
                                X             Y             Z
Electronic contribution:    -43.44156      -4.50174       2.02092
Nuclear contribution   :     46.47012       6.13495      -2.59367
                        -----------------------------------------
Total Dipole Moment    :      3.02856       1.63321      -0.57275
                        -----------------------------------------
Magnitude (a.u.)       :      3.48821
Magnitude (Debye)      :      8.86632

Rotational constants in cm-1:     0.018594     0.010734     0.010110
Rotational constants in MHz :   557.422589   321.795509   303.098592

                             ****ORCA TERMINATED NORMALLY****
TOTAL RUN TIME: 0 days 17 hours 36 minutes 34 seconds 367 msec
