                         Program Version 4.1.2  - RELEASE  -
|  1> ! aug-cc-pVTZ aug-cc-pVTZ/C DLPNO-CCSD(T1) TightSCF NormalPNO UNO MiniPrint AutoAux
|  2> %pal nproc 10 end
|  3> %maxcore 20000
|  4> %mdci
|  5>      density none
|  6> end
|  7>
|  8> * xyz 0 6
|  9>  O     -0.24676200     -0.27781500     -0.80213100
| 10>  C     -1.11287200     -1.19464900     -0.62605400
| 11>  C     -2.84487600     -0.27604400      0.57658100
| 12>  C     -2.67637500      0.90849700     -0.07435600
| 13>  C     -3.34812200      1.19442900     -1.38412600
| 14> Fe      1.46855400      0.15360200     -0.01938800
| 15> Cl      2.01335500      2.04946900     -0.95531400
| 16>  C     -1.76857000      1.98815000      0.41696300
| 17> Cl      2.69720200     -1.57580200     -0.56425700
| 18> Cl      1.18188500      0.32106200      2.15897300
| 19>  H     -3.57954300     -0.96215900      0.15777700
| 20>  H     -2.29409600      2.95096900      0.43019100
| 21>  H     -1.35189200      1.79883600      1.40541600
| 22>  H     -0.93278400      2.10325900     -0.28808700
| 23>  H     -3.96695300      2.09564300     -1.28494400
| 24>  H     -2.60603700      1.41593000     -2.16287900
| 25>  H     -3.99163400      0.37734900     -1.71815800
| 26>  C     -2.52536000     -0.48961200      2.03913500
| 27>  H     -3.25650500      0.05189900      2.65281900
| 28>  H     -2.59959800     -1.54444100      2.31249400
| 29>  H     -1.53172600     -0.13591200      2.32122300
| 30>  C     -0.83443800     -2.27222600      0.38922400
| 31>  H     -1.70593700     -2.89777000      0.58721400
| 32>  H     -0.05236700     -2.89738400     -0.06525900
| 33>  H     -0.42884300     -1.87168500      1.31763000
| 34>  C     -1.88430600     -1.61533700     -1.85308700
| 35>  H     -1.21969900     -2.30006800     -2.39785800
| 36>  H     -2.80210900     -2.15503000     -1.61464900
| 37>  H     -2.09058700     -0.77018900     -2.50732400
| 38> *
| 39>
| 40>
| 41>                          ****END OF INPUT****

CARTESIAN COORDINATES (ANGSTROEM)
---------------------------------
  O     -0.246762   -0.277815   -0.802131
  C     -1.112872   -1.194649   -0.626054
  C     -2.844876   -0.276044    0.576581
  C     -2.676375    0.908497   -0.074356
  C     -3.348122    1.194429   -1.384126
  Fe     1.468554    0.153602   -0.019388
  Cl     2.013355    2.049469   -0.955314
  C     -1.768570    1.988150    0.416963
  Cl     2.697202   -1.575802   -0.564257
  Cl     1.181885    0.321062    2.158973
  H     -3.579543   -0.962159    0.157777
  H     -2.294096    2.950969    0.430191
  H     -1.351892    1.798836    1.405416
  H     -0.932784    2.103259   -0.288087
  H     -3.966953    2.095643   -1.284944
  H     -2.606037    1.415930   -2.162879
  H     -3.991634    0.377349   -1.718158
  C     -2.525360   -0.489612    2.039135
  H     -3.256505    0.051899    2.652819
  H     -2.599598   -1.544441    2.312494
  H     -1.531726   -0.135912    2.321223
  C     -0.834438   -2.272226    0.389224
  H     -1.705937   -2.897770    0.587214
  H     -0.052367   -2.897384   -0.065259
  H     -0.428843   -1.871685    1.317630
  C     -1.884306   -1.615337   -1.853087
  H     -1.219699   -2.300068   -2.397858
  H     -2.802109   -2.155030   -1.614649
  H     -2.090587   -0.770189   -2.507324

ORBITAL ENERGIES
----------------
                 SPIN UP ORBITALS
  NO   OCC          E(Eh)            E(eV)
   0   1.0000    -261.567154     -7117.6041
   1   1.0000    -104.788499     -2851.4400
   2   1.0000    -104.784571     -2851.3331
   3   1.0000    -104.782814     -2851.2853
   4   1.0000     -32.234959      -877.1578
   5   1.0000     -27.711269      -754.0620
   6   1.0000     -27.710402      -754.0384
   7   1.0000     -27.710210      -754.0332
   8   1.0000     -20.598609      -560.5167
   9   1.0000     -11.415012      -310.6183
  10   1.0000     -11.296372      -307.3899
  11   1.0000     -11.271370      -306.7096
  12   1.0000     -11.266428      -306.5751
  13   1.0000     -11.257101      -306.3213
  14   1.0000     -11.257014      -306.3189
  15   1.0000     -11.240848      -305.8790
  16   1.0000     -11.240429      -305.8676
  17   1.0000     -10.515195      -286.1330
  18   1.0000     -10.511242      -286.0254
  19   1.0000     -10.509434      -285.9762
  20   1.0000      -7.982048      -217.2026
  21   1.0000      -7.981250      -217.1809
  22   1.0000      -7.981219      -217.1800
  23   1.0000      -7.978101      -217.0952
  24   1.0000      -7.977342      -217.0745
  25   1.0000      -7.977285      -217.0730
  26   1.0000      -7.976241      -217.0445
  27   1.0000      -7.975556      -217.0259
  28   1.0000      -7.975492      -217.0242
  29   1.0000      -4.590044      -124.9015
  30   1.0000      -3.203059       -87.1597
  31   1.0000      -3.201622       -87.1206
  32   1.0000      -3.201413       -87.1149
  33   1.0000      -1.442413       -39.2501
  34   1.0000      -1.144748       -31.1502
  35   1.0000      -1.093000       -29.7420
  36   1.0000      -1.060638       -28.8614
  37   1.0000      -1.054734       -28.7008
  38   1.0000      -1.051622       -28.6161
  39   1.0000      -1.028873       -27.9971
  40   1.0000      -1.002780       -27.2870
  41   1.0000      -0.972622       -26.4664
  42   1.0000      -0.935445       -25.4548
  43   1.0000      -0.919144       -25.0112
  44   1.0000      -0.919044       -25.0085
  45   1.0000      -0.909289       -24.7430
  46   1.0000      -0.908317       -24.7166
  47   1.0000      -0.907332       -24.6898
  48   1.0000      -0.803983       -21.8775
  49   1.0000      -0.744491       -20.2586
  50   1.0000      -0.699513       -19.0347
  51   1.0000      -0.690581       -18.7917
  52   1.0000      -0.682786       -18.5796
  53   1.0000      -0.666221       -18.1288
  54   1.0000      -0.633289       -17.2327
  55   1.0000      -0.622258       -16.9325
  56   1.0000      -0.605342       -16.4722
  57   1.0000      -0.596197       -16.2234
  58   1.0000      -0.582873       -15.8608
  59   1.0000      -0.575451       -15.6588
  60   1.0000      -0.563275       -15.3275
  61   1.0000      -0.559551       -15.2262
  62   1.0000      -0.551732       -15.0134
  63   1.0000      -0.544774       -14.8241
  64   1.0000      -0.536414       -14.5966
  65   1.0000      -0.528530       -14.3820
  66   1.0000      -0.507019       -13.7967
  67   1.0000      -0.493404       -13.4262
  68   1.0000      -0.471861       -12.8400
  69   1.0000      -0.468756       -12.7555
  70   1.0000      -0.440394       -11.9837
  71   1.0000      -0.435416       -11.8483
  72   1.0000      -0.433420       -11.7940
  73   1.0000      -0.424880       -11.5616
  74   1.0000      -0.423545       -11.5253
  75   1.0000      -0.422374       -11.4934
  76   1.0000      -0.369853       -10.0642
  77   0.0000       0.011724         0.3190
  78   0.0000       0.022003         0.5987
  79   0.0000       0.023328         0.6348
  80   0.0000       0.029693         0.8080
  81   0.0000       0.038211         1.0398

                 SPIN DOWN ORBITALS
  NO   OCC          E(Eh)            E(eV)
   0   1.0000    -261.563587     -7117.5070
   1   1.0000    -104.787053     -2851.4007
   2   1.0000    -104.783047     -2851.2917
   3   1.0000    -104.781303     -2851.2442
   4   1.0000     -32.072922      -872.7486
   5   1.0000     -27.550847      -749.6967
   6   1.0000     -27.550792      -749.6952
   7   1.0000     -27.550594      -749.6898
   8   1.0000     -20.594637      -560.4086
   9   1.0000     -11.414919      -310.6157
  10   1.0000     -11.296235      -307.3862
  11   1.0000     -11.271258      -306.7065
  12   1.0000     -11.266413      -306.5747
  13   1.0000     -11.257121      -306.3218
  14   1.0000     -11.257051      -306.3199
  15   1.0000     -11.240841      -305.8788
  16   1.0000     -11.240462      -305.8685
  17   1.0000     -10.513646      -286.0909
  18   1.0000     -10.509615      -285.9812
  19   1.0000     -10.507826      -285.9325
  20   1.0000      -7.979543      -217.1344
  21   1.0000      -7.978889      -217.1166
  22   1.0000      -7.978839      -217.1153
  23   1.0000      -7.975522      -217.0250
  24   1.0000      -7.974819      -217.0059
  25   1.0000      -7.974733      -217.0035
  26   1.0000      -7.973801      -216.9782
  27   1.0000      -7.972985      -216.9560
  28   1.0000      -7.972897      -216.9535
  29   1.0000      -4.147822      -112.8680
  30   1.0000      -2.669457       -72.6396
  31   1.0000      -2.669415       -72.6385
  32   1.0000      -2.668812       -72.6221
  33   1.0000      -1.432453       -38.9790
  34   1.0000      -1.144249       -31.1366
  35   1.0000      -1.090303       -29.6687
  36   1.0000      -1.045438       -28.4478
  37   1.0000      -1.033176       -28.1142
  38   1.0000      -1.029751       -28.0209
  39   1.0000      -1.028100       -27.9760
  40   1.0000      -1.002057       -27.2674
  41   1.0000      -0.972533       -26.4640
  42   1.0000      -0.907978       -24.7073
  43   1.0000      -0.817931       -22.2570
  44   1.0000      -0.744601       -20.2616
  45   1.0000      -0.702230       -19.1086
  46   1.0000      -0.689640       -18.7661
  47   1.0000      -0.682015       -18.5586
  48   1.0000      -0.666072       -18.1247
  49   1.0000      -0.633241       -17.2314
  50   1.0000      -0.621771       -16.9192
  51   1.0000      -0.604836       -16.4584
  52   1.0000      -0.596102       -16.2207
  53   1.0000      -0.582629       -15.8541
  54   1.0000      -0.574011       -15.6196
  55   1.0000      -0.563166       -15.3245
  56   1.0000      -0.559317       -15.2198
  57   1.0000      -0.551537       -15.0081
  58   1.0000      -0.542704       -14.7677
  59   1.0000      -0.535275       -14.5656
  60   1.0000      -0.517732       -14.0882
  61   1.0000      -0.506830       -13.7915
  62   1.0000      -0.494039       -13.4435
  63   1.0000      -0.479019       -13.0348
  64   1.0000      -0.476326       -12.9615
  65   1.0000      -0.448848       -12.2138
  66   1.0000      -0.445253       -12.1160
  67   1.0000      -0.442630       -12.0446
  68   1.0000      -0.427246       -11.6259
  69   1.0000      -0.423018       -11.5109
  70   1.0000      -0.408465       -11.1149
  71   1.0000      -0.368478       -10.0268
  72   0.0000       0.011709         0.3186
  73   0.0000       0.021978         0.5980
  74   0.0000       0.023306         0.6342
  75   0.0000       0.029528         0.8035
  76   0.0000       0.037812         1.0289

E(0)                                       ...  -3028.446028369
E(0)                                       ...  -3028.446028369
E(CORR)(strong-pairs)                      ...     -2.871952149
E(CORR)(weak-pairs)                        ...     -0.036036630
E(CORR)(corrected)                         ...     -2.907988779
E(TOT)                                     ...  -3031.354017148
E(CCSD(T))                                 ...  -3031.473363768
FINAL SINGLE POINT ENERGY     -3031.473363768253

DIPOLE MOMENT
-------------
                                X             Y             Z
Electronic contribution:     42.80340       5.17768       1.09854
Nuclear contribution   :    -46.69550      -6.23385      -1.64535
                        -----------------------------------------
Total Dipole Moment    :     -3.89210      -1.05617      -0.54681
                        -----------------------------------------
Magnitude (a.u.)       :      4.06976
Magnitude (Debye)      :     10.34451

Rotational constants in cm-1:     0.019119     0.010865     0.010226
Rotational constants in MHz :   573.165048   325.728551   306.569940

                             ****ORCA TERMINATED NORMALLY****
TOTAL RUN TIME: 0 days 18 hours 53 minutes 20 seconds 175 msec
