                         Program Version 4.1.2  - RELEASE  -
|  1> ! aug-cc-pVTZ aug-cc-pVTZ/C DLPNO-CCSD(T1) TightSCF NormalPNO UNO MiniPrint AutoAux
|  2> %pal nproc 10 end
|  3> %maxcore 20000
|  4> %mdci
|  5>      density none
|  6> end
|  7>
|  8> * xyz 0 6
|  9>  O     -0.36335700     -0.07292200     -0.48939800
| 10>  C     -1.27066900     -1.03524000     -0.44330500
| 11>  C     -3.06770600      0.00722500     -0.13684200
| 12>  C     -2.17083400      1.06275700     -0.23299000
| 13>  C     -1.94567000      1.76102100     -1.53363500
| 14> Fe      1.43653600      0.04945900      0.05339500
| 15> Cl      2.02517800      1.99317500     -0.79609800
| 16>  C     -1.60334300      1.73266300      0.97646000
| 17> Cl      2.37608400     -1.75758800     -0.78563600
| 18> Cl      1.42855500      0.04075900      2.26423000
| 19>  H     -3.59133200     -0.25518600     -1.05345800
| 20>  H     -2.36918300      2.42979200      1.34841200
| 21>  H     -1.37081700      1.03824000      1.78469100
| 22>  H     -0.70561800      2.30366900      0.73459400
| 23>  H     -2.54258100      2.68508500     -1.49908000
| 24>  H     -0.89826800      2.04246700     -1.66148500
| 25>  H     -2.28962700      1.17965100     -2.39149900
| 26>  C     -3.76370900     -0.40973400      1.13429600
| 27>  H     -4.67429900      0.18845600      1.27062700
| 28>  H     -4.07344800     -1.45829700      1.09155800
| 29>  H     -3.14699100     -0.27442600      2.02516900
| 30>  C     -1.21838500     -1.94872900      0.75037700
| 31>  H     -2.07467800     -2.62261200      0.80460800
| 32>  H     -0.31017400     -2.55450700      0.61602600
| 33>  H     -1.09639700     -1.39759400      1.68342800
| 34>  C     -1.56325100     -1.68979700     -1.76911000
| 35>  H     -0.66096400     -2.26522300     -2.02063500
| 36>  H     -2.41725300     -2.36941300     -1.72036300
| 37>  H     -1.70692700     -0.95154300     -2.55961600
| 38> *
| 39>
| 40>
| 41>                          ****END OF INPUT****

CARTESIAN COORDINATES (ANGSTROEM)
---------------------------------
  O     -0.363357   -0.072922   -0.489398
  C     -1.270669   -1.035240   -0.443305
  C     -3.067706    0.007225   -0.136842
  C     -2.170834    1.062757   -0.232990
  C     -1.945670    1.761021   -1.533635
  Fe     1.436536    0.049459    0.053395
  Cl     2.025178    1.993175   -0.796098
  C     -1.603343    1.732663    0.976460
  Cl     2.376084   -1.757588   -0.785636
  Cl     1.428555    0.040759    2.264230
  H     -3.591332   -0.255186   -1.053458
  H     -2.369183    2.429792    1.348412
  H     -1.370817    1.038240    1.784691
  H     -0.705618    2.303669    0.734594
  H     -2.542581    2.685085   -1.499080
  H     -0.898268    2.042467   -1.661485
  H     -2.289627    1.179651   -2.391499
  C     -3.763709   -0.409734    1.134296
  H     -4.674299    0.188456    1.270627
  H     -4.073448   -1.458297    1.091558
  H     -3.146991   -0.274426    2.025169
  C     -1.218385   -1.948729    0.750377
  H     -2.074678   -2.622612    0.804608
  H     -0.310174   -2.554507    0.616026
  H     -1.096397   -1.397594    1.683428
  C     -1.563251   -1.689797   -1.769110
  H     -0.660964   -2.265223   -2.020635
  H     -2.417253   -2.369413   -1.720363
  H     -1.706927   -0.951543   -2.559616

ORBITAL ENERGIES
----------------
                 SPIN UP ORBITALS
  NO   OCC          E(Eh)            E(eV)
   0   1.0000    -261.556876     -7117.3244
   1   1.0000    -104.779944     -2851.2072
   2   1.0000    -104.779881     -2851.2055
   3   1.0000    -104.779763     -2851.2023
   4   1.0000     -32.224741      -876.8798
   5   1.0000     -27.700812      -753.7774
   6   1.0000     -27.700320      -753.7640
   7   1.0000     -27.700161      -753.7597
   8   1.0000     -20.564184      -559.5799
   9   1.0000     -11.402682      -310.2827
  10   1.0000     -11.346880      -308.7643
  11   1.0000     -11.268866      -306.6414
  12   1.0000     -11.261620      -306.4442
  13   1.0000     -11.260405      -306.4112
  14   1.0000     -11.257993      -306.3456
  15   1.0000     -11.257881      -306.3425
  16   1.0000     -11.257751      -306.3390
  17   1.0000     -10.506497      -285.8963
  18   1.0000     -10.506404      -285.8938
  19   1.0000     -10.506363      -285.8927
  20   1.0000      -7.973338      -216.9655
  21   1.0000      -7.973243      -216.9630
  22   1.0000      -7.973202      -216.9619
  23   1.0000      -7.972594      -216.9453
  24   1.0000      -7.972513      -216.9431
  25   1.0000      -7.972512      -216.9431
  26   1.0000      -7.972430      -216.9408
  27   1.0000      -7.972425      -216.9407
  28   1.0000      -7.972371      -216.9392
  29   1.0000      -4.580134      -124.6318
  30   1.0000      -3.192940       -86.8843
  31   1.0000      -3.192072       -86.8607
  32   1.0000      -3.191575       -86.8472
  33   1.0000      -1.413752       -38.4702
  34   1.0000      -1.162713       -31.6390
  35   1.0000      -1.090870       -29.6841
  36   1.0000      -1.052668       -28.6445
  37   1.0000      -1.046933       -28.4885
  38   1.0000      -1.046068       -28.4650
  39   1.0000      -1.036751       -28.2114
  40   1.0000      -0.999301       -27.1924
  41   1.0000      -0.985385       -26.8137
  42   1.0000      -0.931238       -25.3403
  43   1.0000      -0.916840       -24.9485
  44   1.0000      -0.909737       -24.7552
  45   1.0000      -0.909693       -24.7540
  46   1.0000      -0.900565       -24.5056
  47   1.0000      -0.899907       -24.4877
  48   1.0000      -0.790550       -21.5120
  49   1.0000      -0.757086       -20.6014
  50   1.0000      -0.698801       -19.0154
  51   1.0000      -0.691364       -18.8130
  52   1.0000      -0.681226       -18.5371
  53   1.0000      -0.662655       -18.0318
  54   1.0000      -0.640444       -17.4274
  55   1.0000      -0.621011       -16.8986
  56   1.0000      -0.600802       -16.3486
  57   1.0000      -0.594540       -16.1783
  58   1.0000      -0.584236       -15.8979
  59   1.0000      -0.578778       -15.7494
  60   1.0000      -0.573513       -15.6061
  61   1.0000      -0.567983       -15.4556
  62   1.0000      -0.552594       -15.0368
  63   1.0000      -0.548976       -14.9384
  64   1.0000      -0.543207       -14.7814
  65   1.0000      -0.524927       -14.2840
  66   1.0000      -0.513654       -13.9772
  67   1.0000      -0.485783       -13.2188
  68   1.0000      -0.467737       -12.7278
  69   1.0000      -0.456843       -12.4313
  70   1.0000      -0.435869       -11.8606
  71   1.0000      -0.430011       -11.7012
  72   1.0000      -0.427676       -11.6376
  73   1.0000      -0.420897       -11.4532
  74   1.0000      -0.418448       -11.3865
  75   1.0000      -0.417979       -11.3738
  76   1.0000      -0.371608       -10.1120
  77   0.0000       0.010767         0.2930
  78   0.0000       0.021238         0.5779
  79   0.0000       0.022956         0.6247
  80   0.0000       0.030430         0.8281
  81   0.0000       0.038481         1.0471

                 SPIN DOWN ORBITALS
  NO   OCC          E(Eh)            E(eV)
   0   1.0000    -261.553325     -7117.2278
   1   1.0000    -104.778506     -2851.1681
   2   1.0000    -104.778493     -2851.1677
   3   1.0000    -104.778348     -2851.1638
   4   1.0000     -32.062740      -872.4715
   5   1.0000     -27.540728      -749.4213
   6   1.0000     -27.540630      -749.4186
   7   1.0000     -27.540267      -749.4088
   8   1.0000     -20.559242      -559.4454
   9   1.0000     -11.402663      -310.2822
  10   1.0000     -11.346932      -308.7657
  11   1.0000     -11.268385      -306.6283
  12   1.0000     -11.261532      -306.4419
  13   1.0000     -11.260385      -306.4107
  14   1.0000     -11.257956      -306.3446
  15   1.0000     -11.257890      -306.3428
  16   1.0000     -11.257803      -306.3404
  17   1.0000     -10.504956      -285.8544
  18   1.0000     -10.504922      -285.8534
  19   1.0000     -10.504845      -285.8514
  20   1.0000      -7.970904      -216.8993
  21   1.0000      -7.970880      -216.8987
  22   1.0000      -7.970739      -216.8948
  23   1.0000      -7.970218      -216.8807
  24   1.0000      -7.970184      -216.8797
  25   1.0000      -7.970148      -216.8788
  26   1.0000      -7.970135      -216.8784
  27   1.0000      -7.970094      -216.8773
  28   1.0000      -7.970072      -216.8767
  29   1.0000      -4.137960      -112.5996
  30   1.0000      -2.659708       -72.3743
  31   1.0000      -2.659568       -72.3705
  32   1.0000      -2.659144       -72.3590
  33   1.0000      -1.401202       -38.1286
  34   1.0000      -1.161480       -31.6055
  35   1.0000      -1.088230       -29.6123
  36   1.0000      -1.037970       -28.2446
  37   1.0000      -1.035993       -28.1908
  38   1.0000      -1.026070       -27.9208
  39   1.0000      -1.025872       -27.9154
  40   1.0000      -0.998591       -27.1731
  41   1.0000      -0.985249       -26.8100
  42   1.0000      -0.923708       -25.1354
  43   1.0000      -0.803359       -21.8605
  44   1.0000      -0.757421       -20.6105
  45   1.0000      -0.698723       -19.0132
  46   1.0000      -0.692877       -18.8541
  47   1.0000      -0.681538       -18.5456
  48   1.0000      -0.662018       -18.0144
  49   1.0000      -0.640302       -17.4235
  50   1.0000      -0.620985       -16.8978
  51   1.0000      -0.599808       -16.3216
  52   1.0000      -0.594378       -16.1739
  53   1.0000      -0.584126       -15.8949
  54   1.0000      -0.578685       -15.7468
  55   1.0000      -0.573246       -15.5988
  56   1.0000      -0.567700       -15.4479
  57   1.0000      -0.552042       -15.0218
  58   1.0000      -0.548773       -14.9329
  59   1.0000      -0.538075       -14.6418
  60   1.0000      -0.524502       -14.2724
  61   1.0000      -0.508347       -13.8328
  62   1.0000      -0.481939       -13.1142
  63   1.0000      -0.471744       -12.8368
  64   1.0000      -0.467764       -12.7285
  65   1.0000      -0.441833       -12.0229
  66   1.0000      -0.439576       -11.9615
  67   1.0000      -0.437271       -11.8987
  68   1.0000      -0.425024       -11.5655
  69   1.0000      -0.416877       -11.3438
  70   1.0000      -0.404419       -11.0048
  71   1.0000      -0.370294       -10.0762
  72   0.0000       0.010768         0.2930
  73   0.0000       0.021183         0.5764
  74   0.0000       0.022934         0.6241
  75   0.0000       0.030468         0.8291
  76   0.0000       0.038452         1.0463

E(0)                                       ...  -3028.414697723
E(0)                                       ...  -3028.414697723
E(CORR)(strong-pairs)                      ...     -2.873910194
E(CORR)(weak-pairs)                        ...     -0.035628934
E(CORR)(corrected)                         ...     -2.909539128
E(TOT)                                     ...  -3031.324236851
E(CCSD(T))                                 ...  -3031.444194546
FINAL SINGLE POINT ENERGY     -3031.444194545626

DIPOLE MOMENT
-------------
                                X             Y             Z
Electronic contribution:     41.77329       2.50469       2.14292
Nuclear contribution   :    -46.02873      -2.76261      -2.63568
                        -----------------------------------------
Total Dipole Moment    :     -4.25544      -0.25792      -0.49276
                        -----------------------------------------
Magnitude (a.u.)       :      4.29163
Magnitude (Debye)      :     10.90846

Rotational constants in cm-1:     0.019557     0.011371     0.010571
Rotational constants in MHz :   586.307746   340.907086   316.925040

                             ****ORCA TERMINATED NORMALLY****
TOTAL RUN TIME: 0 days 21 hours 34 minutes 48 seconds 600 msec
