                         Program Version 4.1.2  - RELEASE  -
|  1> ! aug-cc-pVTZ aug-cc-pVTZ/C DLPNO-CCSD(T1) TightSCF NormalPNO UNO MiniPrint AutoAux
|  2> %pal nproc 10 end
|  3> %maxcore 20000
|  4> %mdci
|  5>      density none
|  6> end
|  7>
|  8> * xyz 0 6
|  9>  O     -0.23906800     -0.38687900     -0.61483900
| 10>  C     -1.30073200     -1.14764300     -0.27741100
| 11>  C     -2.31192600     -0.30053400      0.79492100
| 12>  C     -2.97152900      0.69214500     -0.00711900
| 13>  C     -4.34087600      0.48200500     -0.53164700
| 14> Fe      1.48688500      0.12535500     -0.10059500
| 15> Cl      2.80994300     -0.39362500     -1.77072000
| 16>  C     -2.21328000      1.86653700     -0.43868300
| 17> Cl      2.06362400     -0.87803700      1.78190500
| 18> Cl      1.28976700      2.32066600      0.22352500
| 19>  H     -3.02345900     -1.06009200      1.12900500
| 20>  H     -2.75173400      2.52325700     -1.12309900
| 21>  H     -1.79529200      2.43433600      0.40059100
| 22>  H     -1.29455700      1.45262100     -0.91467100
| 23>  H     -4.99456700      1.21637000     -0.03322700
| 24>  H     -4.39730000      0.71204200     -1.60245400
| 25>  H     -4.73175500     -0.51710100     -0.33327600
| 26>  C     -1.47267300      0.24016500      1.96163300
| 27>  H     -2.11659500      0.79536600      2.65140600
| 28>  H     -1.01146600     -0.57662900      2.51617800
| 29>  H     -0.67813800      0.90339100      1.62091500
| 30>  C     -0.91160300     -2.41324100      0.51168900
| 31>  H     -1.79367300     -2.98976500      0.80540400
| 32>  H     -0.29988100     -3.02644300     -0.15785800
| 33>  H     -0.30606500     -2.18339400      1.38708700
| 34>  C     -2.07561700     -1.54192100     -1.54443800
| 35>  H     -1.44105600     -2.21093000     -2.13240900
| 36>  H     -3.00946300     -2.06595400     -1.31466400
| 37>  H     -2.28871400     -0.66943800     -2.16849300
| 38> *
| 39>
| 40>
| 41>                          ****END OF INPUT****

CARTESIAN COORDINATES (ANGSTROEM)
---------------------------------
  O     -0.239068   -0.386879   -0.614839
  C     -1.300732   -1.147643   -0.277411
  C     -2.311926   -0.300534    0.794921
  C     -2.971529    0.692145   -0.007119
  C     -4.340876    0.482005   -0.531647
  Fe     1.486885    0.125355   -0.100595
  Cl     2.809943   -0.393625   -1.770720
  C     -2.213280    1.866537   -0.438683
  Cl     2.063624   -0.878037    1.781905
  Cl     1.289767    2.320666    0.223525
  H     -3.023459   -1.060092    1.129005
  H     -2.751734    2.523257   -1.123099
  H     -1.795292    2.434336    0.400591
  H     -1.294557    1.452621   -0.914671
  H     -4.994567    1.216370   -0.033227
  H     -4.397300    0.712042   -1.602454
  H     -4.731755   -0.517101   -0.333276
  C     -1.472673    0.240165    1.961633
  H     -2.116595    0.795366    2.651406
  H     -1.011466   -0.576629    2.516178
  H     -0.678138    0.903391    1.620915
  C     -0.911603   -2.413241    0.511689
  H     -1.793673   -2.989765    0.805404
  H     -0.299881   -3.026443   -0.157858
  H     -0.306065   -2.183394    1.387087
  C     -2.075617   -1.541921   -1.544438
  H     -1.441056   -2.210930   -2.132409
  H     -3.009463   -2.065954   -1.314664
  H     -2.288714   -0.669438   -2.168493

ORBITAL ENERGIES
----------------
                 SPIN UP ORBITALS
  NO   OCC          E(Eh)            E(eV)
   0   1.0000    -261.538948     -7116.8366
   1   1.0000    -104.768080     -2850.8844
   2   1.0000    -104.765921     -2850.8256
   3   1.0000    -104.758764     -2850.6309
   4   1.0000     -32.206742      -876.3900
   5   1.0000     -27.682624      -753.2825
   6   1.0000     -27.682525      -753.2798
   7   1.0000     -27.682222      -753.2715
   8   1.0000     -20.536077      -558.8151
   9   1.0000     -11.405910      -310.3706
  10   1.0000     -11.349343      -308.8313
  11   1.0000     -11.312265      -307.8224
  12   1.0000     -11.291563      -307.2591
  13   1.0000     -11.282699      -307.0178
  14   1.0000     -11.253154      -306.2139
  15   1.0000     -11.248436      -306.0855
  16   1.0000     -11.234474      -305.7056
  17   1.0000     -10.494704      -285.5754
  18   1.0000     -10.492650      -285.5195
  19   1.0000     -10.485370      -285.3214
  20   1.0000      -7.961603      -216.6462
  21   1.0000      -7.960756      -216.6232
  22   1.0000      -7.960666      -216.6207
  23   1.0000      -7.959503      -216.5891
  24   1.0000      -7.958704      -216.5673
  25   1.0000      -7.958688      -216.5669
  26   1.0000      -7.952216      -216.3908
  27   1.0000      -7.951501      -216.3713
  28   1.0000      -7.951380      -216.3680
  29   1.0000      -4.562075      -124.1404
  30   1.0000      -3.174589       -86.3850
  31   1.0000      -3.174105       -86.3718
  32   1.0000      -3.173853       -86.3649
  33   1.0000      -1.364423       -37.1278
  34   1.0000      -1.205899       -32.8142
  35   1.0000      -1.087214       -29.5846
  36   1.0000      -1.048520       -28.5317
  37   1.0000      -1.037859       -28.2416
  38   1.0000      -1.033674       -28.1277
  39   1.0000      -1.027187       -27.9512
  40   1.0000      -1.026363       -27.9287
  41   1.0000      -0.967368       -26.3234
  42   1.0000      -0.932457       -25.3734
  43   1.0000      -0.905011       -24.6266
  44   1.0000      -0.891881       -24.2693
  45   1.0000      -0.890949       -24.2440
  46   1.0000      -0.883565       -24.0430
  47   1.0000      -0.882251       -24.0073
  48   1.0000      -0.806189       -21.9375
  49   1.0000      -0.768013       -20.8987
  50   1.0000      -0.715849       -19.4792
  51   1.0000      -0.697455       -18.9787
  52   1.0000      -0.678007       -18.4495
  53   1.0000      -0.653030       -17.7699
  54   1.0000      -0.645725       -17.5711
  55   1.0000      -0.637316       -17.3422
  56   1.0000      -0.613118       -16.6838
  57   1.0000      -0.601123       -16.3574
  58   1.0000      -0.594770       -16.1845
  59   1.0000      -0.582249       -15.8438
  60   1.0000      -0.576735       -15.6938
  61   1.0000      -0.563285       -15.3278
  62   1.0000      -0.552744       -15.0409
  63   1.0000      -0.540286       -14.7019
  64   1.0000      -0.531100       -14.4520
  65   1.0000      -0.522161       -14.2087
  66   1.0000      -0.499795       -13.6001
  67   1.0000      -0.460137       -12.5210
  68   1.0000      -0.457828       -12.4581
  69   1.0000      -0.439883       -11.9698
  70   1.0000      -0.423192       -11.5156
  71   1.0000      -0.417872       -11.3709
  72   1.0000      -0.413336       -11.2475
  73   1.0000      -0.407874       -11.0988
  74   1.0000      -0.405373       -11.0308
  75   1.0000      -0.402284       -10.9467
  76   1.0000      -0.399628       -10.8744
  77   0.0000      -0.009573        -0.2605
  78   0.0000      -0.000504        -0.0137
  79   0.0000       0.016281         0.4430
  80   0.0000       0.016956         0.4614
  81   0.0000       0.026357         0.7172

                 SPIN DOWN ORBITALS
  NO   OCC          E(Eh)            E(eV)
   0   1.0000    -261.535419     -7116.7406
   1   1.0000    -104.766784     -2850.8491
   2   1.0000    -104.764522     -2850.7876
   3   1.0000    -104.757313     -2850.5914
   4   1.0000     -32.044629      -871.9787
   5   1.0000     -27.522749      -748.9321
   6   1.0000     -27.522612      -748.9283
   7   1.0000     -27.522024      -748.9124
   8   1.0000     -20.530335      -558.6588
   9   1.0000     -11.405913      -310.3707
  10   1.0000     -11.349175      -308.8268
  11   1.0000     -11.312266      -307.8224
  12   1.0000     -11.291453      -307.2561
  13   1.0000     -11.282698      -307.0178
  14   1.0000     -11.253191      -306.2149
  15   1.0000     -11.248322      -306.0824
  16   1.0000     -11.234420      -305.7041
  17   1.0000     -10.493306      -285.5374
  18   1.0000     -10.491147      -285.4786
  19   1.0000     -10.483818      -285.2792
  20   1.0000      -7.959176      -216.5802
  21   1.0000      -7.958742      -216.5684
  22   1.0000      -7.958648      -216.5658
  23   1.0000      -7.957067      -216.5228
  24   1.0000      -7.956434      -216.5056
  25   1.0000      -7.956400      -216.5047
  26   1.0000      -7.949768      -216.3242
  27   1.0000      -7.949071      -216.3052
  28   1.0000      -7.948975      -216.3026
  29   1.0000      -4.119680      -112.1022
  30   1.0000      -2.641759       -71.8859
  31   1.0000      -2.641435       -71.8771
  32   1.0000      -2.640347       -71.8475
  33   1.0000      -1.349778       -36.7293
  34   1.0000      -1.205137       -32.7934
  35   1.0000      -1.084653       -29.5149
  36   1.0000      -1.047310       -28.4988
  37   1.0000      -1.026001       -27.9189
  38   1.0000      -1.023782       -27.8585
  39   1.0000      -1.013684       -27.5838
  40   1.0000      -1.006240       -27.3812
  41   1.0000      -0.966736       -26.3062
  42   1.0000      -0.932266       -25.3683
  43   1.0000      -0.810969       -22.0676
  44   1.0000      -0.776026       -21.1167
  45   1.0000      -0.716421       -19.4948
  46   1.0000      -0.697317       -18.9750
  47   1.0000      -0.678030       -18.4501
  48   1.0000      -0.655094       -17.8260
  49   1.0000      -0.645833       -17.5740
  50   1.0000      -0.635558       -17.2944
  51   1.0000      -0.613067       -16.6824
  52   1.0000      -0.600933       -16.3522
  53   1.0000      -0.594532       -16.1780
  54   1.0000      -0.581622       -15.8267
  55   1.0000      -0.575717       -15.6661
  56   1.0000      -0.562733       -15.3127
  57   1.0000      -0.552736       -15.0407
  58   1.0000      -0.540074       -14.6961
  59   1.0000      -0.529477       -14.4078
  60   1.0000      -0.516511       -14.0550
  61   1.0000      -0.493213       -13.4210
  62   1.0000      -0.460667       -12.5354
  63   1.0000      -0.456129       -12.4119
  64   1.0000      -0.445914       -12.1339
  65   1.0000      -0.431260       -11.7352
  66   1.0000      -0.427777       -11.6404
  67   1.0000      -0.424019       -11.5381
  68   1.0000      -0.421964       -11.4822
  69   1.0000      -0.402108       -10.9419
  70   1.0000      -0.392597       -10.6831
  71   1.0000      -0.388719       -10.5776
  72   0.0000      -0.009907        -0.2696
  73   0.0000      -0.000504        -0.0137
  74   0.0000       0.016272         0.4428
  75   0.0000       0.016938         0.4609
  76   0.0000       0.026373         0.7176

E(0)                                       ...  -3028.423815919
E(0)                                       ...  -3028.423815919
E(CORR)(strong-pairs)                      ...     -2.874226055
E(CORR)(weak-pairs)                        ...     -0.034565045
E(CORR)(corrected)                         ...     -2.908791100
E(TOT)                                     ...  -3031.332607020
E(CCSD(T))                                 ...  -3031.451865279
FINAL SINGLE POINT ENERGY     -3031.451865278855

DIPOLE MOMENT
-------------
                                X             Y             Z
Electronic contribution:     42.38635       6.92909      -0.69408
Nuclear contribution   :    -48.60423      -6.98447       0.74175
                        -----------------------------------------
Total Dipole Moment    :     -6.21788      -0.05538       0.04767
                        -----------------------------------------
Magnitude (a.u.)       :      6.21830
Magnitude (Debye)      :     15.80567

Rotational constants in cm-1:     0.020914     0.010251     0.009744
Rotational constants in MHz :   626.978827   307.322339   292.123318

                             ****ORCA TERMINATED NORMALLY****
TOTAL RUN TIME: 1 days 0 hours 8 minutes 44 seconds 613 msec
