                         Program Version 4.1.2  - RELEASE  -
|  1> ! aug-cc-pVTZ aug-cc-pVTZ/C DLPNO-CCSD(T1) TightSCF NormalPNO UNO MiniPrint AutoAux
|  2> %pal nproc 10 end
|  3> %maxcore 20000
|  4> %mdci
|  5>      density none
|  6> end
|  7>
|  8> * xyz 0 6
|  9>  O     -0.33203500     -0.11638900     -0.58332600
| 10>  C     -1.26089700     -1.03335800     -0.51448300
| 11>  C     -3.04706700     -0.04972100     -0.01243600
| 12>  C     -2.26517700      1.06889800     -0.19854200
| 13>  C     -2.14998500      1.73483400     -1.52851400
| 14> Fe      1.43931700      0.05862900      0.04658000
| 15> Cl      2.01507800      2.02239500     -0.75854400
| 16>  C     -1.57913300      1.76403800      0.93059100
| 17> Cl      2.47169800     -1.70537400     -0.76669100
| 18> Cl      1.36358600      0.02610700      2.25702000
| 19>  H     -3.64477500     -0.36232700     -0.86558200
| 20>  H     -2.29788500      2.47691100      1.36230800
| 21>  H     -1.26514700      1.09037700      1.72862300
| 22>  H     -0.71128200      2.32925100      0.58409000
| 23>  H     -2.57323100      2.74458100     -1.43232100
| 24>  H     -1.09744600      1.85327200     -1.80404800
| 25>  H     -2.69364700      1.21332100     -2.31871700
| 26>  C     -3.58383400     -0.49149100      1.32764800
| 27>  H     -4.49234100      0.07929800      1.55979400
| 28>  H     -3.86343800     -1.54836100      1.31801600
| 29>  H     -2.87925800     -0.33255000      2.14643300
| 30>  C     -1.15160500     -2.02110200      0.61968000
| 31>  H     -2.01065100     -2.68964300      0.68645400
| 32>  H     -0.26164700     -2.62463200      0.38935200
| 33>  H     -0.96519100     -1.53021300      1.57524900
| 34>  C     -1.67299000     -1.61032200     -1.84997800
| 35>  H     -0.81358800     -2.20319700     -2.19181800
| 36>  H     -2.54466800     -2.26424800     -1.77494200
| 37>  H     -1.84379200     -0.82890600     -2.59150700
| 38> *
| 39>
| 40>
| 41>                          ****END OF INPUT****

CARTESIAN COORDINATES (ANGSTROEM)
---------------------------------
  O     -0.332035   -0.116389   -0.583326
  C     -1.260897   -1.033358   -0.514483
  C     -3.047067   -0.049721   -0.012436
  C     -2.265177    1.068898   -0.198542
  C     -2.149985    1.734834   -1.528514
  Fe     1.439317    0.058629    0.046580
  Cl     2.015078    2.022395   -0.758544
  C     -1.579133    1.764038    0.930591
  Cl     2.471698   -1.705374   -0.766691
  Cl     1.363586    0.026107    2.257020
  H     -3.644775   -0.362327   -0.865582
  H     -2.297885    2.476911    1.362308
  H     -1.265147    1.090377    1.728623
  H     -0.711282    2.329251    0.584090
  H     -2.573231    2.744581   -1.432321
  H     -1.097446    1.853272   -1.804048
  H     -2.693647    1.213321   -2.318717
  C     -3.583834   -0.491491    1.327648
  H     -4.492341    0.079298    1.559794
  H     -3.863438   -1.548361    1.318016
  H     -2.879258   -0.332550    2.146433
  C     -1.151605   -2.021102    0.619680
  H     -2.010651   -2.689643    0.686454
  H     -0.261647   -2.624632    0.389352
  H     -0.965191   -1.530213    1.575249
  C     -1.672990   -1.610322   -1.849978
  H     -0.813588   -2.203197   -2.191818
  H     -2.544668   -2.264248   -1.774942
  H     -1.843792   -0.828906   -2.591507

ORBITAL ENERGIES
----------------
                 SPIN UP ORBITALS
  NO   OCC          E(Eh)            E(eV)
   0   1.0000    -261.557339     -7117.3370
   1   1.0000    -104.780537     -2851.2234
   2   1.0000    -104.779110     -2851.1845
   3   1.0000    -104.778713     -2851.1737
   4   1.0000     -32.225206      -876.8924
   5   1.0000     -27.701300      -753.7907
   6   1.0000     -27.700783      -753.7766
   7   1.0000     -27.700606      -753.7718
   8   1.0000     -20.566326      -559.6382
   9   1.0000     -11.403330      -310.3004
  10   1.0000     -11.337417      -308.5068
  11   1.0000     -11.270567      -306.6877
  12   1.0000     -11.262930      -306.4799
  13   1.0000     -11.261080      -306.4296
  14   1.0000     -11.257759      -306.3392
  15   1.0000     -11.257751      -306.3390
  16   1.0000     -11.255387      -306.2746
  17   1.0000     -10.507163      -285.9144
  18   1.0000     -10.505653      -285.8733
  19   1.0000     -10.505282      -285.8633
  20   1.0000      -7.974039      -216.9846
  21   1.0000      -7.973215      -216.9622
  22   1.0000      -7.973172      -216.9610
  23   1.0000      -7.972461      -216.9417
  24   1.0000      -7.972133      -216.9328
  25   1.0000      -7.971761      -216.9226
  26   1.0000      -7.971677      -216.9204
  27   1.0000      -7.971383      -216.9124
  28   1.0000      -7.971296      -216.9100
  29   1.0000      -4.580567      -124.6436
  30   1.0000      -3.193405       -86.8970
  31   1.0000      -3.192453       -86.8711
  32   1.0000      -3.192018       -86.8592
  33   1.0000      -1.417063       -38.5602
  34   1.0000      -1.164459       -31.6865
  35   1.0000      -1.089039       -29.6343
  36   1.0000      -1.052627       -28.6434
  37   1.0000      -1.047217       -28.4962
  38   1.0000      -1.045412       -28.4471
  39   1.0000      -1.038115       -28.2485
  40   1.0000      -0.998397       -27.1678
  41   1.0000      -0.984618       -26.7928
  42   1.0000      -0.930842       -25.3295
  43   1.0000      -0.919397       -25.0181
  44   1.0000      -0.910100       -24.7651
  45   1.0000      -0.909986       -24.7620
  46   1.0000      -0.900580       -24.5060
  47   1.0000      -0.900307       -24.4986
  48   1.0000      -0.791504       -21.5379
  49   1.0000      -0.757013       -20.5994
  50   1.0000      -0.696682       -18.9577
  51   1.0000      -0.691138       -18.8068
  52   1.0000      -0.682144       -18.5621
  53   1.0000      -0.664476       -18.0813
  54   1.0000      -0.642909       -17.4944
  55   1.0000      -0.621439       -16.9102
  56   1.0000      -0.601972       -16.3805
  57   1.0000      -0.596049       -16.2193
  58   1.0000      -0.584535       -15.9060
  59   1.0000      -0.576627       -15.6908
  60   1.0000      -0.574243       -15.6259
  61   1.0000      -0.566459       -15.4141
  62   1.0000      -0.553224       -15.0540
  63   1.0000      -0.550284       -14.9740
  64   1.0000      -0.542533       -14.7631
  65   1.0000      -0.522839       -14.2272
  66   1.0000      -0.515825       -14.0363
  67   1.0000      -0.483999       -13.1703
  68   1.0000      -0.467093       -12.7102
  69   1.0000      -0.457728       -12.4554
  70   1.0000      -0.434382       -11.8201
  71   1.0000      -0.429583       -11.6895
  72   1.0000      -0.427860       -11.6427
  73   1.0000      -0.419986       -11.4284
  74   1.0000      -0.418154       -11.3786
  75   1.0000      -0.417466       -11.3598
  76   1.0000      -0.378111       -10.2889
  77   0.0000       0.010477         0.2851
  78   0.0000       0.021008         0.5716
  79   0.0000       0.022515         0.6127
  80   0.0000       0.030221         0.8223
  81   0.0000       0.038568         1.0495

                 SPIN DOWN ORBITALS
  NO   OCC          E(Eh)            E(eV)
   0   1.0000    -261.553789     -7117.2404
   1   1.0000    -104.779130     -2851.1851
   2   1.0000    -104.777709     -2851.1464
   3   1.0000    -104.777257     -2851.1341
   4   1.0000     -32.063162      -872.4830
   5   1.0000     -27.541158      -749.4330
   6   1.0000     -27.541057      -749.4303
   7   1.0000     -27.540694      -749.4204
   8   1.0000     -20.561482      -559.5064
   9   1.0000     -11.403249      -310.2982
  10   1.0000     -11.337383      -308.5059
  11   1.0000     -11.270282      -306.6800
  12   1.0000     -11.262829      -306.4772
  13   1.0000     -11.261075      -306.4294
  14   1.0000     -11.257789      -306.3400
  15   1.0000     -11.257722      -306.3382
  16   1.0000     -11.255411      -306.2753
  17   1.0000     -10.505652      -285.8733
  18   1.0000     -10.504156      -285.8326
  19   1.0000     -10.503725      -285.8209
  20   1.0000      -7.971542      -216.9167
  21   1.0000      -7.970957      -216.9008
  22   1.0000      -7.970885      -216.8988
  23   1.0000      -7.970133      -216.8783
  24   1.0000      -7.969642      -216.8650
  25   1.0000      -7.969415      -216.8588
  26   1.0000      -7.969321      -216.8562
  27   1.0000      -7.968982      -216.8470
  28   1.0000      -7.968892      -216.8446
  29   1.0000      -4.138292      -112.6086
  30   1.0000      -2.659992       -72.3821
  31   1.0000      -2.659930       -72.3804
  32   1.0000      -2.659407       -72.3661
  33   1.0000      -1.404734       -38.2247
  34   1.0000      -1.163446       -31.6590
  35   1.0000      -1.086323       -29.5603
  36   1.0000      -1.037977       -28.2448
  37   1.0000      -1.037479       -28.2313
  38   1.0000      -1.026241       -27.9254
  39   1.0000      -1.024853       -27.8877
  40   1.0000      -0.997657       -27.1476
  41   1.0000      -0.984472       -26.7889
  42   1.0000      -0.924607       -25.1598
  43   1.0000      -0.805419       -21.9166
  44   1.0000      -0.757256       -20.6060
  45   1.0000      -0.696315       -18.9477
  46   1.0000      -0.692880       -18.8542
  47   1.0000      -0.682653       -18.5759
  48   1.0000      -0.663587       -18.0571
  49   1.0000      -0.642814       -17.4919
  50   1.0000      -0.621343       -16.9076
  51   1.0000      -0.601114       -16.3571
  52   1.0000      -0.595928       -16.2160
  53   1.0000      -0.584434       -15.9033
  54   1.0000      -0.576471       -15.6866
  55   1.0000      -0.573972       -15.6186
  56   1.0000      -0.566241       -15.4082
  57   1.0000      -0.552692       -15.0395
  58   1.0000      -0.550013       -14.9666
  59   1.0000      -0.537686       -14.6312
  60   1.0000      -0.522483       -14.2175
  61   1.0000      -0.508571       -13.8389
  62   1.0000      -0.481298       -13.0968
  63   1.0000      -0.471144       -12.8205
  64   1.0000      -0.468461       -12.7475
  65   1.0000      -0.441882       -12.0242
  66   1.0000      -0.438931       -11.9439
  67   1.0000      -0.437127       -11.8948
  68   1.0000      -0.424235       -11.5440
  69   1.0000      -0.417218       -11.3531
  70   1.0000      -0.403837       -10.9890
  71   1.0000      -0.376001       -10.2315
  72   0.0000       0.010476         0.2851
  73   0.0000       0.020974         0.5707
  74   0.0000       0.022492         0.6120
  75   0.0000       0.030249         0.8231
  76   0.0000       0.038540         1.0487

E(0)                                       ...  -3028.424476050
E(0)                                       ...  -3028.424476050
E(CORR)(strong-pairs)                      ...     -2.873155912
E(CORR)(weak-pairs)                        ...     -0.035521009
E(CORR)(corrected)                         ...     -2.908676921
E(TOT)                                     ...  -3031.333152971
E(CCSD(T))                                 ...  -3031.452910880
FINAL SINGLE POINT ENERGY     -3031.452910879746

DIPOLE MOMENT
-------------
                                X             Y             Z
Electronic contribution:     41.76922       2.87697       2.25201
Nuclear contribution   :    -46.09518      -3.19325      -2.75855
                        -----------------------------------------
Total Dipole Moment    :     -4.32596      -0.31628      -0.50654
                        -----------------------------------------
Magnitude (a.u.)       :      4.36698
Magnitude (Debye)      :     11.09999

Rotational constants in cm-1:     0.019443     0.011290     0.010534
Rotational constants in MHz :   582.900514   338.478527   315.803345

                             ****ORCA TERMINATED NORMALLY****
TOTAL RUN TIME: 0 days 22 hours 40 minutes 32 seconds 314 msec
