                         Program Version 4.1.2  - RELEASE  -
|  1> ! aug-cc-pVTZ aug-cc-pVTZ/C DLPNO-CCSD(T1) TightSCF NormalPNO UNO MiniPrint AutoAux
|  2> %pal nproc 10 end
|  3> %maxcore 20000
|  4> %mdci
|  5>      density none
|  6> end
|  7>
|  8> * xyz 0 6
|  9>  O     -0.30740800     -0.18240300     -0.75410800
| 10>  C     -1.19781100     -1.10478200     -0.61208100
| 11>  C     -2.86579300     -0.22385100      0.41956600
| 12>  C     -2.48561000      0.97873500     -0.11402900
| 13>  C     -2.92630700      1.42381800     -1.47158800
| 14> Fe      1.42541700      0.11610700     -0.00070400
| 15> Cl      2.02262700      2.06559200     -0.79932100
| 16>  C     -1.59875300      1.94216300      0.59906000
| 17> Cl      2.60607100     -1.60186600     -0.68497100
| 18> Cl      1.18532300      0.12660700      2.20076100
| 19>  H     -3.62843700     -0.77677400     -0.12539900
| 20>  H     -2.20797100      2.80281800      0.91154000
| 21>  H     -1.11663700      1.52896300      1.48323800
| 22>  H     -0.82818200      2.33010700     -0.07627700
| 23>  H     -3.35204100      2.43238900     -1.39803700
| 24>  H     -2.05536300      1.50533100     -2.13521600
| 25>  H     -3.67314300      0.76552200     -1.91972500
| 26>  C     -2.77700300     -0.53952900      1.89642600
| 27>  H     -3.56089100      0.01035500      2.43238200
| 28>  H     -2.94261900     -1.60232200      2.08589800
| 29>  H     -1.81756000     -0.26151100      2.33810900
| 30>  C     -0.92077700     -2.21536500      0.37390500
| 31>  H     -1.77987600     -2.87328900      0.51480300
| 32>  H     -0.10561300     -2.79946200     -0.07624300
| 33>  H     -0.56061500     -1.84246100      1.33177000
| 34>  C     -1.86695000     -1.55391200     -1.89429400
| 35>  H     -1.12433200     -2.18101300     -2.40524800
| 36>  H     -2.75891900     -2.15784400     -1.71665800
| 37>  H     -2.09370900     -0.71971500     -2.55552600
| 38> *
| 39>
| 40>
| 41>                          ****END OF INPUT****

CARTESIAN COORDINATES (ANGSTROEM)
---------------------------------
  O     -0.307408   -0.182403   -0.754108
  C     -1.197811   -1.104782   -0.612081
  C     -2.865793   -0.223851    0.419566
  C     -2.485610    0.978735   -0.114029
  C     -2.926307    1.423818   -1.471588
  Fe     1.425417    0.116107   -0.000704
  Cl     2.022627    2.065592   -0.799321
  C     -1.598753    1.942163    0.599060
  Cl     2.606071   -1.601866   -0.684971
  Cl     1.185323    0.126607    2.200761
  H     -3.628437   -0.776774   -0.125399
  H     -2.207971    2.802818    0.911540
  H     -1.116637    1.528963    1.483238
  H     -0.828182    2.330107   -0.076277
  H     -3.352041    2.432389   -1.398037
  H     -2.055363    1.505331   -2.135216
  H     -3.673143    0.765522   -1.919725
  C     -2.777003   -0.539529    1.896426
  H     -3.560891    0.010355    2.432382
  H     -2.942619   -1.602322    2.085898
  H     -1.817560   -0.261511    2.338109
  C     -0.920777   -2.215365    0.373905
  H     -1.779876   -2.873289    0.514803
  H     -0.105613   -2.799462   -0.076243
  H     -0.560615   -1.842461    1.331770
  C     -1.866950   -1.553912   -1.894294
  H     -1.124332   -2.181013   -2.405248
  H     -2.758919   -2.157844   -1.716658
  H     -2.093709   -0.719715   -2.555526

ORBITAL ENERGIES
----------------
                 SPIN UP ORBITALS
  NO   OCC          E(Eh)            E(eV)
   0   1.0000    -261.561612     -7117.4533
   1   1.0000    -104.784561     -2851.3329
   2   1.0000    -104.780295     -2851.2168
   3   1.0000    -104.780017     -2851.2092
   4   1.0000     -32.229454      -877.0080
   5   1.0000     -27.705612      -753.9080
   6   1.0000     -27.704990      -753.8911
   7   1.0000     -27.704798      -753.8859
   8   1.0000     -20.579003      -559.9831
   9   1.0000     -11.407158      -310.4045
  10   1.0000     -11.320080      -308.0350
  11   1.0000     -11.265705      -306.5554
  12   1.0000     -11.265304      -306.5445
  13   1.0000     -11.263805      -306.5037
  14   1.0000     -11.259021      -306.3735
  15   1.0000     -11.248150      -306.0777
  16   1.0000     -11.247410      -306.0576
  17   1.0000     -10.511212      -286.0246
  18   1.0000     -10.506941      -285.9084
  19   1.0000     -10.506624      -285.8998
  20   1.0000      -7.978084      -217.0947
  21   1.0000      -7.977249      -217.0720
  22   1.0000      -7.977216      -217.0711
  23   1.0000      -7.973801      -216.9782
  24   1.0000      -7.973429      -216.9680
  25   1.0000      -7.973038      -216.9574
  26   1.0000      -7.972971      -216.9556
  27   1.0000      -7.972737      -216.9492
  28   1.0000      -7.972670      -216.9474
  29   1.0000      -4.584617      -124.7538
  30   1.0000      -3.197419       -87.0062
  31   1.0000      -3.196396       -86.9784
  32   1.0000      -3.196081       -86.9698
  33   1.0000      -1.425271       -38.7836
  34   1.0000      -1.158009       -31.5110
  35   1.0000      -1.088921       -29.6311
  36   1.0000      -1.056062       -28.7369
  37   1.0000      -1.050329       -28.5809
  38   1.0000      -1.047760       -28.5110
  39   1.0000      -1.035735       -28.1838
  40   1.0000      -0.996597       -27.1188
  41   1.0000      -0.980823       -26.6895
  42   1.0000      -0.930257       -25.3136
  43   1.0000      -0.916729       -24.9455
  44   1.0000      -0.913801       -24.8658
  45   1.0000      -0.913725       -24.8637
  46   1.0000      -0.904266       -24.6063
  47   1.0000      -0.903540       -24.5866
  48   1.0000      -0.795622       -21.6500
  49   1.0000      -0.752707       -20.4822
  50   1.0000      -0.693224       -18.8636
  51   1.0000      -0.689293       -18.7566
  52   1.0000      -0.682064       -18.5599
  53   1.0000      -0.667011       -18.1503
  54   1.0000      -0.641289       -17.4504
  55   1.0000      -0.623225       -16.9588
  56   1.0000      -0.603662       -16.4265
  57   1.0000      -0.595124       -16.1941
  58   1.0000      -0.582739       -15.8571
  59   1.0000      -0.573435       -15.6040
  60   1.0000      -0.568363       -15.4660
  61   1.0000      -0.559219       -15.2171
  62   1.0000      -0.555656       -15.1202
  63   1.0000      -0.548274       -14.9193
  64   1.0000      -0.542317       -14.7572
  65   1.0000      -0.522873       -14.2281
  66   1.0000      -0.515463       -14.0265
  67   1.0000      -0.486139       -13.2285
  68   1.0000      -0.468070       -12.7368
  69   1.0000      -0.463264       -12.6061
  70   1.0000      -0.435745       -11.8572
  71   1.0000      -0.431883       -11.7521
  72   1.0000      -0.430272       -11.7083
  73   1.0000      -0.421370       -11.4661
  74   1.0000      -0.420108       -11.4317
  75   1.0000      -0.419248       -11.4083
  76   1.0000      -0.376682       -10.2501
  77   0.0000       0.010917         0.2971
  78   0.0000       0.021154         0.5756
  79   0.0000       0.022540         0.6134
  80   0.0000       0.029669         0.8073
  81   0.0000       0.036954         1.0056

                 SPIN DOWN ORBITALS
  NO   OCC          E(Eh)            E(eV)
   0   1.0000    -261.558056     -7117.3566
   1   1.0000    -104.783165     -2851.2949
   2   1.0000    -104.778801     -2851.1761
   3   1.0000    -104.778561     -2851.1696
   4   1.0000     -32.067392      -872.5981
   5   1.0000     -27.545363      -749.5474
   6   1.0000     -27.545283      -749.5453
   7   1.0000     -27.544979      -749.5370
   8   1.0000     -20.574584      -559.8629
   9   1.0000     -11.407102      -310.4030
  10   1.0000     -11.319929      -308.0309
  11   1.0000     -11.265592      -306.5523
  12   1.0000     -11.265256      -306.5432
  13   1.0000     -11.263824      -306.5042
  14   1.0000     -11.259003      -306.3730
  15   1.0000     -11.248155      -306.0779
  16   1.0000     -11.247453      -306.0587
  17   1.0000     -10.509714      -285.9839
  18   1.0000     -10.505344      -285.8649
  19   1.0000     -10.505071      -285.8575
  20   1.0000      -7.975592      -217.0269
  21   1.0000      -7.975020      -217.0113
  22   1.0000      -7.974959      -217.0097
  23   1.0000      -7.971252      -216.9088
  24   1.0000      -7.971052      -216.9034
  25   1.0000      -7.970572      -216.8903
  26   1.0000      -7.970485      -216.8879
  27   1.0000      -7.970275      -216.8822
  28   1.0000      -7.970188      -216.8798
  29   1.0000      -4.142313      -112.7181
  30   1.0000      -2.663992       -72.4909
  31   1.0000      -2.663974       -72.4904
  32   1.0000      -2.663200       -72.4693
  33   1.0000      -1.414078       -38.4790
  34   1.0000      -1.157265       -31.4908
  35   1.0000      -1.086210       -29.5573
  36   1.0000      -1.041509       -28.3409
  37   1.0000      -1.035367       -28.1738
  38   1.0000      -1.029109       -28.0035
  39   1.0000      -1.026275       -27.9264
  40   1.0000      -0.995834       -27.0980
  41   1.0000      -0.980656       -26.6850
  42   1.0000      -0.918044       -24.9812
  43   1.0000      -0.808832       -22.0094
  44   1.0000      -0.752932       -20.4883
  45   1.0000      -0.695577       -18.9276
  46   1.0000      -0.688960       -18.7476
  47   1.0000      -0.681650       -18.5487
  48   1.0000      -0.666353       -18.1324
  49   1.0000      -0.641163       -17.4469
  50   1.0000      -0.622754       -16.9460
  51   1.0000      -0.602972       -16.4077
  52   1.0000      -0.595151       -16.1949
  53   1.0000      -0.582565       -15.8524
  54   1.0000      -0.572649       -15.5826
  55   1.0000      -0.568260       -15.4632
  56   1.0000      -0.559179       -15.2160
  57   1.0000      -0.555269       -15.1096
  58   1.0000      -0.546629       -14.8745
  59   1.0000      -0.539521       -14.6811
  60   1.0000      -0.515813       -14.0360
  61   1.0000      -0.512101       -13.9350
  62   1.0000      -0.485291       -13.2054
  63   1.0000      -0.474117       -12.9014
  64   1.0000      -0.472351       -12.8533
  65   1.0000      -0.444493       -12.0953
  66   1.0000      -0.441623       -12.0172
  67   1.0000      -0.439322       -11.9546
  68   1.0000      -0.424567       -11.5531
  69   1.0000      -0.419807       -11.4235
  70   1.0000      -0.405512       -11.0345
  71   1.0000      -0.374473       -10.1899
  72   0.0000       0.010910         0.2969
  73   0.0000       0.021128         0.5749
  74   0.0000       0.022526         0.6130
  75   0.0000       0.029566         0.8045
  76   0.0000       0.036516         0.9936

E(0)                                       ...  -3028.433869396
E(0)                                       ...  -3028.433869396
E(CORR)(strong-pairs)                      ...     -2.873861627
E(CORR)(weak-pairs)                        ...     -0.036393574
E(CORR)(corrected)                         ...     -2.910255201
E(TOT)                                     ...  -3031.344124596
E(CCSD(T))                                 ...  -3031.464086448
FINAL SINGLE POINT ENERGY     -3031.464086447675

DIPOLE MOMENT
-------------
                                X             Y             Z
Electronic contribution:     41.46221       4.31461       1.70807
Nuclear contribution   :    -45.65423      -4.94346      -2.25929
                        -----------------------------------------
Total Dipole Moment    :     -4.19202      -0.62885      -0.55123
                        -----------------------------------------
Magnitude (a.u.)       :      4.27462
Magnitude (Debye)      :     10.86522

Rotational constants in cm-1:     0.019132     0.011282     0.010590
Rotational constants in MHz :   573.564727   338.239408   317.493238

                             ****ORCA TERMINATED NORMALLY****
TOTAL RUN TIME: 0 days 20 hours 5 minutes 14 seconds 519 msec
