                         Program Version 4.1.2  - RELEASE  -
|  1> ! aug-cc-pVTZ aug-cc-pVTZ/C DLPNO-CCSD(T1) TightSCF NormalPNO UNO MiniPrint AutoAux
|  2> %pal nproc 10 end
|  3> %maxcore 20000
|  4> %mdci
|  5>      density none
|  6> end
|  7>
|  8> * xyz 0 6
|  9>  O     -0.40665800     -0.18951500     -0.53419600
| 10>  C     -1.44158300     -1.19314500     -0.35011600
| 11>  C     -2.76498100     -0.13296300     -0.22916500
| 12>  C     -1.94284800      1.14118600     -0.26607600
| 13>  C     -1.85162700      1.90698000     -1.53326800
| 14> Fe      1.37631400      0.03600500      0.03060000
| 15> Cl      1.84063600      2.01352700     -0.84565100
| 16>  C     -1.56903100      1.83931900      0.98823100
| 17> Cl      2.47529700     -1.69956200     -0.73289400
| 18> Cl      1.36317500      0.14881800      2.24080700
| 19>  H     -3.33507800     -0.21759600     -1.15857900
| 20>  H     -2.44083000      2.44334100      1.28773600
| 21>  H     -1.33973700      1.15327700      1.80377900
| 22>  H     -0.72496100      2.51423300      0.83036800
| 23>  H     -2.65655700      2.66015600     -1.51583600
| 24>  H     -0.89571700      2.43338900     -1.60233500
| 25>  H     -1.99633000      1.27073700     -2.40763500
| 26>  C     -3.68631800     -0.32261900      0.96808800
| 27>  H     -4.47230500      0.44137500      0.98654600
| 28>  H     -4.17865300     -1.29748500      0.90127900
| 29>  H     -3.15251200     -0.28371700      1.92038500
| 30>  C     -1.20306300     -2.01244700      0.90260500
| 31>  H     -2.02108300     -2.72124400      1.06651700
| 32>  H     -0.27691300     -2.58549600      0.77983000
| 33>  H     -1.08661600     -1.38577100      1.78880100
| 34>  C     -1.52364200     -2.04692300     -1.60041300
| 35>  H     -0.57889000     -2.58638000     -1.72939000
| 36>  H     -2.33780300     -2.77640000     -1.52439000
| 37>  H     -1.68321700     -1.42606100     -2.48686700
| 38> *
| 39>
| 40>
| 41>                          ****END OF INPUT****

CARTESIAN COORDINATES (ANGSTROEM)
---------------------------------
  O     -0.406658   -0.189515   -0.534196
  C     -1.441583   -1.193145   -0.350116
  C     -2.764981   -0.132963   -0.229165
  C     -1.942848    1.141186   -0.266076
  C     -1.851627    1.906980   -1.533268
  Fe     1.376314    0.036005    0.030600
  Cl     1.840636    2.013527   -0.845651
  C     -1.569031    1.839319    0.988231
  Cl     2.475297   -1.699562   -0.732894
  Cl     1.363175    0.148818    2.240807
  H     -3.335078   -0.217596   -1.158579
  H     -2.440830    2.443341    1.287736
  H     -1.339737    1.153277    1.803779
  H     -0.724961    2.514233    0.830368
  H     -2.656557    2.660156   -1.515836
  H     -0.895717    2.433389   -1.602335
  H     -1.996330    1.270737   -2.407635
  C     -3.686318   -0.322619    0.968088
  H     -4.472305    0.441375    0.986546
  H     -4.178653   -1.297485    0.901279
  H     -3.152512   -0.283717    1.920385
  C     -1.203063   -2.012447    0.902605
  H     -2.021083   -2.721244    1.066517
  H     -0.276913   -2.585496    0.779830
  H     -1.086616   -1.385771    1.788801
  C     -1.523642   -2.046923   -1.600413
  H     -0.578890   -2.586380   -1.729390
  H     -2.337803   -2.776400   -1.524390
  H     -1.683217   -1.426061   -2.486867

ORBITAL ENERGIES
----------------
                 SPIN UP ORBITALS
  NO   OCC          E(Eh)            E(eV)
   0   1.0000    -261.549603     -7117.1265
   1   1.0000    -104.777503     -2851.1408
   2   1.0000    -104.775711     -2851.0920
   3   1.0000    -104.773614     -2851.0350
   4   1.0000     -32.217526      -876.6834
   5   1.0000     -27.693456      -753.5773
   6   1.0000     -27.693239      -753.5714
   7   1.0000     -27.692920      -753.5627
   8   1.0000     -20.561833      -559.5159
   9   1.0000     -11.404274      -310.3261
  10   1.0000     -11.339078      -308.5520
  11   1.0000     -11.293280      -307.3058
  12   1.0000     -11.278322      -306.8987
  13   1.0000     -11.276819      -306.8579
  14   1.0000     -11.263488      -306.4951
  15   1.0000     -11.237127      -305.7778
  16   1.0000     -11.235426      -305.7315
  17   1.0000     -10.504105      -285.8312
  18   1.0000     -10.502400      -285.7848
  19   1.0000     -10.500242      -285.7261
  20   1.0000      -7.970934      -216.9001
  21   1.0000      -7.970190      -216.8799
  22   1.0000      -7.970113      -216.8778
  23   1.0000      -7.969282      -216.8552
  24   1.0000      -7.968443      -216.8323
  25   1.0000      -7.968414      -216.8316
  26   1.0000      -7.967042      -216.7942
  27   1.0000      -7.966362      -216.7757
  28   1.0000      -7.966286      -216.7737
  29   1.0000      -4.572905      -124.4351
  30   1.0000      -3.185298       -86.6764
  31   1.0000      -3.185088       -86.6707
  32   1.0000      -3.184485       -86.6542
  33   1.0000      -1.356438       -36.9105
  34   1.0000      -1.168514       -31.7969
  35   1.0000      -1.089744       -29.6534
  36   1.0000      -1.048892       -28.5418
  37   1.0000      -1.043411       -28.3927
  38   1.0000      -1.041251       -28.3339
  39   1.0000      -1.036597       -28.2072
  40   1.0000      -1.012311       -27.5464
  41   1.0000      -0.965137       -26.2627
  42   1.0000      -0.931297       -25.3419
  43   1.0000      -0.903564       -24.5872
  44   1.0000      -0.902269       -24.5520
  45   1.0000      -0.901384       -24.5279
  46   1.0000      -0.893926       -24.3250
  47   1.0000      -0.893364       -24.3097
  48   1.0000      -0.797931       -21.7128
  49   1.0000      -0.757826       -20.6215
  50   1.0000      -0.697559       -18.9815
  51   1.0000      -0.687567       -18.7097
  52   1.0000      -0.669844       -18.2274
  53   1.0000      -0.636169       -17.3110
  54   1.0000      -0.630731       -17.1631
  55   1.0000      -0.621432       -16.9100
  56   1.0000      -0.601025       -16.3547
  57   1.0000      -0.595339       -16.2000
  58   1.0000      -0.592142       -16.1130
  59   1.0000      -0.581573       -15.8254
  60   1.0000      -0.573461       -15.6047
  61   1.0000      -0.558752       -15.2044
  62   1.0000      -0.544781       -14.8242
  63   1.0000      -0.537233       -14.6189
  64   1.0000      -0.529163       -14.3993
  65   1.0000      -0.518941       -14.1211
  66   1.0000      -0.505365       -13.7517
  67   1.0000      -0.476964       -12.9788
  68   1.0000      -0.465859       -12.6767
  69   1.0000      -0.452844       -12.3225
  70   1.0000      -0.439463       -11.9584
  71   1.0000      -0.428038       -11.6475
  72   1.0000      -0.423854       -11.5337
  73   1.0000      -0.418096       -11.3770
  74   1.0000      -0.414881       -11.2895
  75   1.0000      -0.414136       -11.2692
  76   1.0000      -0.413219       -11.2443
  77   0.0000       0.007459         0.2030
  78   0.0000       0.019983         0.5438
  79   0.0000       0.022201         0.6041
  80   0.0000       0.030741         0.8365
  81   0.0000       0.037284         1.0146

                 SPIN DOWN ORBITALS
  NO   OCC          E(Eh)            E(eV)
   0   1.0000    -261.546053     -7117.0299
   1   1.0000    -104.776166     -2851.1044
   2   1.0000    -104.774320     -2851.0542
   3   1.0000    -104.772153     -2850.9952
   4   1.0000     -32.055546      -872.2758
   5   1.0000     -27.533597      -749.2273
   6   1.0000     -27.533416      -749.2223
   7   1.0000     -27.532995      -749.2109
   8   1.0000     -20.556346      -559.3666
   9   1.0000     -11.404325      -310.3275
  10   1.0000     -11.338899      -308.5471
  11   1.0000     -11.293159      -307.3025
  12   1.0000     -11.278302      -306.8982
  13   1.0000     -11.276827      -306.8581
  14   1.0000     -11.263480      -306.4949
  15   1.0000     -11.237087      -305.7767
  16   1.0000     -11.235414      -305.7312
  17   1.0000     -10.502669      -285.7922
  18   1.0000     -10.500905      -285.7441
  19   1.0000     -10.498680      -285.6836
  20   1.0000      -7.968623      -216.8373
  21   1.0000      -7.967999      -216.8203
  22   1.0000      -7.967929      -216.8184
  23   1.0000      -7.966799      -216.7876
  24   1.0000      -7.966223      -216.7720
  25   1.0000      -7.966165      -216.7704
  26   1.0000      -7.964661      -216.7294
  27   1.0000      -7.963878      -216.7081
  28   1.0000      -7.963823      -216.7066
  29   1.0000      -4.130831      -112.4056
  30   1.0000      -2.652733       -72.1845
  31   1.0000      -2.652663       -72.1826
  32   1.0000      -2.651638       -72.1547
  33   1.0000      -1.342148       -36.5217
  34   1.0000      -1.166864       -31.7520
  35   1.0000      -1.087271       -29.5862
  36   1.0000      -1.035269       -28.1711
  37   1.0000      -1.034329       -28.1455
  38   1.0000      -1.023598       -27.8535
  39   1.0000      -1.020755       -27.7762
  40   1.0000      -1.011845       -27.5337
  41   1.0000      -0.964459       -26.2443
  42   1.0000      -0.925554       -25.1856
  43   1.0000      -0.800349       -21.7786
  44   1.0000      -0.762020       -20.7356
  45   1.0000      -0.697643       -18.9838
  46   1.0000      -0.687149       -18.6983
  47   1.0000      -0.670756       -18.2522
  48   1.0000      -0.637205       -17.3392
  49   1.0000      -0.630863       -17.1666
  50   1.0000      -0.619738       -16.8639
  51   1.0000      -0.601080       -16.3562
  52   1.0000      -0.594286       -16.1713
  53   1.0000      -0.592112       -16.1122
  54   1.0000      -0.580049       -15.7839
  55   1.0000      -0.573001       -15.5921
  56   1.0000      -0.558396       -15.1947
  57   1.0000      -0.541317       -14.7300
  58   1.0000      -0.536514       -14.5993
  59   1.0000      -0.527126       -14.3438
  60   1.0000      -0.513900       -13.9839
  61   1.0000      -0.503356       -13.6970
  62   1.0000      -0.473523       -12.8852
  63   1.0000      -0.467948       -12.7335
  64   1.0000      -0.462211       -12.5774
  65   1.0000      -0.441000       -12.0002
  66   1.0000      -0.438635       -11.9359
  67   1.0000      -0.435028       -11.8377
  68   1.0000      -0.433495       -11.7960
  69   1.0000      -0.414071       -11.2674
  70   1.0000      -0.407026       -11.0757
  71   1.0000      -0.400707       -10.9038
  72   0.0000       0.007435         0.2023
  73   0.0000       0.019876         0.5409
  74   0.0000       0.022181         0.6036
  75   0.0000       0.030779         0.8375
  76   0.0000       0.037258         1.0138

E(0)                                       ...  -3028.439228481
E(0)                                       ...  -3028.439228481
E(CORR)(strong-pairs)                      ...     -2.873269105
E(CORR)(weak-pairs)                        ...     -0.035242905
E(CORR)(corrected)                         ...     -2.908512010
E(TOT)                                     ...  -3031.347740491
E(CCSD(T))                                 ...  -3031.466442809
FINAL SINGLE POINT ENERGY     -3031.466442809167

DIPOLE MOMENT
-------------
                                X             Y             Z
Electronic contribution:     40.25148       3.59291       1.69016
Nuclear contribution   :    -44.87568      -3.05099      -2.05498
                        -----------------------------------------
Total Dipole Moment    :     -4.62420       0.54192      -0.36482
                        -----------------------------------------
Magnitude (a.u.)       :      4.67011
Magnitude (Debye)      :     11.87048

Rotational constants in cm-1:     0.018946     0.012036     0.010756
Rotational constants in MHz :   567.986235   360.831619   322.470295

                             ****ORCA TERMINATED NORMALLY****
TOTAL RUN TIME: 0 days 21 hours 8 minutes 8 seconds 821 msec
