                         Program Version 4.1.2  - RELEASE  -
|  1> ! aug-cc-pVTZ aug-cc-pVTZ/C DLPNO-CCSD(T1) TightSCF NormalPNO UNO MiniPrint AutoAux
|  2> %pal nproc 10 end
|  3> %maxcore 20000
|  4> %mdci
|  5>      density none
|  6> end
|  7>
|  8> * xyz 0 6
|  9>  O     -0.30554200     -0.09246600     -0.42048800
| 10>  C     -1.28296700     -1.03749500     -0.22549800
| 11>  C     -2.45313800     -0.43547500      0.68459900
| 12>  C     -3.01713500      0.69809800     -0.03999300
| 13>  C     -4.26162400      0.56278700     -0.82947400
| 14> Fe      1.50878900      0.17123200     -0.08575500
| 15> Cl      1.78433800      2.24970800     -0.77964500
| 16>  C     -2.22650900      1.90273800     -0.12534000
| 17> Cl      2.58071500     -1.38512900     -1.21566500
| 18> Cl      1.82683000     -0.00648600      2.10240700
| 19>  H     -3.19983800     -1.23329200      0.75133900
| 20>  H     -2.64227500      2.70394000     -0.73560000
| 21>  H     -1.85371500      2.26543700      0.83749000
| 22>  H     -1.26638500      1.47487700     -0.56975000
| 23>  H     -5.06134200      1.04754300     -0.24396300
| 24>  H     -4.20458600      1.10975400     -1.77689300
| 25>  H     -4.55276900     -0.47571200     -0.99580100
| 26>  C     -1.92293900     -0.07000100      2.08772500
| 27>  H     -2.63235300      0.57471500      2.61559600
| 28>  H     -1.79530500     -0.97716800      2.68013500
| 29>  H     -0.95442000      0.42944500      2.03146900
| 30>  C     -0.73191000     -2.26401400      0.53239100
| 31>  H     -1.52621400     -2.98027700      0.76638900
| 32>  H      0.00188100     -2.74825600     -0.11845600
| 33>  H     -0.21989000     -1.97079700      1.44963800
| 34>  C     -1.82462600     -1.48023900     -1.59709400
| 35>  H     -1.01429100     -1.97560100     -2.13798000
| 36>  H     -2.66212100     -2.18132500     -1.50545100
| 37>  H     -2.13748300     -0.62156500     -2.19917200
| 38> *
| 39>
| 40>
| 41>                          ****END OF INPUT****

CARTESIAN COORDINATES (ANGSTROEM)
---------------------------------
  O     -0.305542   -0.092466   -0.420488
  C     -1.282967   -1.037495   -0.225498
  C     -2.453138   -0.435475    0.684599
  C     -3.017135    0.698098   -0.039993
  C     -4.261624    0.562787   -0.829474
  Fe     1.508789    0.171232   -0.085755
  Cl     1.784338    2.249708   -0.779645
  C     -2.226509    1.902738   -0.125340
  Cl     2.580715   -1.385129   -1.215665
  Cl     1.826830   -0.006486    2.102407
  H     -3.199838   -1.233292    0.751339
  H     -2.642275    2.703940   -0.735600
  H     -1.853715    2.265437    0.837490
  H     -1.266385    1.474877   -0.569750
  H     -5.061342    1.047543   -0.243963
  H     -4.204586    1.109754   -1.776893
  H     -4.552769   -0.475712   -0.995801
  C     -1.922939   -0.070001    2.087725
  H     -2.632353    0.574715    2.615596
  H     -1.795305   -0.977168    2.680135
  H     -0.954420    0.429445    2.031469
  C     -0.731910   -2.264014    0.532391
  H     -1.526214   -2.980277    0.766389
  H      0.001881   -2.748256   -0.118456
  H     -0.219890   -1.970797    1.449638
  C     -1.824626   -1.480239   -1.597094
  H     -1.014291   -1.975601   -2.137980
  H     -2.662121   -2.181325   -1.505451
  H     -2.137483   -0.621565   -2.199172

ORBITAL ENERGIES
----------------
                 SPIN UP ORBITALS
  NO   OCC          E(Eh)            E(eV)
   0   1.0000    -261.535392     -7116.7398
   1   1.0000    -104.764607     -2850.7899
   2   1.0000    -104.763500     -2850.7598
   3   1.0000    -104.760970     -2850.6909
   4   1.0000     -32.203317      -876.2968
   5   1.0000     -27.679153      -753.1881
   6   1.0000     -27.679061      -753.1855
   7   1.0000     -27.678806      -753.1786
   8   1.0000     -20.532134      -558.7078
   9   1.0000     -11.411669      -310.5273
  10   1.0000     -11.334647      -308.4314
  11   1.0000     -11.315096      -307.8994
  12   1.0000     -11.294426      -307.3370
  13   1.0000     -11.283482      -307.0392
  14   1.0000     -11.257295      -306.3266
  15   1.0000     -11.243308      -305.9460
  16   1.0000     -11.230115      -305.5870
  17   1.0000     -10.491222      -285.4807
  18   1.0000     -10.490071      -285.4493
  19   1.0000     -10.487575      -285.3814
  20   1.0000      -7.958099      -216.5509
  21   1.0000      -7.957271      -216.5284
  22   1.0000      -7.957214      -216.5268
  23   1.0000      -7.956904      -216.5184
  24   1.0000      -7.956172      -216.4984
  25   1.0000      -7.956067      -216.4956
  26   1.0000      -7.954414      -216.4506
  27   1.0000      -7.953677      -216.4306
  28   1.0000      -7.953590      -216.4282
  29   1.0000      -4.558816      -124.0517
  30   1.0000      -3.171301       -86.2955
  31   1.0000      -3.170989       -86.2870
  32   1.0000      -3.170477       -86.2731
  33   1.0000      -1.358317       -36.9617
  34   1.0000      -1.210292       -32.9337
  35   1.0000      -1.095866       -29.8200
  36   1.0000      -1.049045       -28.5460
  37   1.0000      -1.035211       -28.1695
  38   1.0000      -1.030214       -28.0335
  39   1.0000      -1.027816       -27.9683
  40   1.0000      -1.025206       -27.8973
  41   1.0000      -0.964747       -26.2521
  42   1.0000      -0.932453       -25.3733
  43   1.0000      -0.900666       -24.5084
  44   1.0000      -0.888486       -24.1769
  45   1.0000      -0.888350       -24.1732
  46   1.0000      -0.880114       -23.9491
  47   1.0000      -0.879840       -23.9417
  48   1.0000      -0.814162       -22.1545
  49   1.0000      -0.768862       -20.9218
  50   1.0000      -0.720917       -19.6172
  51   1.0000      -0.699528       -19.0351
  52   1.0000      -0.681226       -18.5371
  53   1.0000      -0.651757       -17.7352
  54   1.0000      -0.644507       -17.5379
  55   1.0000      -0.637901       -17.3582
  56   1.0000      -0.616190       -16.7674
  57   1.0000      -0.599769       -16.3205
  58   1.0000      -0.593746       -16.1566
  59   1.0000      -0.580499       -15.7962
  60   1.0000      -0.574569       -15.6348
  61   1.0000      -0.561421       -15.2770
  62   1.0000      -0.550470       -14.9790
  63   1.0000      -0.538188       -14.6448
  64   1.0000      -0.526651       -14.3309
  65   1.0000      -0.515863       -14.0373
  66   1.0000      -0.496103       -13.4997
  67   1.0000      -0.462949       -12.5975
  68   1.0000      -0.456932       -12.4337
  69   1.0000      -0.435374       -11.8471
  70   1.0000      -0.431268       -11.7354
  71   1.0000      -0.415321       -11.3015
  72   1.0000      -0.411181       -11.1888
  73   1.0000      -0.407587       -11.0910
  74   1.0000      -0.403228       -10.9724
  75   1.0000      -0.402169       -10.9436
  76   1.0000      -0.400880       -10.9085
  77   0.0000      -0.009436        -0.2568
  78   0.0000      -0.001264        -0.0344
  79   0.0000       0.015919         0.4332
  80   0.0000       0.016285         0.4431
  81   0.0000       0.026023         0.7081

                 SPIN DOWN ORBITALS
  NO   OCC          E(Eh)            E(eV)
   0   1.0000    -261.531845     -7116.6433
   1   1.0000    -104.763257     -2850.7531
   2   1.0000    -104.762167     -2850.7235
   3   1.0000    -104.759563     -2850.6526
   4   1.0000     -32.041244      -871.8866
   5   1.0000     -27.519343      -748.8394
   6   1.0000     -27.519163      -748.8345
   7   1.0000     -27.518647      -748.8204
   8   1.0000     -20.526243      -558.5475
   9   1.0000     -11.411657      -310.5270
  10   1.0000     -11.334455      -308.4262
  11   1.0000     -11.315100      -307.8995
  12   1.0000     -11.294326      -307.3342
  13   1.0000     -11.283475      -307.0390
  14   1.0000     -11.257319      -306.3272
  15   1.0000     -11.243217      -305.9435
  16   1.0000     -11.230081      -305.5860
  17   1.0000     -10.489768      -285.4411
  18   1.0000     -10.488639      -285.4104
  19   1.0000     -10.486065      -285.3403
  20   1.0000      -7.955660      -216.4845
  21   1.0000      -7.955127      -216.4700
  22   1.0000      -7.955057      -216.4681
  23   1.0000      -7.954597      -216.4556
  24   1.0000      -7.953992      -216.4391
  25   1.0000      -7.953884      -216.4362
  26   1.0000      -7.952019      -216.3854
  27   1.0000      -7.951348      -216.3672
  28   1.0000      -7.951270      -216.3651
  29   1.0000      -4.116570      -112.0176
  30   1.0000      -2.638512       -71.7975
  31   1.0000      -2.638389       -71.7942
  32   1.0000      -2.637461       -71.7690
  33   1.0000      -1.343443       -36.5570
  34   1.0000      -1.209081       -32.9008
  35   1.0000      -1.093284       -29.7498
  36   1.0000      -1.048492       -28.5309
  37   1.0000      -1.024397       -27.8753
  38   1.0000      -1.020564       -27.7710
  39   1.0000      -1.010153       -27.4877
  40   1.0000      -1.007828       -27.4244
  41   1.0000      -0.964152       -26.2359
  42   1.0000      -0.932211       -25.3667
  43   1.0000      -0.818531       -22.2734
  44   1.0000      -0.775875       -21.1126
  45   1.0000      -0.721742       -19.6396
  46   1.0000      -0.699333       -19.0298
  47   1.0000      -0.681419       -18.5423
  48   1.0000      -0.651241       -17.7212
  49   1.0000      -0.645970       -17.5777
  50   1.0000      -0.637377       -17.3439
  51   1.0000      -0.616221       -16.7682
  52   1.0000      -0.599701       -16.3187
  53   1.0000      -0.593712       -16.1557
  54   1.0000      -0.579135       -15.7591
  55   1.0000      -0.573139       -15.5959
  56   1.0000      -0.560846       -15.2614
  57   1.0000      -0.550514       -14.9803
  58   1.0000      -0.538199       -14.6451
  59   1.0000      -0.524036       -14.2598
  60   1.0000      -0.512519       -13.9464
  61   1.0000      -0.491090       -13.3632
  62   1.0000      -0.458720       -12.4824
  63   1.0000      -0.457236       -12.4420
  64   1.0000      -0.442554       -12.0425
  65   1.0000      -0.438872       -11.9423
  66   1.0000      -0.425846       -11.5879
  67   1.0000      -0.422408       -11.4943
  68   1.0000      -0.421632       -11.4732
  69   1.0000      -0.400618       -10.9014
  70   1.0000      -0.394455       -10.7337
  71   1.0000      -0.388114       -10.5611
  72   0.0000      -0.009548        -0.2598
  73   0.0000      -0.001270        -0.0346
  74   0.0000       0.015908         0.4329
  75   0.0000       0.016272         0.4428
  76   0.0000       0.026040         0.7086

E(0)                                       ...  -3028.423569535
E(0)                                       ...  -3028.423569535
E(CORR)(strong-pairs)                      ...     -2.873050570
E(CORR)(weak-pairs)                        ...     -0.035128848
E(CORR)(corrected)                         ...     -2.908179418
E(TOT)                                     ...  -3031.331748953
E(CCSD(T))                                 ...  -3031.450158750
FINAL SINGLE POINT ENERGY     -3031.450158750303

DIPOLE MOMENT
-------------
                                X             Y             Z
Electronic contribution:     42.22358       7.20566      -0.97369
Nuclear contribution   :    -48.52048      -7.17108       0.98014
                        -----------------------------------------
Total Dipole Moment    :     -6.29690       0.03457       0.00645
                        -----------------------------------------
Magnitude (a.u.)       :      6.29700
Magnitude (Debye)      :     16.00570

Rotational constants in cm-1:     0.020327     0.010250     0.009768
Rotational constants in MHz :   609.387017   307.274236   292.823281

                             ****ORCA TERMINATED NORMALLY****
TOTAL RUN TIME: 0 days 20 hours 31 minutes 21 seconds 186 msec
