                         Program Version 4.1.2  - RELEASE  -
|  1> ! aug-cc-pVTZ aug-cc-pVTZ/C DLPNO-CCSD(T1) TightSCF NormalPNO UNO MiniPrint AutoAux
|  2> %pal nproc 10 end
|  3> %maxcore 20000
|  4> %mdci
|  5>      density none
|  6> end
|  7>
|  8> * xyz 0 6
|  9>  O      0.22004100      0.36924900     -0.85248800
| 10>  C      0.98345300      1.34320200     -0.65793500
| 11>  C      3.12065100      0.05669900      0.49956000
| 12>  C      2.60041000     -0.96046500     -0.21556100
| 13>  C      2.99153700     -1.19333700     -1.64985600
| 14> Fe     -1.47218000     -0.15613700      0.02413400
| 15> Cl     -2.08210900     -1.97157600     -1.00389700
| 16>  C      1.66524700     -1.99422500      0.34063900
| 17> Cl     -2.68545400      1.61995800     -0.38315800
| 18> Cl     -1.09374000     -0.41041600      2.17045000
| 19>  H      3.84853400      0.69700700     -0.00009400
| 20>  H      2.17863800     -2.96426900      0.38958300
| 21>  H      1.29184000     -1.76040900      1.33717500
| 22>  H      0.80646300     -2.13901800     -0.32582400
| 23>  H      3.45138000     -2.18449600     -1.75659900
| 24>  H      2.10651900     -1.19346800     -2.29970500
| 25>  H      3.70632600     -0.45071900     -2.01610500
| 26>  C      2.96571700      0.29132800      1.97793800
| 27>  H      3.79681700     -0.17442900      2.52516300
| 28>  H      2.99393700      1.35899100      2.22001500
| 29>  H      2.03697600     -0.12087800      2.38054600
| 30>  C      0.83982900      2.21000500      0.55241300
| 31>  H      1.72608400      2.82160000      0.72534200
| 32>  H     -0.01228900      2.87692900      0.35230300
| 33>  H      0.59254800      1.62650100      1.43968500
| 34>  C      1.79147400      1.85357600     -1.81106100
| 35>  H      1.20692800      2.67455400     -2.25238100
| 36>  H      2.74960500      2.26521300     -1.49024800
| 37>  H      1.92828300      1.08634900     -2.57096600
| 38> *
| 39>
| 40>
| 41>                          ****END OF INPUT****

CARTESIAN COORDINATES (ANGSTROEM)
---------------------------------
  O      0.220041    0.369249   -0.852488
  C      0.983453    1.343202   -0.657935
  C      3.120651    0.056699    0.499560
  C      2.600410   -0.960465   -0.215561
  C      2.991537   -1.193337   -1.649856
  Fe    -1.472180   -0.156137    0.024134
  Cl    -2.082109   -1.971576   -1.003897
  C      1.665247   -1.994225    0.340639
  Cl    -2.685454    1.619958   -0.383158
  Cl    -1.093740   -0.410416    2.170450
  H      3.848534    0.697007   -0.000094
  H      2.178638   -2.964269    0.389583
  H      1.291840   -1.760409    1.337175
  H      0.806463   -2.139018   -0.325824
  H      3.451380   -2.184496   -1.756599
  H      2.106519   -1.193468   -2.299705
  H      3.706326   -0.450719   -2.016105
  C      2.965717    0.291328    1.977938
  H      3.796817   -0.174429    2.525163
  H      2.993937    1.358991    2.220015
  H      2.036976   -0.120878    2.380546
  C      0.839829    2.210005    0.552413
  H      1.726084    2.821600    0.725342
  H     -0.012289    2.876929    0.352303
  H      0.592548    1.626501    1.439685
  C      1.791474    1.853576   -1.811061
  H      1.206928    2.674554   -2.252381
  H      2.749605    2.265213   -1.490248
  H      1.928283    1.086349   -2.570966

ORBITAL ENERGIES
----------------
                 SPIN UP ORBITALS
  NO   OCC          E(Eh)            E(eV)
   0   1.0000    -261.577558     -7117.8872
   1   1.0000    -104.794829     -2851.6123
   2   1.0000    -104.791833     -2851.5307
   3   1.0000    -104.789996     -2851.4808
   4   1.0000     -32.245231      -877.4373
   5   1.0000     -27.721741      -754.3469
   6   1.0000     -27.720554      -754.3146
   7   1.0000     -27.720367      -754.3095
   8   1.0000     -20.622993      -561.1802
   9   1.0000     -11.422229      -310.8147
  10   1.0000     -11.278683      -306.9086
  11   1.0000     -11.272807      -306.7487
  12   1.0000     -11.263069      -306.4837
  13   1.0000     -11.241491      -305.8965
  14   1.0000     -11.240422      -305.8674
  15   1.0000     -11.236399      -305.7580
  16   1.0000     -11.227477      -305.5152
  17   1.0000     -10.521554      -286.3060
  18   1.0000     -10.518530      -286.2238
  19   1.0000     -10.516642      -286.1724
  20   1.0000      -7.988380      -217.3749
  21   1.0000      -7.987639      -217.3547
  22   1.0000      -7.987582      -217.3532
  23   1.0000      -7.985421      -217.2943
  24   1.0000      -7.984622      -217.2726
  25   1.0000      -7.984566      -217.2711
  26   1.0000      -7.983425      -217.2400
  27   1.0000      -7.982770      -217.2222
  28   1.0000      -7.982727      -217.2210
  29   1.0000      -4.600030      -125.1732
  30   1.0000      -3.213179       -87.4351
  31   1.0000      -3.211394       -87.3865
  32   1.0000      -3.211273       -87.3832
  33   1.0000      -1.467686       -39.9378
  34   1.0000      -1.123197       -30.5637
  35   1.0000      -1.102508       -30.0008
  36   1.0000      -1.068183       -29.0667
  37   1.0000      -1.062423       -28.9100
  38   1.0000      -1.059721       -28.8365
  39   1.0000      -1.021257       -27.7898
  40   1.0000      -1.009507       -27.4701
  41   1.0000      -0.956267       -26.0214
  42   1.0000      -0.943934       -25.6857
  43   1.0000      -0.928899       -25.2766
  44   1.0000      -0.928779       -25.2734
  45   1.0000      -0.917950       -24.9787
  46   1.0000      -0.917339       -24.9621
  47   1.0000      -0.894214       -24.3328
  48   1.0000      -0.815567       -22.1927
  49   1.0000      -0.726751       -19.7759
  50   1.0000      -0.714325       -19.4378
  51   1.0000      -0.704467       -19.1695
  52   1.0000      -0.685638       -18.6572
  53   1.0000      -0.652810       -17.7639
  54   1.0000      -0.621803       -16.9201
  55   1.0000      -0.619114       -16.8470
  56   1.0000      -0.603912       -16.4333
  57   1.0000      -0.599829       -16.3222
  58   1.0000      -0.586293       -15.9538
  59   1.0000      -0.579566       -15.7708
  60   1.0000      -0.560894       -15.2627
  61   1.0000      -0.549551       -14.9540
  62   1.0000      -0.548221       -14.9179
  63   1.0000      -0.538223       -14.6458
  64   1.0000      -0.536706       -14.6045
  65   1.0000      -0.524567       -14.2742
  66   1.0000      -0.504988       -13.7414
  67   1.0000      -0.490742       -13.3538
  68   1.0000      -0.477781       -13.0011
  69   1.0000      -0.477636       -12.9971
  70   1.0000      -0.447972       -12.1899
  71   1.0000      -0.441685       -12.0189
  72   1.0000      -0.439903       -11.9704
  73   1.0000      -0.431285       -11.7359
  74   1.0000      -0.430264       -11.7081
  75   1.0000      -0.429085       -11.6760
  76   1.0000      -0.357399        -9.7253
  77   0.0000       0.012765         0.3474
  78   0.0000       0.023805         0.6478
  79   0.0000       0.024565         0.6684
  80   0.0000       0.030756         0.8369
  81   0.0000       0.039459         1.0737

                 SPIN DOWN ORBITALS
  NO   OCC          E(Eh)            E(eV)
   0   1.0000    -261.573975     -7117.7897
   1   1.0000    -104.793335     -2851.5716
   2   1.0000    -104.790274     -2851.4883
   3   1.0000    -104.788426     -2851.4380
   4   1.0000     -32.083253      -873.0297
   5   1.0000     -27.561193      -749.9782
   6   1.0000     -27.561083      -749.9752
   7   1.0000     -27.560996      -749.9728
   8   1.0000     -20.619595      -561.0877
   9   1.0000     -11.422152      -310.8126
  10   1.0000     -11.278578      -306.9057
  11   1.0000     -11.272802      -306.7485
  12   1.0000     -11.263116      -306.4850
  13   1.0000     -11.241418      -305.8945
  14   1.0000     -11.240415      -305.8673
  15   1.0000     -11.236407      -305.7582
  16   1.0000     -11.227486      -305.5154
  17   1.0000     -10.519959      -286.2626
  18   1.0000     -10.516866      -286.1785
  19   1.0000     -10.514975      -286.1270
  20   1.0000      -7.985884      -217.3070
  21   1.0000      -7.985129      -217.2864
  22   1.0000      -7.985089      -217.2853
  23   1.0000      -7.982734      -217.2212
  24   1.0000      -7.982066      -217.2031
  25   1.0000      -7.981971      -217.2005
  26   1.0000      -7.980970      -217.1732
  27   1.0000      -7.980057      -217.1484
  28   1.0000      -7.979977      -217.1462
  29   1.0000      -4.157978      -113.1443
  30   1.0000      -2.679523       -72.9135
  31   1.0000      -2.679475       -72.9122
  32   1.0000      -2.679045       -72.9005
  33   1.0000      -1.459377       -39.7117
  34   1.0000      -1.122897       -30.5556
  35   1.0000      -1.100279       -29.9401
  36   1.0000      -1.052495       -28.6399
  37   1.0000      -1.039909       -28.2974
  38   1.0000      -1.036882       -28.2150
  39   1.0000      -1.020408       -27.7667
  40   1.0000      -1.009148       -27.4603
  41   1.0000      -0.956113       -26.0172
  42   1.0000      -0.894324       -24.3358
  43   1.0000      -0.827923       -22.5289
  44   1.0000      -0.726823       -19.7779
  45   1.0000      -0.716115       -19.4865
  46   1.0000      -0.703676       -19.1480
  47   1.0000      -0.685041       -18.6409
  48   1.0000      -0.652754       -17.7623
  49   1.0000      -0.621250       -16.9051
  50   1.0000      -0.619033       -16.8447
  51   1.0000      -0.603715       -16.4279
  52   1.0000      -0.599748       -16.3200
  53   1.0000      -0.586041       -15.9470
  54   1.0000      -0.578318       -15.7368
  55   1.0000      -0.559937       -15.2367
  56   1.0000      -0.549399       -14.9499
  57   1.0000      -0.546035       -14.8584
  58   1.0000      -0.538241       -14.6463
  59   1.0000      -0.526772       -14.3342
  60   1.0000      -0.523311       -14.2400
  61   1.0000      -0.506680       -13.7875
  62   1.0000      -0.490479       -13.3466
  63   1.0000      -0.486399       -13.2356
  64   1.0000      -0.484080       -13.1725
  65   1.0000      -0.454978       -12.3806
  66   1.0000      -0.452016       -12.3000
  67   1.0000      -0.448979       -12.2173
  68   1.0000      -0.432483       -11.7685
  69   1.0000      -0.430523       -11.7151
  70   1.0000      -0.414376       -11.2758
  71   1.0000      -0.356910        -9.7120
  72   0.0000       0.012749         0.3469
  73   0.0000       0.023781         0.6471
  74   0.0000       0.024526         0.6674
  75   0.0000       0.030696         0.8353
  76   0.0000       0.039365         1.0712

E(0)                                       ...  -3028.467579160
E(0)                                       ...  -3028.467579160
E(CORR)(strong-pairs)                      ...     -2.866949775
E(CORR)(weak-pairs)                        ...     -0.035497210
E(CORR)(corrected)                         ...     -2.902446985
E(TOT)                                     ...  -3031.370026145
E(CCSD(T))                                 ...  -3031.487874016
FINAL SINGLE POINT ENERGY     -3031.487874015752

DIPOLE MOMENT
-------------
                                X             Y             Z
Electronic contribution:    -43.44885      -4.41337       1.84607
Nuclear contribution   :     46.66388       5.88993      -2.47498
                        -----------------------------------------
Total Dipole Moment    :      3.21503       1.47657      -0.62891
                        -----------------------------------------
Magnitude (a.u.)       :      3.59335
Magnitude (Debye)      :      9.13358

Rotational constants in cm-1:     0.018777     0.010764     0.010142
Rotational constants in MHz :   562.913796   322.687831   304.051197

                             ****ORCA TERMINATED NORMALLY****
TOTAL RUN TIME: 0 days 17 hours 20 minutes 26 seconds 557 msec
