                         Program Version 4.1.2  - RELEASE  -
|  1> ! aug-cc-pVTZ aug-cc-pVTZ/C DLPNO-CCSD(T1) TightSCF NormalPNO UNO MiniPrint AutoAux
|  2> %pal nproc 10 end
|  3> %maxcore 20000
|  4> %mdci
|  5>      density none
|  6> end
|  7>
|  8> * xyz 0 6
|  9>  O      0.20923600      0.34971300     -0.86349200
| 10>  C      1.01749800      1.29418000     -0.67250700
| 11>  C      3.01376200      0.15679600      0.54457700
| 12>  C      2.64768200     -0.94201500     -0.15080300
| 13>  C      3.15627600     -1.20128000     -1.54157700
| 14> Fe     -1.47731500     -0.15788600      0.00656700
| 15> Cl     -2.05702600     -2.00912800     -0.97913100
| 16>  C      1.72803100     -2.00124700      0.37840400
| 17> Cl     -2.71426100      1.59297500     -0.43413700
| 18> Cl     -1.09660300     -0.37719400      2.15921700
| 19>  H      3.73513500      0.82499700      0.07426200
| 20>  H      2.25700600     -2.96228300      0.42909100
| 21>  H      1.32505500     -1.78055300      1.36623600
| 22>  H      0.88671400     -2.15198900     -0.31057700
| 23>  H      3.68778700     -2.16131000     -1.57038000
| 24>  H      2.32270800     -1.29055600     -2.25120700
| 25>  H      3.84398400     -0.42593000     -1.89011300
| 26>  C      2.77569900      0.39536700      2.01362600
| 27>  H      3.56176900     -0.09589000      2.60289300
| 28>  H      2.81955000      1.46018800      2.25986300
| 29>  H      1.81524500      0.00770900      2.36159700
| 30>  C      0.82774000      2.23990300      0.47337800
| 31>  H      1.71394000      2.84742400      0.65931100
| 32>  H      0.00392000      2.90557900      0.17481800
| 33>  H      0.51363600      1.72490700      1.38112000
| 34>  C      1.83339100      1.75749400     -1.84355400
| 35>  H      1.22257200      2.51999300     -2.34907100
| 36>  H      2.76972000      2.22758300     -1.54059600
| 37>  H      2.01120200      0.94919400     -2.55044700
| 38> *
| 39>
| 40>
| 41>                          ****END OF INPUT****

CARTESIAN COORDINATES (ANGSTROEM)
---------------------------------
  O      0.209236    0.349713   -0.863492
  C      1.017498    1.294180   -0.672507
  C      3.013762    0.156796    0.544577
  C      2.647682   -0.942015   -0.150803
  C      3.156276   -1.201280   -1.541577
  Fe    -1.477315   -0.157886    0.006567
  Cl    -2.057026   -2.009128   -0.979131
  C      1.728031   -2.001247    0.378404
  Cl    -2.714261    1.592975   -0.434137
  Cl    -1.096603   -0.377194    2.159217
  H      3.735135    0.824997    0.074262
  H      2.257006   -2.962283    0.429091
  H      1.325055   -1.780553    1.366236
  H      0.886714   -2.151989   -0.310577
  H      3.687787   -2.161310   -1.570380
  H      2.322708   -1.290556   -2.251207
  H      3.843984   -0.425930   -1.890113
  C      2.775699    0.395367    2.013626
  H      3.561769   -0.095890    2.602893
  H      2.819550    1.460188    2.259863
  H      1.815245    0.007709    2.361597
  C      0.827740    2.239903    0.473378
  H      1.713940    2.847424    0.659311
  H      0.003920    2.905579    0.174818
  H      0.513636    1.724907    1.381120
  C      1.833391    1.757494   -1.843554
  H      1.222572    2.519993   -2.349071
  H      2.769720    2.227583   -1.540596
  H      2.011202    0.949194   -2.550447

ORBITAL ENERGIES
----------------
                 SPIN UP ORBITALS
  NO   OCC          E(Eh)            E(eV)
   0   1.0000    -261.574874     -7117.8142
   1   1.0000    -104.793429     -2851.5742
   2   1.0000    -104.790061     -2851.4825
   3   1.0000    -104.788039     -2851.4275
   4   1.0000     -32.242594      -877.3656
   5   1.0000     -27.719053      -754.2738
   6   1.0000     -27.717950      -754.2438
   7   1.0000     -27.717752      -754.2384
   8   1.0000     -20.617901      -561.0416
   9   1.0000     -11.421318      -310.7899
  10   1.0000     -11.277108      -306.8657
  11   1.0000     -11.271662      -306.7175
  12   1.0000     -11.270417      -306.6836
  13   1.0000     -11.245399      -306.0029
  14   1.0000     -11.244761      -305.9855
  15   1.0000     -11.237022      -305.7749
  16   1.0000     -11.230511      -305.5977
  17   1.0000     -10.520145      -286.2677
  18   1.0000     -10.516748      -286.1753
  19   1.0000     -10.514678      -286.1189
  20   1.0000      -7.986979      -217.3367
  21   1.0000      -7.986221      -217.3161
  22   1.0000      -7.986172      -217.3148
  23   1.0000      -7.983624      -217.2454
  24   1.0000      -7.982846      -217.2243
  25   1.0000      -7.982791      -217.2228
  26   1.0000      -7.981468      -217.1868
  27   1.0000      -7.980807      -217.1688
  28   1.0000      -7.980757      -217.1674
  29   1.0000      -4.597482      -125.1038
  30   1.0000      -3.210610       -87.3651
  31   1.0000      -3.208905       -87.3187
  32   1.0000      -3.208743       -87.3143
  33   1.0000      -1.461843       -39.7788
  34   1.0000      -1.128489       -30.7077
  35   1.0000      -1.100071       -29.9345
  36   1.0000      -1.066393       -29.0180
  37   1.0000      -1.060561       -28.8593
  38   1.0000      -1.057565       -28.7778
  39   1.0000      -1.022442       -27.8221
  40   1.0000      -1.008955       -27.4551
  41   1.0000      -0.960004       -26.1230
  42   1.0000      -0.942027       -25.6339
  43   1.0000      -0.926411       -25.2089
  44   1.0000      -0.926292       -25.2057
  45   1.0000      -0.915705       -24.9176
  46   1.0000      -0.915025       -24.8991
  47   1.0000      -0.897558       -24.4238
  48   1.0000      -0.812949       -22.1215
  49   1.0000      -0.731218       -19.8975
  50   1.0000      -0.711009       -19.3475
  51   1.0000      -0.701063       -19.0769
  52   1.0000      -0.684405       -18.6236
  53   1.0000      -0.656456       -17.8631
  54   1.0000      -0.622530       -16.9399
  55   1.0000      -0.621324       -16.9071
  56   1.0000      -0.604861       -16.4591
  57   1.0000      -0.599333       -16.3087
  58   1.0000      -0.585703       -15.9378
  59   1.0000      -0.578239       -15.7347
  60   1.0000      -0.560872       -15.2621
  61   1.0000      -0.552488       -15.0340
  62   1.0000      -0.546900       -14.8819
  63   1.0000      -0.541698       -14.7403
  64   1.0000      -0.536309       -14.5937
  65   1.0000      -0.526748       -14.3335
  66   1.0000      -0.502655       -13.6779
  67   1.0000      -0.494400       -13.4533
  68   1.0000      -0.476495       -12.9661
  69   1.0000      -0.475608       -12.9420
  70   1.0000      -0.446189       -12.1414
  71   1.0000      -0.440154       -11.9772
  72   1.0000      -0.438271       -11.9260
  73   1.0000      -0.429673       -11.6920
  74   1.0000      -0.428682       -11.6650
  75   1.0000      -0.427362       -11.6291
  76   1.0000      -0.360637        -9.8134
  77   0.0000       0.012570         0.3421
  78   0.0000       0.023472         0.6387
  79   0.0000       0.024143         0.6570
  80   0.0000       0.030564         0.8317
  81   0.0000       0.039232         1.0676

                 SPIN DOWN ORBITALS
  NO   OCC          E(Eh)            E(eV)
   0   1.0000    -261.571295     -7117.7168
   1   1.0000    -104.791949     -2851.5339
   2   1.0000    -104.788508     -2851.4403
   3   1.0000    -104.786481     -2851.3851
   4   1.0000     -32.080597      -872.9574
   5   1.0000     -27.558515      -749.9053
   6   1.0000     -27.558443      -749.9034
   7   1.0000     -27.558331      -749.9003
   8   1.0000     -20.614344      -560.9448
   9   1.0000     -11.421240      -310.7877
  10   1.0000     -11.276999      -306.8628
  11   1.0000     -11.271653      -306.7173
  12   1.0000     -11.270431      -306.6840
  13   1.0000     -11.245353      -306.0016
  14   1.0000     -11.244759      -305.9855
  15   1.0000     -11.237025      -305.7750
  16   1.0000     -11.230524      -305.5981
  17   1.0000     -10.518563      -286.2247
  18   1.0000     -10.515091      -286.1302
  19   1.0000     -10.513022      -286.0739
  20   1.0000      -7.984480      -217.2688
  21   1.0000      -7.983753      -217.2490
  22   1.0000      -7.983714      -217.2479
  23   1.0000      -7.980975      -217.1734
  24   1.0000      -7.980284      -217.1546
  25   1.0000      -7.980194      -217.1521
  26   1.0000      -7.979012      -217.1199
  27   1.0000      -7.978125      -217.0958
  28   1.0000      -7.978041      -217.0935
  29   1.0000      -4.155380      -113.0736
  30   1.0000      -2.676929       -72.8430
  31   1.0000      -2.676917       -72.8426
  32   1.0000      -2.676434       -72.8295
  33   1.0000      -1.453102       -39.5409
  34   1.0000      -1.128170       -30.6991
  35   1.0000      -1.097692       -29.8697
  36   1.0000      -1.050799       -28.5937
  37   1.0000      -1.038262       -28.2525
  38   1.0000      -1.034919       -28.1616
  39   1.0000      -1.021750       -27.8032
  40   1.0000      -1.008434       -27.4409
  41   1.0000      -0.959904       -26.1203
  42   1.0000      -0.897705       -24.4278
  43   1.0000      -0.825998       -22.4765
  44   1.0000      -0.731290       -19.8994
  45   1.0000      -0.713076       -19.4038
  46   1.0000      -0.700191       -19.0532
  47   1.0000      -0.683765       -18.6062
  48   1.0000      -0.656388       -17.8612
  49   1.0000      -0.622500       -16.9391
  50   1.0000      -0.620765       -16.8919
  51   1.0000      -0.604594       -16.4518
  52   1.0000      -0.599230       -16.3059
  53   1.0000      -0.585420       -15.9301
  54   1.0000      -0.576832       -15.6964
  55   1.0000      -0.560120       -15.2416
  56   1.0000      -0.552270       -15.0280
  57   1.0000      -0.545321       -14.8389
  58   1.0000      -0.541558       -14.7365
  59   1.0000      -0.528025       -14.3683
  60   1.0000      -0.523157       -14.2358
  61   1.0000      -0.504363       -13.7244
  62   1.0000      -0.494285       -13.4502
  63   1.0000      -0.484732       -13.1902
  64   1.0000      -0.482101       -13.1186
  65   1.0000      -0.453589       -12.3428
  66   1.0000      -0.450326       -12.2540
  67   1.0000      -0.447423       -12.1750
  68   1.0000      -0.431183       -11.7331
  69   1.0000      -0.428580       -11.6623
  70   1.0000      -0.412930       -11.2364
  71   1.0000      -0.360004        -9.7962
  72   0.0000       0.012554         0.3416
  73   0.0000       0.023449         0.6381
  74   0.0000       0.024108         0.6560
  75   0.0000       0.030487         0.8296
  76   0.0000       0.039116         1.0644

E(0)                                       ...  -3028.462864696
E(0)                                       ...  -3028.462864696
E(CORR)(strong-pairs)                      ...     -2.867912972
E(CORR)(weak-pairs)                        ...     -0.035861545
E(CORR)(corrected)                         ...     -2.903774517
E(TOT)                                     ...  -3031.366639213
E(CCSD(T))                                 ...  -3031.484777562
FINAL SINGLE POINT ENERGY     -3031.484777561900

DIPOLE MOMENT
-------------
                                X             Y             Z
Electronic contribution:    -43.38900      -4.73040       1.54684
Nuclear contribution   :     46.77011       6.11230      -2.17675
                        -----------------------------------------
Total Dipole Moment    :      3.38111       1.38190      -0.62991
                        -----------------------------------------
Magnitude (a.u.)       :      3.70652
Magnitude (Debye)      :      9.42123

Rotational constants in cm-1:     0.018886     0.010773     0.010140
Rotational constants in MHz :   566.183668   322.976474   303.980300

                             ****ORCA TERMINATED NORMALLY****
TOTAL RUN TIME: 0 days 17 hours 31 minutes 58 seconds 238 msec
