                         Program Version 4.1.2  - RELEASE  -
|  1> ! aug-cc-pVTZ aug-cc-pVTZ/C DLPNO-CCSD(T1) TightSCF NormalPNO UNO MiniPrint AutoAux
|  2> %pal nproc 10 end
|  3> %maxcore 20000
|  4> %mdci
|  5>      density none
|  6> end
|  7>
|  8> * xyz 0 6
|  9>  O      0.14404200      0.44138300     -0.90128800
| 10>  C      0.91532700      1.40231400     -0.68656800
| 11>  C      3.12207600      0.11293900      0.57449500
| 12>  C      2.72084300     -0.92069400     -0.19080000
| 13>  C      3.21594400     -1.08777300     -1.60303200
| 14> Fe     -1.50002700     -0.17969500      0.01328700
| 15> Cl     -2.05460400     -1.99161500     -1.04881300
| 16>  C      1.79121500     -2.00693900      0.26962700
| 17> Cl     -2.79377000      1.55576100     -0.29942500
| 18> Cl     -1.03011900     -0.48673200      2.13290200
| 19>  H      3.83984100      0.80752000      0.13551700
| 20>  H      2.30614900     -2.97665000      0.24392800
| 21>  H      1.40366400     -1.85535300      1.27680900
| 22>  H      0.93805300     -2.09744800     -0.41544800
| 23>  H      3.75812500     -2.03716100     -1.70406000
| 24>  H      2.37638700     -1.13780300     -2.30947300
| 25>  H      3.89022200     -0.28205000     -1.90808600
| 26>  C      2.85453500      0.31071200      2.04229700
| 27>  H      3.66846200     -0.12447400      2.63844100
| 28>  H      2.81500000      1.37380200      2.30197600
| 29>  H      1.92116400     -0.15096900      2.37322700
| 30>  C      0.76379400      2.25711900      0.53084300
| 31>  H      1.64611100      2.87140900      0.71356600
| 32>  H     -0.09356200      2.91942700      0.33843800
| 33>  H      0.51913800      1.66062800      1.41063600
| 34>  C      1.77071300      1.88926500     -1.81437400
| 35>  H      1.22785900      2.72758400     -2.27577000
| 36>  H      2.73040000      2.27067500     -1.46260000
| 37>  H      1.90906600      1.11417400     -2.56649900
| 38> *
| 39>
| 40>
| 41>                          ****END OF INPUT****

CARTESIAN COORDINATES (ANGSTROEM)
---------------------------------
  O      0.144042    0.441383   -0.901288
  C      0.915327    1.402314   -0.686568
  C      3.122076    0.112939    0.574495
  C      2.720843   -0.920694   -0.190800
  C      3.215944   -1.087773   -1.603032
  Fe    -1.500027   -0.179695    0.013287
  Cl    -2.054604   -1.991615   -1.048813
  C      1.791215   -2.006939    0.269627
  Cl    -2.793770    1.555761   -0.299425
  Cl    -1.030119   -0.486732    2.132902
  H      3.839841    0.807520    0.135517
  H      2.306149   -2.976650    0.243928
  H      1.403664   -1.855353    1.276809
  H      0.938053   -2.097448   -0.415448
  H      3.758125   -2.037161   -1.704060
  H      2.376387   -1.137803   -2.309473
  H      3.890222   -0.282050   -1.908086
  C      2.854535    0.310712    2.042297
  H      3.668462   -0.124474    2.638441
  H      2.815000    1.373802    2.301976
  H      1.921164   -0.150969    2.373227
  C      0.763794    2.257119    0.530843
  H      1.646111    2.871409    0.713566
  H     -0.093562    2.919427    0.338438
  H      0.519138    1.660628    1.410636
  C      1.770713    1.889265   -1.814374
  H      1.227859    2.727584   -2.275770
  H      2.730400    2.270675   -1.462600
  H      1.909066    1.114174   -2.566499

ORBITAL ENERGIES
----------------
                 SPIN UP ORBITALS
  NO   OCC          E(Eh)            E(eV)
   0   1.0000    -261.577998     -7117.8992
   1   1.0000    -104.795577     -2851.6326
   2   1.0000    -104.792360     -2851.5451
   3   1.0000    -104.790183     -2851.4859
   4   1.0000     -32.245679      -877.4495
   5   1.0000     -27.722216      -754.3598
   6   1.0000     -27.720988      -754.3264
   7   1.0000     -27.720780      -754.3208
   8   1.0000     -20.627295      -561.2972
   9   1.0000     -11.422231      -310.8147
  10   1.0000     -11.279336      -306.9263
  11   1.0000     -11.273865      -306.7775
  12   1.0000     -11.260332      -306.4092
  13   1.0000     -11.240956      -305.8820
  14   1.0000     -11.240061      -305.8576
  15   1.0000     -11.234234      -305.6991
  16   1.0000     -11.226701      -305.4941
  17   1.0000     -10.522317      -286.3268
  18   1.0000     -10.519059      -286.2381
  19   1.0000     -10.516834      -286.1776
  20   1.0000      -7.989140      -217.3955
  21   1.0000      -7.988404      -217.3755
  22   1.0000      -7.988348      -217.3740
  23   1.0000      -7.985936      -217.3084
  24   1.0000      -7.985157      -217.2872
  25   1.0000      -7.985105      -217.2858
  26   1.0000      -7.983617      -217.2453
  27   1.0000      -7.982969      -217.2276
  28   1.0000      -7.982921      -217.2263
  29   1.0000      -4.600472      -125.1852
  30   1.0000      -3.213655       -87.4480
  31   1.0000      -3.211828       -87.3983
  32   1.0000      -3.211668       -87.3939
  33   1.0000      -1.470122       -40.0040
  34   1.0000      -1.120725       -30.4965
  35   1.0000      -1.102672       -30.0052
  36   1.0000      -1.068952       -29.0877
  37   1.0000      -1.063067       -28.9275
  38   1.0000      -1.060024       -28.8447
  39   1.0000      -1.021144       -27.7867
  40   1.0000      -1.008972       -27.4555
  41   1.0000      -0.954687       -25.9784
  42   1.0000      -0.944581       -25.7034
  43   1.0000      -0.929340       -25.2886
  44   1.0000      -0.929177       -25.2842
  45   1.0000      -0.918325       -24.9889
  46   1.0000      -0.917694       -24.9717
  47   1.0000      -0.892225       -24.2787
  48   1.0000      -0.817075       -22.2337
  49   1.0000      -0.725083       -19.7305
  50   1.0000      -0.715736       -19.4762
  51   1.0000      -0.705442       -19.1961
  52   1.0000      -0.683967       -18.6117
  53   1.0000      -0.650916       -17.7123
  54   1.0000      -0.621164       -16.9027
  55   1.0000      -0.617306       -16.7977
  56   1.0000      -0.604742       -16.4559
  57   1.0000      -0.600000       -16.3268
  58   1.0000      -0.586272       -15.9533
  59   1.0000      -0.580030       -15.7834
  60   1.0000      -0.561192       -15.2708
  61   1.0000      -0.548904       -14.9364
  62   1.0000      -0.545859       -14.8536
  63   1.0000      -0.538474       -14.6526
  64   1.0000      -0.536926       -14.6105
  65   1.0000      -0.523102       -14.2343
  66   1.0000      -0.506242       -13.7756
  67   1.0000      -0.489062       -13.3080
  68   1.0000      -0.478464       -13.0197
  69   1.0000      -0.478224       -13.0132
  70   1.0000      -0.448643       -12.2082
  71   1.0000      -0.442155       -12.0317
  72   1.0000      -0.440256       -11.9800
  73   1.0000      -0.431732       -11.7480
  74   1.0000      -0.430789       -11.7224
  75   1.0000      -0.429422       -11.6852
  76   1.0000      -0.356643        -9.7048
  77   0.0000       0.012658         0.3444
  78   0.0000       0.023875         0.6497
  79   0.0000       0.024639         0.6705
  80   0.0000       0.030856         0.8396
  81   0.0000       0.039411         1.0724

                 SPIN DOWN ORBITALS
  NO   OCC          E(Eh)            E(eV)
   0   1.0000    -261.574408     -7117.8015
   1   1.0000    -104.794076     -2851.5918
   2   1.0000    -104.790793     -2851.5025
   3   1.0000    -104.788602     -2851.4428
   4   1.0000     -32.083702      -873.0419
   5   1.0000     -27.561652      -749.9907
   6   1.0000     -27.561525      -749.9872
   7   1.0000     -27.561444      -749.9850
   8   1.0000     -20.623911      -561.2052
   9   1.0000     -11.422172      -310.8131
  10   1.0000     -11.279230      -306.9234
  11   1.0000     -11.273856      -306.7772
  12   1.0000     -11.260365      -306.4101
  13   1.0000     -11.240910      -305.8807
  14   1.0000     -11.240056      -305.8575
  15   1.0000     -11.234237      -305.6991
  16   1.0000     -11.226708      -305.4943
  17   1.0000     -10.520715      -286.2832
  18   1.0000     -10.517387      -286.1927
  19   1.0000     -10.515155      -286.1319
  20   1.0000      -7.986644      -217.3276
  21   1.0000      -7.985877      -217.3067
  22   1.0000      -7.985841      -217.3058
  23   1.0000      -7.983268      -217.2358
  24   1.0000      -7.982571      -217.2168
  25   1.0000      -7.982480      -217.2143
  26   1.0000      -7.981151      -217.1782
  27   1.0000      -7.980231      -217.1531
  28   1.0000      -7.980148      -217.1509
  29   1.0000      -4.158449      -113.1571
  30   1.0000      -2.679987       -72.9262
  31   1.0000      -2.679953       -72.9252
  32   1.0000      -2.679536       -72.9139
  33   1.0000      -1.461928       -39.7811
  34   1.0000      -1.120428       -30.4884
  35   1.0000      -1.100447       -29.9447
  36   1.0000      -1.053115       -28.6567
  37   1.0000      -1.040487       -28.3131
  38   1.0000      -1.037085       -28.2205
  39   1.0000      -1.020181       -27.7605
  40   1.0000      -1.008746       -27.4494
  41   1.0000      -0.954583       -25.9755
  42   1.0000      -0.892293       -24.2805
  43   1.0000      -0.829724       -22.5779
  44   1.0000      -0.725167       -19.7328
  45   1.0000      -0.717314       -19.5191
  46   1.0000      -0.704699       -19.1758
  47   1.0000      -0.683402       -18.5963
  48   1.0000      -0.650871       -17.7111
  49   1.0000      -0.620590       -16.8871
  50   1.0000      -0.617234       -16.7958
  51   1.0000      -0.604598       -16.4519
  52   1.0000      -0.599922       -16.3247
  53   1.0000      -0.585957       -15.9447
  54   1.0000      -0.578477       -15.7412
  55   1.0000      -0.560416       -15.2497
  56   1.0000      -0.548363       -14.9217
  57   1.0000      -0.544217       -14.8089
  58   1.0000      -0.536957       -14.6113
  59   1.0000      -0.527465       -14.3531
  60   1.0000      -0.522707       -14.2236
  61   1.0000      -0.508321       -13.8321
  62   1.0000      -0.489222       -13.3124
  63   1.0000      -0.486628       -13.2418
  64   1.0000      -0.484339       -13.1795
  65   1.0000      -0.455747       -12.4015
  66   1.0000      -0.452430       -12.3113
  67   1.0000      -0.449347       -12.2274
  68   1.0000      -0.432988       -11.7822
  69   1.0000      -0.430831       -11.7235
  70   1.0000      -0.414769       -11.2864
  71   1.0000      -0.356294        -9.6953
  72   0.0000       0.012641         0.3440
  73   0.0000       0.023851         0.6490
  74   0.0000       0.024599         0.6694
  75   0.0000       0.030803         0.8382
  76   0.0000       0.039333         1.0703

E(0)                                       ...  -3028.473401172
E(0)                                       ...  -3028.473401172
E(CORR)(strong-pairs)                      ...     -2.864916528
E(CORR)(weak-pairs)                        ...     -0.035124584
E(CORR)(corrected)                         ...     -2.900041112
E(TOT)                                     ...  -3031.373442284
E(CCSD(T))                                 ...  -3031.490949181
FINAL SINGLE POINT ENERGY     -3031.490949181401

DIPOLE MOMENT
-------------
                                X             Y             Z
Electronic contribution:    -44.08078      -5.22933       1.67551
Nuclear contribution   :     47.22024       6.83883      -2.30961
                        -----------------------------------------
Total Dipole Moment    :      3.13946       1.60951      -0.63410
                        -----------------------------------------
Magnitude (a.u.)       :      3.58452
Magnitude (Debye)      :      9.11113

Rotational constants in cm-1:     0.018736     0.010521     0.009902
Rotational constants in MHz :   561.693554   315.414152   296.843851

                             ****ORCA TERMINATED NORMALLY****
TOTAL RUN TIME: 0 days 17 hours 37 minutes 44 seconds 719 msec
