                         Program Version 4.1.2  - RELEASE  -
|  1> ! aug-cc-pVTZ aug-cc-pVTZ/C DLPNO-CCSD(T1) TightSCF NormalPNO UNO MiniPrint AutoAux
|  2> %pal nproc 10 end
|  3> %maxcore 20000
|  4> %mdci
|  5>      density none
|  6> end
|  7>
|  8> * xyz 0 6
|  9>  O     -0.33567200     -0.12849400     -0.45816900
| 10>  C     -1.20490400     -1.09972500     -0.28741200
| 11>  C     -2.61089600     -0.36321200      0.75697300
| 12>  C     -2.91799400      0.72864000     -0.05889400
| 13>  C     -3.94737600      0.63700900     -1.13251400
| 14> Fe      1.49025800      0.17414000     -0.08277100
| 15> Cl      1.80071800      2.19200400     -0.89816200
| 16>  C     -2.16114500      1.98702500      0.04606200
| 17> Cl      2.54678200     -1.46635000     -1.09601200
| 18> Cl      1.74748600      0.11445800      2.11232900
| 19>  H     -3.32578100     -1.18417600      0.69350300
| 20>  H     -2.58870900      2.79805900     -0.54640700
| 21>  H     -1.99911100      2.30604100      1.07925800
| 22>  H     -1.15303700      1.74754500     -0.35122000
| 23>  H     -4.77068800      1.31568000     -0.86489800
| 24>  H     -3.55509400      1.00180300     -2.09005400
| 25>  H     -4.35621300     -0.36698400     -1.25541800
| 26>  C     -2.03801500     -0.11334400      2.14533600
| 27>  H     -2.68408700      0.57867200      2.69694200
| 28>  H     -1.98834200     -1.04187300      2.71585300
| 29>  H     -1.03287900      0.31272400      2.10739100
| 30>  C     -0.75067400     -2.24301000      0.61919900
| 31>  H     -1.56709100     -2.92721900      0.86465600
| 32>  H      0.00770700     -2.79336200      0.04898100
| 33>  H     -0.27534800     -1.88005700      1.52961300
| 34>  C     -1.80596900     -1.60398500     -1.59399100
| 35>  H     -1.02864700     -2.19944100     -2.08578900
| 36>  H     -2.67959000     -2.24321500     -1.43708600
| 37>  H     -2.05735400     -0.78215200     -2.26512900
| 38> *
| 39>
| 40>
| 41>                          ****END OF INPUT****

CARTESIAN COORDINATES (ANGSTROEM)
---------------------------------
  O     -0.335672   -0.128494   -0.458169
  C     -1.204904   -1.099725   -0.287412
  C     -2.610896   -0.363212    0.756973
  C     -2.917994    0.728640   -0.058894
  C     -3.947376    0.637009   -1.132514
  Fe     1.490258    0.174140   -0.082771
  Cl     1.800718    2.192004   -0.898162
  C     -2.161145    1.987025    0.046062
  Cl     2.546782   -1.466350   -1.096012
  Cl     1.747486    0.114458    2.112329
  H     -3.325781   -1.184176    0.693503
  H     -2.588709    2.798059   -0.546407
  H     -1.999111    2.306041    1.079258
  H     -1.153037    1.747545   -0.351220
  H     -4.770688    1.315680   -0.864898
  H     -3.555094    1.001803   -2.090054
  H     -4.356213   -0.366984   -1.255418
  C     -2.038015   -0.113344    2.145336
  H     -2.684087    0.578672    2.696942
  H     -1.988342   -1.041873    2.715853
  H     -1.032879    0.312724    2.107391
  C     -0.750674   -2.243010    0.619199
  H     -1.567091   -2.927219    0.864656
  H      0.007707   -2.793362    0.048981
  H     -0.275348   -1.880057    1.529613
  C     -1.805969   -1.603985   -1.593991
  H     -1.028647   -2.199441   -2.085789
  H     -2.679590   -2.243215   -1.437086
  H     -2.057354   -0.782152   -2.265129

ORBITAL ENERGIES
----------------
                 SPIN UP ORBITALS
  NO   OCC          E(Eh)            E(eV)
   0   1.0000    -261.548800     -7117.1047
   1   1.0000    -104.774174     -2851.0502
   2   1.0000    -104.771952     -2850.9898
   3   1.0000    -104.771425     -2850.9754
   4   1.0000     -32.216702      -876.6610
   5   1.0000     -27.692742      -753.5578
   6   1.0000     -27.692301      -753.5458
   7   1.0000     -27.692117      -753.5408
   8   1.0000     -20.556030      -559.3580
   9   1.0000     -11.378879      -309.6350
  10   1.0000     -11.364328      -309.2391
  11   1.0000     -11.290443      -307.2286
  12   1.0000     -11.281922      -306.9967
  13   1.0000     -11.265162      -306.5406
  14   1.0000     -11.253981      -306.2364
  15   1.0000     -11.250532      -306.1425
  16   1.0000     -11.246604      -306.0357
  17   1.0000     -10.500797      -285.7412
  18   1.0000     -10.498534      -285.6796
  19   1.0000     -10.498046      -285.6663
  20   1.0000      -7.967664      -216.8112
  21   1.0000      -7.966847      -216.7889
  22   1.0000      -7.966803      -216.7877
  23   1.0000      -7.965356      -216.7484
  24   1.0000      -7.964894      -216.7358
  25   1.0000      -7.964646      -216.7290
  26   1.0000      -7.964553      -216.7265
  27   1.0000      -7.964145      -216.7154
  28   1.0000      -7.964066      -216.7133
  29   1.0000      -4.572074      -124.4124
  30   1.0000      -3.184767       -86.6619
  31   1.0000      -3.184049       -86.6424
  32   1.0000      -3.183594       -86.6300
  33   1.0000      -1.396691       -38.0059
  34   1.0000      -1.184289       -32.2261
  35   1.0000      -1.081378       -29.4258
  36   1.0000      -1.045982       -28.4626
  37   1.0000      -1.045022       -28.4365
  38   1.0000      -1.040073       -28.3018
  39   1.0000      -1.038259       -28.2525
  40   1.0000      -1.006896       -27.3990
  41   1.0000      -0.979122       -26.6433
  42   1.0000      -0.928773       -25.2732
  43   1.0000      -0.915168       -24.9030
  44   1.0000      -0.901504       -24.5312
  45   1.0000      -0.901469       -24.5302
  46   1.0000      -0.892391       -24.2832
  47   1.0000      -0.892006       -24.2727
  48   1.0000      -0.789793       -21.4913
  49   1.0000      -0.768851       -20.9215
  50   1.0000      -0.700378       -19.0582
  51   1.0000      -0.692247       -18.8370
  52   1.0000      -0.669014       -18.2048
  53   1.0000      -0.662126       -18.0174
  54   1.0000      -0.654390       -17.8069
  55   1.0000      -0.629307       -17.1243
  56   1.0000      -0.602567       -16.3967
  57   1.0000      -0.596658       -16.2359
  58   1.0000      -0.592419       -16.1206
  59   1.0000      -0.577870       -15.7246
  60   1.0000      -0.575329       -15.6555
  61   1.0000      -0.564424       -15.3588
  62   1.0000      -0.558053       -15.1854
  63   1.0000      -0.541926       -14.7466
  64   1.0000      -0.534157       -14.5352
  65   1.0000      -0.523072       -14.2335
  66   1.0000      -0.509729       -13.8704
  67   1.0000      -0.472705       -12.8629
  68   1.0000      -0.460800       -12.5390
  69   1.0000      -0.449070       -12.2198
  70   1.0000      -0.427381       -11.6296
  71   1.0000      -0.424324       -11.5464
  72   1.0000      -0.420910       -11.4535
  73   1.0000      -0.412909       -11.2358
  74   1.0000      -0.410987       -11.1835
  75   1.0000      -0.410568       -11.1721
  76   1.0000      -0.396430       -10.7874
  77   0.0000       0.005563         0.1514
  78   0.0000       0.014663         0.3990
  79   0.0000       0.018979         0.5164
  80   0.0000       0.020407         0.5553
  81   0.0000       0.029156         0.7934

                 SPIN DOWN ORBITALS
  NO   OCC          E(Eh)            E(eV)
   0   1.0000    -261.545246     -7117.0080
   1   1.0000    -104.772778     -2851.0122
   2   1.0000    -104.770550     -2850.9516
   3   1.0000    -104.769980     -2850.9361
   4   1.0000     -32.054631      -872.2509
   5   1.0000     -27.532653      -749.2016
   6   1.0000     -27.532530      -749.1982
   7   1.0000     -27.532135      -749.1875
   8   1.0000     -20.551013      -559.2215
   9   1.0000     -11.378853      -309.6343
  10   1.0000     -11.364137      -309.2339
  11   1.0000     -11.290471      -307.2293
  12   1.0000     -11.281816      -306.9938
  13   1.0000     -11.265196      -306.5416
  14   1.0000     -11.253875      -306.2335
  15   1.0000     -11.250557      -306.1432
  16   1.0000     -11.246584      -306.0351
  17   1.0000     -10.499297      -285.7004
  18   1.0000     -10.497035      -285.6388
  19   1.0000     -10.496498      -285.6242
  20   1.0000      -7.965188      -216.7438
  21   1.0000      -7.964607      -216.7280
  22   1.0000      -7.964534      -216.7260
  23   1.0000      -7.963001      -216.6843
  24   1.0000      -7.962429      -216.6687
  25   1.0000      -7.962312      -216.6655
  26   1.0000      -7.962209      -216.6627
  27   1.0000      -7.961758      -216.6505
  28   1.0000      -7.961674      -216.6482
  29   1.0000      -4.129776      -112.3769
  30   1.0000      -2.651561       -72.1526
  31   1.0000      -2.651512       -72.1513
  32   1.0000      -2.650701       -72.1292
  33   1.0000      -1.383878       -37.6572
  34   1.0000      -1.183270       -32.1984
  35   1.0000      -1.078759       -29.3545
  36   1.0000      -1.044796       -28.4303
  37   1.0000      -1.030895       -28.0521
  38   1.0000      -1.019334       -27.7375
  39   1.0000      -1.017726       -27.6937
  40   1.0000      -1.006666       -27.3928
  41   1.0000      -0.978420       -26.6242
  42   1.0000      -0.927560       -25.2402
  43   1.0000      -0.801296       -21.8044
  44   1.0000      -0.771275       -20.9875
  45   1.0000      -0.700983       -19.0747
  46   1.0000      -0.691588       -18.8191
  47   1.0000      -0.669866       -18.2280
  48   1.0000      -0.663378       -18.0514
  49   1.0000      -0.653064       -17.7708
  50   1.0000      -0.628795       -17.1104
  51   1.0000      -0.602578       -16.3970
  52   1.0000      -0.596335       -16.2271
  53   1.0000      -0.591582       -16.0978
  54   1.0000      -0.577811       -15.7230
  55   1.0000      -0.574897       -15.6437
  56   1.0000      -0.563896       -15.3444
  57   1.0000      -0.558001       -15.1840
  58   1.0000      -0.540963       -14.7203
  59   1.0000      -0.533759       -14.5243
  60   1.0000      -0.518866       -14.1190
  61   1.0000      -0.502074       -13.6621
  62   1.0000      -0.470477       -12.8023
  63   1.0000      -0.464445       -12.6382
  64   1.0000      -0.458397       -12.4736
  65   1.0000      -0.435419       -11.8484
  66   1.0000      -0.432540       -11.7700
  67   1.0000      -0.430710       -11.7202
  68   1.0000      -0.423151       -11.5145
  69   1.0000      -0.410363       -11.1665
  70   1.0000      -0.396772       -10.7967
  71   1.0000      -0.391062       -10.6413
  72   0.0000       0.005572         0.1516
  73   0.0000       0.014499         0.3945
  74   0.0000       0.018983         0.5165
  75   0.0000       0.020357         0.5539
  76   0.0000       0.029126         0.7925

E(0)                                       ...  -3028.427183090
E(0)                                       ...  -3028.427183090
E(CORR)(strong-pairs)                      ...     -2.875702614
E(CORR)(weak-pairs)                        ...     -0.035354258
E(CORR)(corrected)                         ...     -2.911056873
E(TOT)                                     ...  -3031.338239963
E(CCSD(T))                                 ...  -3031.458626056
FINAL SINGLE POINT ENERGY     -3031.458626055918

DIPOLE MOMENT
-------------
                                X             Y             Z
Electronic contribution:     42.43315       6.52517      -1.07624
Nuclear contribution   :    -47.67653      -6.96454       0.94485
                        -----------------------------------------
Total Dipole Moment    :     -5.24338      -0.43937      -0.13139
                        -----------------------------------------
Magnitude (a.u.)       :      5.26339
Magnitude (Debye)      :     13.37848

Rotational constants in cm-1:     0.019660     0.010493     0.010005
Rotational constants in MHz :   589.398713   314.568046   299.949567

                             ****ORCA TERMINATED NORMALLY****
TOTAL RUN TIME: 0 days 21 hours 3 minutes 25 seconds 733 msec
