                         Program Version 4.1.2  - RELEASE  -
|  1> ! aug-cc-pVTZ aug-cc-pVTZ/C DLPNO-CCSD(T1) TightSCF NormalPNO UNO MiniPrint AutoAux
|  2> %pal nproc 10 end
|  3> %maxcore 20000
|  4> %mdci
|  5>      density none
|  6> end
|  7>
|  8> * xyz 0 6
|  9>  O     -0.40606300     -0.18207600     -0.51813900
| 10>  C     -1.40260600     -1.21283800     -0.36922900
| 11>  C     -2.81845500     -0.11602500     -0.18931600
| 12>  C     -1.97025400      1.12137400     -0.27977500
| 13>  C     -1.87301300      1.83822500     -1.57580500
| 14> Fe      1.37635700      0.04539300      0.03929900
| 15> Cl      1.83605800      2.02262200     -0.84059100
| 16>  C     -1.56756100      1.85932400      0.94291000
| 17> Cl      2.47887100     -1.68891800     -0.72634200
| 18> Cl      1.34985600      0.14950400      2.25093300
| 19>  H     -3.41779000     -0.23108800     -1.09533500
| 20>  H     -2.43136400      2.47678400      1.23831200
| 21>  H     -1.32837300      1.19831000      1.77629900
| 22>  H     -0.72219200      2.52241700      0.74794900
| 23>  H     -2.66534900      2.60481300     -1.57809500
| 24>  H     -0.90885200      2.34425800     -1.67204100
| 25>  H     -2.03953800      1.17435200     -2.42550600
| 26>  C     -3.65580500     -0.31841800      1.06077200
| 27>  H     -4.44484000      0.43958600      1.13829600
| 28>  H     -4.14475400     -1.29639400      1.02097200
| 29>  H     -3.06129100     -0.28113600      1.97653800
| 30>  C     -1.17354800     -2.06079900      0.85942200
| 31>  H     -1.99020800     -2.77565400      1.00065900
| 32>  H     -0.24427500     -2.62804200      0.72404400
| 33>  H     -1.05931100     -1.45514500      1.76022800
| 34>  C     -1.50871300     -2.00967200     -1.64963300
| 35>  H     -0.55807000     -2.52922500     -1.81948700
| 36>  H     -2.31034000     -2.75335200     -1.58677500
| 37>  H     -1.69181900     -1.35566000     -2.50679100
| 38> *
| 39>
| 40>
| 41>                          ****END OF INPUT****

CARTESIAN COORDINATES (ANGSTROEM)
---------------------------------
  O     -0.406063   -0.182076   -0.518139
  C     -1.402606   -1.212838   -0.369229
  C     -2.818455   -0.116025   -0.189316
  C     -1.970254    1.121374   -0.279775
  C     -1.873013    1.838225   -1.575805
  Fe     1.376357    0.045393    0.039299
  Cl     1.836058    2.022622   -0.840591
  C     -1.567561    1.859324    0.942910
  Cl     2.478871   -1.688918   -0.726342
  Cl     1.349856    0.149504    2.250933
  H     -3.417790   -0.231088   -1.095335
  H     -2.431364    2.476784    1.238312
  H     -1.328373    1.198310    1.776299
  H     -0.722192    2.522417    0.747949
  H     -2.665349    2.604813   -1.578095
  H     -0.908852    2.344258   -1.672041
  H     -2.039538    1.174352   -2.425506
  C     -3.655805   -0.318418    1.060772
  H     -4.444840    0.439586    1.138296
  H     -4.144754   -1.296394    1.020972
  H     -3.061291   -0.281136    1.976538
  C     -1.173548   -2.060799    0.859422
  H     -1.990208   -2.775654    1.000659
  H     -0.244275   -2.628042    0.724044
  H     -1.059311   -1.455145    1.760228
  C     -1.508713   -2.009672   -1.649633
  H     -0.558070   -2.529225   -1.819487
  H     -2.310340   -2.753352   -1.586775
  H     -1.691819   -1.355660   -2.506791

ORBITAL ENERGIES
----------------
                 SPIN UP ORBITALS
  NO   OCC          E(Eh)            E(eV)
   0   1.0000    -261.550185     -7117.1424
   1   1.0000    -104.777943     -2851.1528
   2   1.0000    -104.775980     -2851.0994
   3   1.0000    -104.774436     -2851.0573
   4   1.0000     -32.218102      -876.6991
   5   1.0000     -27.694028      -753.5928
   6   1.0000     -27.693813      -753.5870
   7   1.0000     -27.693513      -753.5788
   8   1.0000     -20.561243      -559.4999
   9   1.0000     -11.402205      -310.2698
  10   1.0000     -11.348486      -308.8080
  11   1.0000     -11.291633      -307.2610
  12   1.0000     -11.277227      -306.8689
  13   1.0000     -11.274858      -306.8045
  14   1.0000     -11.261717      -306.4469
  15   1.0000     -11.239683      -305.8473
  16   1.0000     -11.237076      -305.7764
  17   1.0000     -10.504527      -285.8427
  18   1.0000     -10.502639      -285.7913
  19   1.0000     -10.501050      -285.7481
  20   1.0000      -7.971352      -216.9115
  21   1.0000      -7.970611      -216.8914
  22   1.0000      -7.970538      -216.8894
  23   1.0000      -7.969524      -216.8618
  24   1.0000      -7.968684      -216.8389
  25   1.0000      -7.968647      -216.8379
  26   1.0000      -7.967850      -216.8162
  27   1.0000      -7.967166      -216.7976
  28   1.0000      -7.967095      -216.7957
  29   1.0000      -4.573492      -124.4511
  30   1.0000      -3.185917       -86.6932
  31   1.0000      -3.185668       -86.6864
  32   1.0000      -3.185059       -86.6699
  33   1.0000      -1.359611       -36.9969
  34   1.0000      -1.167598       -31.7720
  35   1.0000      -1.085039       -29.5254
  36   1.0000      -1.049269       -28.5521
  37   1.0000      -1.043571       -28.3970
  38   1.0000      -1.041845       -28.3501
  39   1.0000      -1.038491       -28.2588
  40   1.0000      -1.010683       -27.5021
  41   1.0000      -0.967529       -26.3278
  42   1.0000      -0.928641       -25.2696
  43   1.0000      -0.904596       -24.6153
  44   1.0000      -0.902941       -24.5703
  45   1.0000      -0.902153       -24.5488
  46   1.0000      -0.894530       -24.3414
  47   1.0000      -0.893979       -24.3264
  48   1.0000      -0.792084       -21.5537
  49   1.0000      -0.758520       -20.6404
  50   1.0000      -0.695920       -18.9369
  51   1.0000      -0.686165       -18.6715
  52   1.0000      -0.668939       -18.2028
  53   1.0000      -0.638632       -17.3781
  54   1.0000      -0.627775       -17.0826
  55   1.0000      -0.624823       -17.0023
  56   1.0000      -0.598492       -16.2858
  57   1.0000      -0.596138       -16.2217
  58   1.0000      -0.591351       -16.0915
  59   1.0000      -0.580379       -15.7929
  60   1.0000      -0.573359       -15.6019
  61   1.0000      -0.558902       -15.2085
  62   1.0000      -0.546629       -14.8745
  63   1.0000      -0.538414       -14.6510
  64   1.0000      -0.531815       -14.4714
  65   1.0000      -0.521575       -14.1928
  66   1.0000      -0.506610       -13.7856
  67   1.0000      -0.479269       -13.0416
  68   1.0000      -0.464515       -12.6401
  69   1.0000      -0.452949       -12.3254
  70   1.0000      -0.434566       -11.8251
  71   1.0000      -0.427803       -11.6411
  72   1.0000      -0.424095       -11.5402
  73   1.0000      -0.417854       -11.3704
  74   1.0000      -0.415102       -11.2955
  75   1.0000      -0.413841       -11.2612
  76   1.0000      -0.405625       -11.0376
  77   0.0000       0.007978         0.2171
  78   0.0000       0.020188         0.5493
  79   0.0000       0.022414         0.6099
  80   0.0000       0.030864         0.8399
  81   0.0000       0.037368         1.0168

                 SPIN DOWN ORBITALS
  NO   OCC          E(Eh)            E(eV)
   0   1.0000    -261.546634     -7117.0457
   1   1.0000    -104.776607     -2851.1164
   2   1.0000    -104.774591     -2851.0616
   3   1.0000    -104.772981     -2851.0178
   4   1.0000     -32.056131      -872.2917
   5   1.0000     -27.534173      -749.2430
   6   1.0000     -27.534001      -749.2383
   7   1.0000     -27.533581      -749.2268
   8   1.0000     -20.555765      -559.3508
   9   1.0000     -11.402253      -310.2711
  10   1.0000     -11.348346      -308.8042
  11   1.0000     -11.291455      -307.2561
  12   1.0000     -11.277207      -306.8684
  13   1.0000     -11.274867      -306.8047
  14   1.0000     -11.261718      -306.4469
  15   1.0000     -11.239638      -305.8461
  16   1.0000     -11.237062      -305.7760
  17   1.0000     -10.503094      -285.8037
  18   1.0000     -10.501146      -285.7507
  19   1.0000     -10.499495      -285.7058
  20   1.0000      -7.969052      -216.8489
  21   1.0000      -7.968421      -216.8318
  22   1.0000      -7.968350      -216.8298
  23   1.0000      -7.967038      -216.7941
  24   1.0000      -7.966471      -216.7787
  25   1.0000      -7.966407      -216.7769
  26   1.0000      -7.965475      -216.7516
  27   1.0000      -7.964697      -216.7304
  28   1.0000      -7.964642      -216.7289
  29   1.0000      -4.131424      -112.4218
  30   1.0000      -2.653325       -72.2006
  31   1.0000      -2.653210       -72.1975
  32   1.0000      -2.652293       -72.1726
  33   1.0000      -1.345201       -36.6048
  34   1.0000      -1.166186       -31.7335
  35   1.0000      -1.082454       -29.4551
  36   1.0000      -1.037319       -28.2269
  37   1.0000      -1.034637       -28.1539
  38   1.0000      -1.023804       -27.8591
  39   1.0000      -1.021385       -27.7933
  40   1.0000      -1.010309       -27.4919
  41   1.0000      -0.966919       -26.3112
  42   1.0000      -0.922606       -25.1054
  43   1.0000      -0.795174       -21.6378
  44   1.0000      -0.762854       -20.7583
  45   1.0000      -0.696011       -18.9394
  46   1.0000      -0.685701       -18.6589
  47   1.0000      -0.669685       -18.2230
  48   1.0000      -0.639821       -17.4104
  49   1.0000      -0.628028       -17.0895
  50   1.0000      -0.622869       -16.9491
  51   1.0000      -0.598511       -16.2863
  52   1.0000      -0.595198       -16.1962
  53   1.0000      -0.591325       -16.0908
  54   1.0000      -0.578629       -15.7453
  55   1.0000      -0.572965       -15.5912
  56   1.0000      -0.558739       -15.2041
  57   1.0000      -0.543986       -14.8026
  58   1.0000      -0.537806       -14.6344
  59   1.0000      -0.530167       -14.4266
  60   1.0000      -0.516270       -14.0484
  61   1.0000      -0.504003       -13.7146
  62   1.0000      -0.475427       -12.9370
  63   1.0000      -0.468073       -12.7369
  64   1.0000      -0.463094       -12.6014
  65   1.0000      -0.439048       -11.9471
  66   1.0000      -0.435625       -11.8540
  67   1.0000      -0.434100       -11.8125
  68   1.0000      -0.429122       -11.6770
  69   1.0000      -0.413851       -11.2615
  70   1.0000      -0.402098       -10.9416
  71   1.0000      -0.401167       -10.9163
  72   0.0000       0.007952         0.2164
  73   0.0000       0.020081         0.5464
  74   0.0000       0.022394         0.6094
  75   0.0000       0.030907         0.8410
  76   0.0000       0.037322         1.0156

E(0)                                       ...  -3028.429892305
E(0)                                       ...  -3028.429892305
E(CORR)(strong-pairs)                      ...     -2.873384100
E(CORR)(weak-pairs)                        ...     -0.035634881
E(CORR)(corrected)                         ...     -2.909018981
E(TOT)                                     ...  -3031.338911286
E(CCSD(T))                                 ...  -3031.457910428
FINAL SINGLE POINT ENERGY     -3031.457910427983

DIPOLE MOMENT
-------------
                                X             Y             Z
Electronic contribution:     40.14438       3.73333       1.92873
Nuclear contribution   :    -44.70304      -3.28855      -2.34892
                        -----------------------------------------
Total Dipole Moment    :     -4.55866       0.44478      -0.42019
                        -----------------------------------------
Magnitude (a.u.)       :      4.59954
Magnitude (Debye)      :     11.69109

Rotational constants in cm-1:     0.018873     0.012001     0.010782
Rotational constants in MHz :   565.794802   359.767442   323.243884

                             ****ORCA TERMINATED NORMALLY****
TOTAL RUN TIME: 0 days 20 hours 47 minutes 34 seconds 43 msec
