                         Program Version 4.1.2  - RELEASE  -
|  1> ! aug-cc-pVTZ aug-cc-pVTZ/C DLPNO-CCSD(T1) TightSCF NormalPNO UNO MiniPrint AutoAux
|  2> %pal nproc 10 end
|  3> %maxcore 20000
|  4> %mdci
|  5>      density none
|  6> end
|  7>
|  8> * xyz 0 6
|  9>  O     -0.35292500     -0.07424300     -0.51536600
| 10>  C     -1.21917900     -1.03333000     -0.47676100
| 11>  C     -3.15327700      0.04837900     -0.08731600
| 12>  C     -2.22445200      1.04519100     -0.22502600
| 13>  C     -2.01827800      1.72867500     -1.54192600
| 14> Fe      1.45693300      0.05794400      0.05940700
| 15> Cl      2.07800800      1.97973500     -0.79318700
| 16>  C     -1.58836900      1.71620900      0.95561400
| 17> Cl      2.36135200     -1.76212900     -0.78559300
| 18> Cl      1.44130600      0.02910800      2.26303600
| 19>  H     -3.68329600     -0.25517800     -0.98752600
| 20>  H     -2.30455800      2.45427100      1.34411600
| 21>  H     -1.34954000      1.03041600      1.76970600
| 22>  H     -0.67821800      2.24754100      0.67147000
| 23>  H     -2.50388000      2.71266800     -1.47479400
| 24>  H     -0.95844700      1.89968500     -1.74426400
| 25>  H     -2.47863100      1.19213700     -2.37495100
| 26>  C     -3.77538800     -0.40237400      1.20649300
| 27>  H     -4.70402900      0.15805200      1.38020400
| 28>  H     -4.04741700     -1.46242900      1.17850300
| 29>  H     -3.13065800     -0.23793700      2.07254400
| 30>  C     -1.20983700     -1.94262800      0.71724300
| 31>  H     -2.08594600     -2.58989300      0.76347200
| 32>  H     -0.31930000     -2.57654100      0.59023900
| 33>  H     -1.07760800     -1.39217200      1.64904500
| 34>  C     -1.60244700     -1.63937300     -1.79858900
| 35>  H     -0.73830600     -2.25156000     -2.09604800
| 36>  H     -2.48162200     -2.28266200     -1.72761900
| 37>  H     -1.73934700     -0.87761900     -2.56647700
| 38> *
| 39>
| 40>
| 41>                          ****END OF INPUT****

CARTESIAN COORDINATES (ANGSTROEM)
---------------------------------
  O     -0.352925   -0.074243   -0.515366
  C     -1.219179   -1.033330   -0.476761
  C     -3.153277    0.048379   -0.087316
  C     -2.224452    1.045191   -0.225026
  C     -2.018278    1.728675   -1.541926
  Fe     1.456933    0.057944    0.059407
  Cl     2.078008    1.979735   -0.793187
  C     -1.588369    1.716209    0.955614
  Cl     2.361352   -1.762129   -0.785593
  Cl     1.441306    0.029108    2.263036
  H     -3.683296   -0.255178   -0.987526
  H     -2.304558    2.454271    1.344116
  H     -1.349540    1.030416    1.769706
  H     -0.678218    2.247541    0.671470
  H     -2.503880    2.712668   -1.474794
  H     -0.958447    1.899685   -1.744264
  H     -2.478631    1.192137   -2.374951
  C     -3.775388   -0.402374    1.206493
  H     -4.704029    0.158052    1.380204
  H     -4.047417   -1.462429    1.178503
  H     -3.130658   -0.237937    2.072544
  C     -1.209837   -1.942628    0.717243
  H     -2.085946   -2.589893    0.763472
  H     -0.319300   -2.576541    0.590239
  H     -1.077608   -1.392172    1.649045
  C     -1.602447   -1.639373   -1.798589
  H     -0.738306   -2.251560   -2.096048
  H     -2.481622   -2.282662   -1.727619
  H     -1.739347   -0.877619   -2.566477

ORBITAL ENERGIES
----------------
                 SPIN UP ORBITALS
  NO   OCC          E(Eh)            E(eV)
   0   1.0000    -261.563433     -7117.5029
   1   1.0000    -104.784349     -2851.3271
   2   1.0000    -104.784139     -2851.3214
   3   1.0000    -104.783264     -2851.2976
   4   1.0000     -32.231257      -877.0571
   5   1.0000     -27.707484      -753.9590
   6   1.0000     -27.706723      -753.9383
   7   1.0000     -27.706617      -753.9354
   8   1.0000     -20.578418      -559.9672
   9   1.0000     -11.416223      -310.6512
  10   1.0000     -11.315462      -307.9094
  11   1.0000     -11.269098      -306.6477
  12   1.0000     -11.265369      -306.5463
  13   1.0000     -11.259317      -306.3816
  14   1.0000     -11.253204      -306.2153
  15   1.0000     -11.250736      -306.1481
  16   1.0000     -11.247949      -306.0722
  17   1.0000     -10.510928      -286.0169
  18   1.0000     -10.510767      -286.0125
  19   1.0000     -10.509814      -285.9866
  20   1.0000      -7.977789      -217.0867
  21   1.0000      -7.977635      -217.0825
  22   1.0000      -7.977023      -217.0658
  23   1.0000      -7.976938      -217.0635
  24   1.0000      -7.976837      -217.0608
  25   1.0000      -7.976788      -217.0594
  26   1.0000      -7.976604      -217.0544
  27   1.0000      -7.975933      -217.0362
  28   1.0000      -7.975857      -217.0341
  29   1.0000      -4.586547      -124.8063
  30   1.0000      -3.199539       -87.0639
  31   1.0000      -3.198288       -87.0298
  32   1.0000      -3.197906       -87.0195
  33   1.0000      -1.435471       -39.0612
  34   1.0000      -1.150838       -31.3159
  35   1.0000      -1.095722       -29.8161
  36   1.0000      -1.057366       -28.7724
  37   1.0000      -1.051844       -28.6221
  38   1.0000      -1.050547       -28.5868
  39   1.0000      -1.031259       -28.0620
  40   1.0000      -1.005405       -27.3585
  41   1.0000      -0.976568       -26.5738
  42   1.0000      -0.933891       -25.4125
  43   1.0000      -0.916117       -24.9288
  44   1.0000      -0.916011       -24.9259
  45   1.0000      -0.913535       -24.8585
  46   1.0000      -0.906154       -24.6577
  47   1.0000      -0.905616       -24.6431
  48   1.0000      -0.798722       -21.7343
  49   1.0000      -0.748158       -20.3584
  50   1.0000      -0.700875       -19.0718
  51   1.0000      -0.695941       -18.9375
  52   1.0000      -0.687446       -18.7064
  53   1.0000      -0.666282       -18.1305
  54   1.0000      -0.635315       -17.2878
  55   1.0000      -0.619782       -16.8651
  56   1.0000      -0.602215       -16.3871
  57   1.0000      -0.598347       -16.2818
  58   1.0000      -0.582148       -15.8411
  59   1.0000      -0.576574       -15.6894
  60   1.0000      -0.570560       -15.5257
  61   1.0000      -0.567676       -15.4473
  62   1.0000      -0.548464       -14.9245
  63   1.0000      -0.547257       -14.8916
  64   1.0000      -0.542368       -14.7586
  65   1.0000      -0.519420       -14.1341
  66   1.0000      -0.513940       -13.9850
  67   1.0000      -0.491074       -13.3628
  68   1.0000      -0.471742       -12.8367
  69   1.0000      -0.462760       -12.5923
  70   1.0000      -0.439991       -11.9728
  71   1.0000      -0.433719       -11.8021
  72   1.0000      -0.431893       -11.7524
  73   1.0000      -0.424406       -11.5487
  74   1.0000      -0.422247       -11.4899
  75   1.0000      -0.421960       -11.4821
  76   1.0000      -0.364553        -9.9200
  77   0.0000       0.011935         0.3248
  78   0.0000       0.022558         0.6138
  79   0.0000       0.023471         0.6387
  80   0.0000       0.030405         0.8274
  81   0.0000       0.039229         1.0675

                 SPIN DOWN ORBITALS
  NO   OCC          E(Eh)            E(eV)
   0   1.0000    -261.559877     -7117.4061
   1   1.0000    -104.782887     -2851.2873
   2   1.0000    -104.782690     -2851.2820
   3   1.0000    -104.781822     -2851.2583
   4   1.0000     -32.069255      -872.6488
   5   1.0000     -27.547193      -749.5972
   6   1.0000     -27.547144      -749.5959
   7   1.0000     -27.546859      -749.5881
   8   1.0000     -20.574060      -559.8486
   9   1.0000     -11.416085      -310.6475
  10   1.0000     -11.315623      -307.9138
  11   1.0000     -11.269010      -306.6453
  12   1.0000     -11.265346      -306.5456
  13   1.0000     -11.258839      -306.3686
  14   1.0000     -11.253258      -306.2167
  15   1.0000     -11.250704      -306.1472
  16   1.0000     -11.247948      -306.0722
  17   1.0000     -10.509364      -285.9743
  18   1.0000     -10.509215      -285.9703
  19   1.0000     -10.508277      -285.9447
  20   1.0000      -7.975263      -217.0179
  21   1.0000      -7.975118      -217.0140
  22   1.0000      -7.974627      -217.0006
  23   1.0000      -7.974532      -216.9980
  24   1.0000      -7.974477      -216.9966
  25   1.0000      -7.974403      -216.9945
  26   1.0000      -7.974267      -216.9908
  27   1.0000      -7.973484      -216.9695
  28   1.0000      -7.973394      -216.9671
  29   1.0000      -4.144358      -112.7737
  30   1.0000      -2.666028       -72.5463
  31   1.0000      -2.665895       -72.5427
  32   1.0000      -2.665593       -72.5345
  33   1.0000      -1.424388       -38.7596
  34   1.0000      -1.149981       -31.2926
  35   1.0000      -1.093157       -29.7463
  36   1.0000      -1.042357       -28.3640
  37   1.0000      -1.030815       -28.0499
  38   1.0000      -1.030377       -28.0380
  39   1.0000      -1.029533       -28.0150
  40   1.0000      -1.004621       -27.3371
  41   1.0000      -0.976480       -26.5714
  42   1.0000      -0.915579       -24.9142
  43   1.0000      -0.812448       -22.1078
  44   1.0000      -0.748237       -20.3606
  45   1.0000      -0.702362       -19.1122
  46   1.0000      -0.697724       -18.9860
  47   1.0000      -0.685507       -18.6536
  48   1.0000      -0.666261       -18.1299
  49   1.0000      -0.635249       -17.2860
  50   1.0000      -0.619605       -16.8603
  51   1.0000      -0.601616       -16.3708
  52   1.0000      -0.598283       -16.2801
  53   1.0000      -0.581783       -15.8311
  54   1.0000      -0.576136       -15.6775
  55   1.0000      -0.570510       -15.5244
  56   1.0000      -0.567379       -15.4392
  57   1.0000      -0.548057       -14.9134
  58   1.0000      -0.544240       -14.8095
  59   1.0000      -0.541101       -14.7241
  60   1.0000      -0.514307       -13.9950
  61   1.0000      -0.512665       -13.9503
  62   1.0000      -0.488083       -13.2814
  63   1.0000      -0.476018       -12.9531
  64   1.0000      -0.473543       -12.8857
  65   1.0000      -0.446117       -12.1395
  66   1.0000      -0.443630       -12.0718
  67   1.0000      -0.441177       -12.0050
  68   1.0000      -0.427731       -11.6392
  69   1.0000      -0.421425       -11.4675
  70   1.0000      -0.407805       -11.0969
  71   1.0000      -0.363251        -9.8846
  72   0.0000       0.011933         0.3247
  73   0.0000       0.022513         0.6126
  74   0.0000       0.023444         0.6379
  75   0.0000       0.030429         0.8280
  76   0.0000       0.039199         1.0667

E(0)                                       ...  -3028.420764886
E(0)                                       ...  -3028.420764886
E(CORR)(strong-pairs)                      ...     -2.873492065
E(CORR)(weak-pairs)                        ...     -0.036209927
E(CORR)(corrected)                         ...     -2.909701992
E(TOT)                                     ...  -3031.330466878
E(CCSD(T))                                 ...  -3031.450295904
FINAL SINGLE POINT ENERGY     -3031.450295904221

DIPOLE MOMENT
-------------
                                X             Y             Z
Electronic contribution:     42.56674       2.10928       2.15257
Nuclear contribution   :    -46.51325      -2.70468      -2.66583
                        -----------------------------------------
Total Dipole Moment    :     -3.94651      -0.59540      -0.51326
                        -----------------------------------------
Magnitude (a.u.)       :      4.02404
Magnitude (Debye)      :     10.22830

Rotational constants in cm-1:     0.019646     0.011164     0.010463
Rotational constants in MHz :   588.970838   334.696283   313.662292

                             ****ORCA TERMINATED NORMALLY****
TOTAL RUN TIME: 0 days 20 hours 34 minutes 31 seconds 727 msec
