                         Program Version 4.1.2  - RELEASE  -
|  1> ! aug-cc-pVTZ aug-cc-pVTZ/C DLPNO-CCSD(T1) TightSCF NormalPNO UNO MiniPrint AutoAux
|  2> %pal nproc 10 end
|  3> %maxcore 20000
|  4> %mdci
|  5>      density none
|  6> end
|  7>
|  8> * xyz 0 6
|  9>  O      0.22136700      0.35690000     -0.85429000
| 10>  C      0.99849000      1.32260900     -0.66339600
| 11>  C      3.09160700      0.08139900      0.50632900
| 12>  C      2.60363300     -0.95999100     -0.19806200
| 13>  C      3.01770300     -1.20963700     -1.62256200
| 14> Fe     -1.47189900     -0.15408600      0.02042600
| 15> Cl     -2.07871000     -1.98189700     -0.98887700
| 16>  C      1.67255400     -1.99515100      0.36098000
| 17> Cl     -2.68550000      1.61727800     -0.40565700
| 18> Cl     -1.09727400     -0.39003800      2.17051400
| 19>  H      3.81804500      0.72393600      0.00793000
| 20>  H      2.19109700     -2.96182500      0.41980800
| 21>  H      1.29158400     -1.75550300      1.35317100
| 22>  H      0.81848900     -2.14897800     -0.30985800
| 23>  H      3.48968800     -2.19717400     -1.70698500
| 24>  H      2.14184600     -1.22994600     -2.28453900
| 25>  H      3.72943400     -0.46497000     -1.99018300
| 26>  C      2.92325400      0.32404400      1.98255000
| 27>  H      3.74327800     -0.15030900      2.53889900
| 28>  H      2.96193200      1.39177100      2.22112300
| 29>  H      1.98589400     -0.07586800      2.37739800
| 30>  C      0.84377900      2.21385000      0.52833000
| 31>  H      1.73113700      2.82322200      0.70300300
| 32>  H     -0.00005800      2.88216900      0.29962200
| 33>  H      0.57737300      1.65160400      1.42353400
| 34>  C      1.80589700      1.81946300     -1.82391800
| 35>  H      1.20981700      2.62120300     -2.28469900
| 36>  H      2.75696400      2.25206600     -1.51020900
| 37>  H      1.95562500      1.03929300     -2.56794400
| 38> *
| 39>
| 40>
| 41>                          ****END OF INPUT****

CARTESIAN COORDINATES (ANGSTROEM)
---------------------------------
  O      0.221367    0.356900   -0.854290
  C      0.998490    1.322609   -0.663396
  C      3.091607    0.081399    0.506329
  C      2.603633   -0.959991   -0.198062
  C      3.017703   -1.209637   -1.622562
  Fe    -1.471899   -0.154086    0.020426
  Cl    -2.078710   -1.981897   -0.988877
  C      1.672554   -1.995151    0.360980
  Cl    -2.685500    1.617278   -0.405657
  Cl    -1.097274   -0.390038    2.170514
  H      3.818045    0.723936    0.007930
  H      2.191097   -2.961825    0.419808
  H      1.291584   -1.755503    1.353171
  H      0.818489   -2.148978   -0.309858
  H      3.489688   -2.197174   -1.706985
  H      2.141846   -1.229946   -2.284539
  H      3.729434   -0.464970   -1.990183
  C      2.923254    0.324044    1.982550
  H      3.743278   -0.150309    2.538899
  H      2.961932    1.391771    2.221123
  H      1.985894   -0.075868    2.377398
  C      0.843779    2.213850    0.528330
  H      1.731137    2.823222    0.703003
  H     -0.000058    2.882169    0.299622
  H      0.577373    1.651604    1.423534
  C      1.805897    1.819463   -1.823918
  H      1.209817    2.621203   -2.284699
  H      2.756964    2.252066   -1.510209
  H      1.955625    1.039293   -2.567944

ORBITAL ENERGIES
----------------
                 SPIN UP ORBITALS
  NO   OCC          E(Eh)            E(eV)
   0   1.0000    -261.576805     -7117.8667
   1   1.0000    -104.794409     -2851.6008
   2   1.0000    -104.791318     -2851.5167
   3   1.0000    -104.789461     -2851.4662
   4   1.0000     -32.244491      -877.4172
   5   1.0000     -27.720985      -754.3263
   6   1.0000     -27.719823      -754.2947
   7   1.0000     -27.719635      -754.2896
   8   1.0000     -20.621319      -561.1346
   9   1.0000     -11.422035      -310.8094
  10   1.0000     -11.278214      -306.8958
  11   1.0000     -11.272399      -306.7376
  12   1.0000     -11.265199      -306.5416
  13   1.0000     -11.242611      -305.9270
  14   1.0000     -11.241604      -305.8996
  15   1.0000     -11.236801      -305.7689
  16   1.0000     -11.228315      -305.5380
  17   1.0000     -10.521130      -286.2945
  18   1.0000     -10.518013      -286.2097
  19   1.0000     -10.516105      -286.1578
  20   1.0000      -7.987958      -217.3634
  21   1.0000      -7.987211      -217.3431
  22   1.0000      -7.987157      -217.3416
  23   1.0000      -7.984900      -217.2802
  24   1.0000      -7.984106      -217.2586
  25   1.0000      -7.984050      -217.2570
  26   1.0000      -7.982890      -217.2255
  27   1.0000      -7.982233      -217.2076
  28   1.0000      -7.982189      -217.2064
  29   1.0000      -4.599314      -125.1537
  30   1.0000      -3.212454       -87.4153
  31   1.0000      -3.210696       -87.3675
  32   1.0000      -3.210564       -87.3639
  33   1.0000      -1.465959       -39.8908
  34   1.0000      -1.124833       -30.6083
  35   1.0000      -1.101849       -29.9828
  36   1.0000      -1.067647       -29.0521
  37   1.0000      -1.061878       -28.8952
  38   1.0000      -1.059120       -28.8201
  39   1.0000      -1.021555       -27.7979
  40   1.0000      -1.009495       -27.4698
  41   1.0000      -0.957353       -26.0509
  42   1.0000      -0.943384       -25.6708
  43   1.0000      -0.928198       -25.2575
  44   1.0000      -0.928083       -25.2544
  45   1.0000      -0.917321       -24.9616
  46   1.0000      -0.916695       -24.9445
  47   1.0000      -0.895327       -24.3631
  48   1.0000      -0.814755       -22.1706
  49   1.0000      -0.728051       -19.8113
  50   1.0000      -0.713376       -19.4120
  51   1.0000      -0.703510       -19.1435
  52   1.0000      -0.685464       -18.6524
  53   1.0000      -0.653965       -17.7953
  54   1.0000      -0.621707       -16.9175
  55   1.0000      -0.620175       -16.8758
  56   1.0000      -0.604125       -16.4391
  57   1.0000      -0.599716       -16.3191
  58   1.0000      -0.586146       -15.9498
  59   1.0000      -0.579219       -15.7614
  60   1.0000      -0.560858       -15.2617
  61   1.0000      -0.550350       -14.9758
  62   1.0000      -0.548030       -14.9127
  63   1.0000      -0.539240       -14.6735
  64   1.0000      -0.536550       -14.6003
  65   1.0000      -0.525303       -14.2942
  66   1.0000      -0.504279       -13.7221
  67   1.0000      -0.491848       -13.3839
  68   1.0000      -0.477405       -12.9908
  69   1.0000      -0.477069       -12.9817
  70   1.0000      -0.447447       -12.1757
  71   1.0000      -0.441241       -12.0068
  72   1.0000      -0.439446       -11.9579
  73   1.0000      -0.430812       -11.7230
  74   1.0000      -0.429818       -11.6960
  75   1.0000      -0.428605       -11.6629
  76   1.0000      -0.358362        -9.7515
  77   0.0000       0.012725         0.3463
  78   0.0000       0.023725         0.6456
  79   0.0000       0.024433         0.6649
  80   0.0000       0.030705         0.8355
  81   0.0000       0.039404         1.0722

                 SPIN DOWN ORBITALS
  NO   OCC          E(Eh)            E(eV)
   0   1.0000    -261.573223     -7117.7693
   1   1.0000    -104.792920     -2851.5603
   2   1.0000    -104.789761     -2851.4744
   3   1.0000    -104.787895     -2851.4236
   4   1.0000     -32.082507      -873.0094
   5   1.0000     -27.560439      -749.9577
   6   1.0000     -27.560342      -749.9550
   7   1.0000     -27.560247      -749.9525
   8   1.0000     -20.617874      -561.0409
   9   1.0000     -11.421957      -310.8072
  10   1.0000     -11.278107      -306.8929
  11   1.0000     -11.272392      -306.7374
  12   1.0000     -11.265239      -306.5427
  13   1.0000     -11.242542      -305.9251
  14   1.0000     -11.241598      -305.8994
  15   1.0000     -11.236808      -305.7691
  16   1.0000     -11.228325      -305.5382
  17   1.0000     -10.519539      -286.2512
  18   1.0000     -10.516351      -286.1644
  19   1.0000     -10.514442      -286.1125
  20   1.0000      -7.985462      -217.2955
  21   1.0000      -7.984715      -217.2751
  22   1.0000      -7.984675      -217.2741
  23   1.0000      -7.982222      -217.2073
  24   1.0000      -7.981549      -217.1890
  25   1.0000      -7.981456      -217.1865
  26   1.0000      -7.980436      -217.1587
  27   1.0000      -7.979530      -217.1341
  28   1.0000      -7.979449      -217.1319
  29   1.0000      -4.157246      -113.1244
  30   1.0000      -2.678791       -72.8936
  31   1.0000      -2.678754       -72.8926
  32   1.0000      -2.678306       -72.8804
  33   1.0000      -1.457522       -39.6612
  34   1.0000      -1.124527       -30.5999
  35   1.0000      -1.099582       -29.9211
  36   1.0000      -1.051998       -28.6263
  37   1.0000      -1.039427       -28.2843
  38   1.0000      -1.036340       -28.2002
  39   1.0000      -1.020764       -27.7764
  40   1.0000      -1.009076       -27.4584
  41   1.0000      -0.957214       -26.0471
  42   1.0000      -0.895450       -24.3664
  43   1.0000      -0.827280       -22.5114
  44   1.0000      -0.728120       -19.8132
  45   1.0000      -0.715266       -19.4634
  46   1.0000      -0.702693       -19.1212
  47   1.0000      -0.684846       -18.6356
  48   1.0000      -0.653905       -17.7936
  49   1.0000      -0.621177       -16.9031
  50   1.0000      -0.620081       -16.8733
  51   1.0000      -0.603903       -16.4330
  52   1.0000      -0.599634       -16.3169
  53   1.0000      -0.585892       -15.9429
  54   1.0000      -0.577957       -15.7270
  55   1.0000      -0.559936       -15.2366
  56   1.0000      -0.550182       -14.9712
  57   1.0000      -0.546003       -14.8575
  58   1.0000      -0.539220       -14.6729
  59   1.0000      -0.527047       -14.3417
  60   1.0000      -0.523416       -14.2429
  61   1.0000      -0.505973       -13.7682
  62   1.0000      -0.491604       -13.3772
  63   1.0000      -0.485934       -13.2229
  64   1.0000      -0.483540       -13.1578
  65   1.0000      -0.454544       -12.3688
  66   1.0000      -0.451536       -12.2869
  67   1.0000      -0.448540       -12.2054
  68   1.0000      -0.432102       -11.7581
  69   1.0000      -0.429992       -11.7007
  70   1.0000      -0.413964       -11.2645
  71   1.0000      -0.357827        -9.7370
  72   0.0000       0.012709         0.3458
  73   0.0000       0.023702         0.6450
  74   0.0000       0.024396         0.6639
  75   0.0000       0.030642         0.8338
  76   0.0000       0.039306         1.0696

E(0)                                       ...  -3028.465976260
E(0)                                       ...  -3028.465976260
E(CORR)(strong-pairs)                      ...     -2.867436088
E(CORR)(weak-pairs)                        ...     -0.035545647
E(CORR)(corrected)                         ...     -2.902981735
E(TOT)                                     ...  -3031.368957995
E(CCSD(T))                                 ...  -3031.486922891
FINAL SINGLE POINT ENERGY     -3031.486922891139

DIPOLE MOMENT
-------------
                                X             Y             Z
Electronic contribution:    -43.39172      -4.41622       1.78701
Nuclear contribution   :     46.65690       5.85393      -2.42011
                        -----------------------------------------
Total Dipole Moment    :      3.26519       1.43771      -0.63309
                        -----------------------------------------
Magnitude (a.u.)       :      3.62343
Magnitude (Debye)      :      9.21003

Rotational constants in cm-1:     0.018813     0.010785     0.010161
Rotational constants in MHz :   563.994128   323.324473   304.605834

                             ****ORCA TERMINATED NORMALLY****
TOTAL RUN TIME: 0 days 17 hours 28 minutes 19 seconds 216 msec
