                         Program Version 4.1.2  - RELEASE  -
|  1> ! aug-cc-pVTZ aug-cc-pVTZ/C DLPNO-CCSD(T1) TightSCF NormalPNO UNO MiniPrint AutoAux
|  2> %pal nproc 10 end
|  3> %maxcore 20000
|  4> %mdci
|  5>      density none
|  6> end
|  7>
|  8> * xyz 0 6
|  9>  O     -0.29285000     -0.20839500     -0.78051600
| 10>  C     -1.16226900     -1.13472900     -0.62999200
| 11>  C     -2.90220000     -0.20118800      0.44873000
| 12>  C     -2.51282200      0.97374900     -0.12152300
| 13>  C     -2.96549300      1.38362700     -1.48897700
| 14> Fe      1.43634400      0.12256100      0.00297900
| 15> Cl      2.04607100      2.04624700     -0.83637700
| 16>  C     -1.61326800      1.95628700      0.55335700
| 17> Cl      2.61228700     -1.61418400     -0.63596700
| 18> Cl      1.17145200      0.17571400      2.19564800
| 19>  H     -3.65185500     -0.78136500     -0.08610500
| 20>  H     -2.19351800      2.85858600      0.79244200
| 21>  H     -1.16403000      1.58620700      1.47337800
| 22>  H     -0.81316200      2.27200100     -0.12622900
| 23>  H     -3.41478400      2.38332800     -1.43610300
| 24>  H     -2.10235800      1.46916600     -2.16216200
| 25>  H     -3.70143700      0.70081500     -1.91911400
| 26>  C     -2.78265500     -0.50629900      1.92358100
| 27>  H     -3.56621700      0.03316300      2.47113200
| 28>  H     -2.92750100     -1.57037900      2.12448700
| 29>  H     -1.82102500     -0.20870800      2.34774500
| 30>  C     -0.91092000     -2.21031100      0.39484600
| 31>  H     -1.77910000     -2.85317500      0.54656100
| 32>  H     -0.09649600     -2.81906700     -0.02394400
| 33>  H     -0.55821000     -1.80781100      1.34350500
| 34>  C     -1.86864900     -1.58622500     -1.88647200
| 35>  H     -1.15521600     -2.24733300     -2.39751100
| 36>  H     -2.77399900     -2.15970100     -1.68058200
| 37>  H     -2.08037300     -0.75683600     -2.55830200
| 38> *
| 39>
| 40>
| 41>                          ****END OF INPUT****

CARTESIAN COORDINATES (ANGSTROEM)
---------------------------------
  O     -0.292850   -0.208395   -0.780516
  C     -1.162269   -1.134729   -0.629992
  C     -2.902200   -0.201188    0.448730
  C     -2.512822    0.973749   -0.121523
  C     -2.965493    1.383627   -1.488977
  Fe     1.436344    0.122561    0.002979
  Cl     2.046071    2.046247   -0.836377
  C     -1.613268    1.956287    0.553357
  Cl     2.612287   -1.614184   -0.635967
  Cl     1.171452    0.175714    2.195648
  H     -3.651855   -0.781365   -0.086105
  H     -2.193518    2.858586    0.792442
  H     -1.164030    1.586207    1.473378
  H     -0.813162    2.272001   -0.126229
  H     -3.414784    2.383328   -1.436103
  H     -2.102358    1.469166   -2.162162
  H     -3.701437    0.700815   -1.919114
  C     -2.782655   -0.506299    1.923581
  H     -3.566217    0.033163    2.471132
  H     -2.927501   -1.570379    2.124487
  H     -1.821025   -0.208708    2.347745
  C     -0.910920   -2.210311    0.394846
  H     -1.779100   -2.853175    0.546561
  H     -0.096496   -2.819067   -0.023944
  H     -0.558210   -1.807811    1.343505
  C     -1.868649   -1.586225   -1.886472
  H     -1.155216   -2.247333   -2.397511
  H     -2.773999   -2.159701   -1.680582
  H     -2.080373   -0.756836   -2.558302

ORBITAL ENERGIES
----------------
                 SPIN UP ORBITALS
  NO   OCC          E(Eh)            E(eV)
   0   1.0000    -261.565758     -7117.5661
   1   1.0000    -104.787239     -2851.4057
   2   1.0000    -104.783340     -2851.2996
   3   1.0000    -104.782428     -2851.2748
   4   1.0000     -32.233569      -877.1200
   5   1.0000     -27.709815      -754.0224
   6   1.0000     -27.709047      -754.0015
   7   1.0000     -27.708867      -753.9966
   8   1.0000     -20.590309      -560.2908
   9   1.0000     -11.413375      -310.5737
  10   1.0000     -11.303723      -307.5899
  11   1.0000     -11.269641      -306.6625
  12   1.0000     -11.263329      -306.4908
  13   1.0000     -11.259237      -306.3794
  14   1.0000     -11.257629      -306.3357
  15   1.0000     -11.245167      -305.9965
  16   1.0000     -11.241786      -305.9045
  17   1.0000     -10.513908      -286.0980
  18   1.0000     -10.509999      -285.9916
  19   1.0000     -10.509044      -285.9656
  20   1.0000      -7.980770      -217.1678
  21   1.0000      -7.979955      -217.1456
  22   1.0000      -7.979920      -217.1447
  23   1.0000      -7.976866      -217.0615
  24   1.0000      -7.976095      -217.0406
  25   1.0000      -7.976031      -217.0388
  26   1.0000      -7.975846      -217.0338
  27   1.0000      -7.975160      -217.0151
  28   1.0000      -7.975100      -217.0135
  29   1.0000      -4.588658      -124.8637
  30   1.0000      -3.201564       -87.1190
  31   1.0000      -3.200325       -87.0853
  32   1.0000      -3.200067       -87.0783
  33   1.0000      -1.436790       -39.0970
  34   1.0000      -1.149224       -31.2720
  35   1.0000      -1.092350       -29.7243
  36   1.0000      -1.059188       -28.8220
  37   1.0000      -1.053439       -28.6655
  38   1.0000      -1.050802       -28.5938
  39   1.0000      -1.031560       -28.0702
  40   1.0000      -1.000994       -27.2384
  41   1.0000      -0.974541       -26.5186
  42   1.0000      -0.933735       -25.4082
  43   1.0000      -0.917773       -24.9739
  44   1.0000      -0.917704       -24.9720
  45   1.0000      -0.911787       -24.8110
  46   1.0000      -0.907840       -24.7036
  47   1.0000      -0.907110       -24.6837
  48   1.0000      -0.800746       -21.7894
  49   1.0000      -0.746535       -20.3142
  50   1.0000      -0.697395       -18.9771
  51   1.0000      -0.690233       -18.7822
  52   1.0000      -0.684096       -18.6152
  53   1.0000      -0.667339       -18.1592
  54   1.0000      -0.635869       -17.3029
  55   1.0000      -0.622288       -16.9333
  56   1.0000      -0.604601       -16.4520
  57   1.0000      -0.596419       -16.2294
  58   1.0000      -0.582817       -15.8593
  59   1.0000      -0.573994       -15.6192
  60   1.0000      -0.565120       -15.3777
  61   1.0000      -0.557851       -15.1799
  62   1.0000      -0.553045       -15.0491
  63   1.0000      -0.548251       -14.9187
  64   1.0000      -0.539289       -14.6748
  65   1.0000      -0.526488       -14.3265
  66   1.0000      -0.509526       -13.8649
  67   1.0000      -0.491061       -13.3625
  68   1.0000      -0.470676       -12.8077
  69   1.0000      -0.467194       -12.7130
  70   1.0000      -0.438975       -11.9451
  71   1.0000      -0.434400       -11.8206
  72   1.0000      -0.432720       -11.7749
  73   1.0000      -0.423894       -11.5347
  74   1.0000      -0.422722       -11.5029
  75   1.0000      -0.421748       -11.4763
  76   1.0000      -0.371463       -10.1080
  77   0.0000       0.011674         0.3177
  78   0.0000       0.021920         0.5965
  79   0.0000       0.023055         0.6273
  80   0.0000       0.030033         0.8173
  81   0.0000       0.038148         1.0381

                 SPIN DOWN ORBITALS
  NO   OCC          E(Eh)            E(eV)
   0   1.0000    -261.562197     -7117.4692
   1   1.0000    -104.785818     -2851.3671
   2   1.0000    -104.781829     -2851.2585
   3   1.0000    -104.780941     -2851.2343
   4   1.0000     -32.071523      -872.7105
   5   1.0000     -27.549463      -749.6590
   6   1.0000     -27.549405      -749.6574
   7   1.0000     -27.549162      -749.6508
   8   1.0000     -20.586182      -560.1785
   9   1.0000     -11.413296      -310.5716
  10   1.0000     -11.303600      -307.5866
  11   1.0000     -11.269528      -306.6594
  12   1.0000     -11.263315      -306.4904
  13   1.0000     -11.259217      -306.3789
  14   1.0000     -11.257645      -306.3361
  15   1.0000     -11.245168      -305.9966
  16   1.0000     -11.241824      -305.9056
  17   1.0000     -10.512385      -286.0565
  18   1.0000     -10.508384      -285.9477
  19   1.0000     -10.507460      -285.9225
  20   1.0000      -7.978274      -217.0999
  21   1.0000      -7.977657      -217.0831
  22   1.0000      -7.977602      -217.0816
  23   1.0000      -7.974282      -216.9913
  24   1.0000      -7.973604      -216.9728
  25   1.0000      -7.973516      -216.9704
  26   1.0000      -7.973442      -216.9684
  27   1.0000      -7.972633      -216.9464
  28   1.0000      -7.972547      -216.9440
  29   1.0000      -4.146397      -112.8292
  30   1.0000      -2.668034       -72.6009
  31   1.0000      -2.668018       -72.6005
  32   1.0000      -2.667327       -72.5816
  33   1.0000      -1.426391       -38.8141
  34   1.0000      -1.148626       -31.2557
  35   1.0000      -1.089702       -29.6523
  36   1.0000      -1.044297       -28.4168
  37   1.0000      -1.032353       -28.0918
  38   1.0000      -1.030898       -28.0522
  39   1.0000      -1.028862       -27.9968
  40   1.0000      -1.000186       -27.2164
  41   1.0000      -0.974426       -26.5155
  42   1.0000      -0.912346       -24.8262
  43   1.0000      -0.814009       -22.1503
  44   1.0000      -0.746655       -20.3175
  45   1.0000      -0.700176       -19.0528
  46   1.0000      -0.689749       -18.7690
  47   1.0000      -0.682992       -18.5852
  48   1.0000      -0.667035       -18.1510
  49   1.0000      -0.635782       -17.3005
  50   1.0000      -0.621784       -16.9196
  51   1.0000      -0.604048       -16.4370
  52   1.0000      -0.596380       -16.2283
  53   1.0000      -0.582608       -15.8536
  54   1.0000      -0.573086       -15.5945
  55   1.0000      -0.564889       -15.3714
  56   1.0000      -0.557728       -15.1765
  57   1.0000      -0.552761       -15.0414
  58   1.0000      -0.545719       -14.8498
  59   1.0000      -0.538038       -14.6408
  60   1.0000      -0.515904       -14.0385
  61   1.0000      -0.509287       -13.8584
  62   1.0000      -0.491010       -13.3611
  63   1.0000      -0.477473       -12.9927
  64   1.0000      -0.475550       -12.9404
  65   1.0000      -0.447232       -12.1698
  66   1.0000      -0.444333       -12.0909
  67   1.0000      -0.441836       -12.0230
  68   1.0000      -0.426405       -11.6031
  69   1.0000      -0.422515       -11.4972
  70   1.0000      -0.407776       -11.0962
  71   1.0000      -0.369849       -10.0641
  72   0.0000       0.011662         0.3173
  73   0.0000       0.021896         0.5958
  74   0.0000       0.023038         0.6269
  75   0.0000       0.029945         0.8148
  76   0.0000       0.037856         1.0301

E(0)                                       ...  -3028.440114572
E(0)                                       ...  -3028.440114572
E(CORR)(strong-pairs)                      ...     -2.873221188
E(CORR)(weak-pairs)                        ...     -0.036013542
E(CORR)(corrected)                         ...     -2.909234730
E(TOT)                                     ...  -3031.349349302
E(CCSD(T))                                 ...  -3031.468912384
FINAL SINGLE POINT ENERGY     -3031.468912383742

DIPOLE MOMENT
-------------
                                X             Y             Z
Electronic contribution:     41.94579       4.21112       1.68037
Nuclear contribution   :    -45.90237      -5.05163      -2.26363
                        -----------------------------------------
Total Dipole Moment    :     -3.95658      -0.84051      -0.58326
                        -----------------------------------------
Magnitude (a.u.)       :      4.08671
Magnitude (Debye)      :     10.38759

Rotational constants in cm-1:     0.019103     0.011175     0.010509
Rotational constants in MHz :   572.697159   335.017731   315.047801

                             ****ORCA TERMINATED NORMALLY****
TOTAL RUN TIME: 0 days 19 hours 15 minutes 21 seconds 662 msec
