                         Program Version 4.1.2  - RELEASE  -
|  1> ! aug-cc-pVTZ aug-cc-pVTZ/C DLPNO-CCSD(T1) TightSCF NormalPNO UNO MiniPrint AutoAux
|  2> %pal nproc 10 end
|  3> %maxcore 20000
|  4> %mdci
|  5>      density none
|  6> end
|  7>
|  8> * xyz 0 6
|  9>  O     -0.27270400     -0.24227100     -0.79200100
| 10>  C     -1.14345000     -1.16264500     -0.62587000
| 11>  C     -2.84882600     -0.25387600      0.52666200
| 12>  C     -2.59754700      0.93689600     -0.08866400
| 13>  C     -3.18945200      1.28123100     -1.42148400
| 14> Fe      1.44894100      0.13961600     -0.01224800
| 15> Cl      2.02184600      2.05317300     -0.89851500
| 16>  C     -1.68996600      1.97688600      0.47935800
| 17> Cl      2.65914200     -1.58913900     -0.60295500
| 18> Cl      1.17097300      0.25143000      2.17437400
| 19>  H     -3.59820600     -0.89341700      0.06335300
| 20>  H     -2.23365000      2.92517000      0.58095800
| 21>  H     -1.26325700      1.71273000      1.44556600
| 22>  H     -0.86626400      2.16844900     -0.22133900
| 23>  H     -3.74236000      2.22562600     -1.33860800
| 24>  H     -2.39619800      1.45341300     -2.16113800
| 25>  H     -3.87553300      0.51714900     -1.79333500
| 26>  C     -2.60622700     -0.50891700      1.99735000
| 27>  H     -3.35476800      0.03454600      2.58782300
| 28>  H     -2.71544600     -1.56812600      2.24046100
| 29>  H     -1.61989200     -0.18363900      2.33459500
| 30>  C     -0.86421800     -2.25189100      0.37865200
| 31>  H     -1.73179300     -2.88869900      0.55771100
| 32>  H     -0.07156500     -2.86297100     -0.07637200
| 33>  H     -0.47281100     -1.86173300      1.31733400
| 34>  C     -1.88454300     -1.59453500     -1.86966700
| 35>  H     -1.19657500     -2.26638100     -2.40088800
| 36>  H     -2.79712900     -2.15096500     -1.64943700
| 37>  H     -2.09332900     -0.75478700     -2.52964100
| 38> *
| 39>
| 40>
| 41>                          ****END OF INPUT****

CARTESIAN COORDINATES (ANGSTROEM)
---------------------------------
  O     -0.272704   -0.242271   -0.792001
  C     -1.143450   -1.162645   -0.625870
  C     -2.848826   -0.253876    0.526662
  C     -2.597547    0.936896   -0.088664
  C     -3.189452    1.281231   -1.421484
  Fe     1.448941    0.139616   -0.012248
  Cl     2.021846    2.053173   -0.898515
  C     -1.689966    1.976886    0.479358
  Cl     2.659142   -1.589139   -0.602955
  Cl     1.170973    0.251430    2.174374
  H     -3.598206   -0.893417    0.063353
  H     -2.233650    2.925170    0.580958
  H     -1.263257    1.712730    1.445566
  H     -0.866264    2.168449   -0.221339
  H     -3.742360    2.225626   -1.338608
  H     -2.396198    1.453413   -2.161138
  H     -3.875533    0.517149   -1.793335
  C     -2.606227   -0.508917    1.997350
  H     -3.354768    0.034546    2.587823
  H     -2.715446   -1.568126    2.240461
  H     -1.619892   -0.183639    2.334595
  C     -0.864218   -2.251891    0.378652
  H     -1.731793   -2.888699    0.557711
  H     -0.071565   -2.862971   -0.076372
  H     -0.472811   -1.861733    1.317334
  C     -1.884543   -1.594535   -1.869667
  H     -1.196575   -2.266381   -2.400888
  H     -2.797129   -2.150965   -1.649437
  H     -2.093329   -0.754787   -2.529641

ORBITAL ENERGIES
----------------
                 SPIN UP ORBITALS
  NO   OCC          E(Eh)            E(eV)
   0   1.0000    -261.565658     -7117.5634
   1   1.0000    -104.787423     -2851.4108
   2   1.0000    -104.783383     -2851.3008
   3   1.0000    -104.782139     -2851.2670
   4   1.0000     -32.233476      -877.1175
   5   1.0000     -27.709737      -754.0203
   6   1.0000     -27.708945      -753.9987
   7   1.0000     -27.708760      -753.9937
   8   1.0000     -20.592419      -560.3482
   9   1.0000     -11.412995      -310.5634
  10   1.0000     -11.302820      -307.5654
  11   1.0000     -11.269724      -306.6648
  12   1.0000     -11.264140      -306.5128
  13   1.0000     -11.259419      -306.3844
  14   1.0000     -11.258833      -306.3684
  15   1.0000     -11.243014      -305.9380
  16   1.0000     -11.241954      -305.9091
  17   1.0000     -10.514105      -286.1033
  18   1.0000     -10.510049      -285.9930
  19   1.0000     -10.508757      -285.9578
  20   1.0000      -7.980965      -217.1731
  21   1.0000      -7.980154      -217.1510
  22   1.0000      -7.980122      -217.1502
  23   1.0000      -7.976910      -217.0627
  24   1.0000      -7.976148      -217.0420
  25   1.0000      -7.976088      -217.0404
  26   1.0000      -7.975563      -217.0261
  27   1.0000      -7.974875      -217.0074
  28   1.0000      -7.974813      -217.0057
  29   1.0000      -4.588580      -124.8616
  30   1.0000      -3.201519       -87.1178
  31   1.0000      -3.200221       -87.0824
  32   1.0000      -3.199984       -87.0760
  33   1.0000      -1.437377       -39.1130
  34   1.0000      -1.148605       -31.2551
  35   1.0000      -1.091802       -29.7094
  36   1.0000      -1.059393       -28.8276
  37   1.0000      -1.053532       -28.6681
  38   1.0000      -1.050661       -28.5899
  39   1.0000      -1.030915       -28.0526
  40   1.0000      -1.000840       -27.2342
  41   1.0000      -0.974851       -26.5271
  42   1.0000      -0.933811       -25.4103
  43   1.0000      -0.917690       -24.9716
  44   1.0000      -0.917625       -24.9698
  45   1.0000      -0.910698       -24.7813
  46   1.0000      -0.907672       -24.6990
  47   1.0000      -0.906982       -24.6802
  48   1.0000      -0.801366       -21.8063
  49   1.0000      -0.746849       -20.3228
  50   1.0000      -0.697138       -18.9701
  51   1.0000      -0.689249       -18.7554
  52   1.0000      -0.683094       -18.5879
  53   1.0000      -0.667555       -18.1651
  54   1.0000      -0.635619       -17.2961
  55   1.0000      -0.622705       -16.9447
  56   1.0000      -0.604865       -16.4592
  57   1.0000      -0.595709       -16.2101
  58   1.0000      -0.582496       -15.8505
  59   1.0000      -0.574619       -15.6362
  60   1.0000      -0.564626       -15.3642
  61   1.0000      -0.558475       -15.1969
  62   1.0000      -0.553385       -15.0584
  63   1.0000      -0.545948       -14.8560
  64   1.0000      -0.538313       -14.6483
  65   1.0000      -0.527020       -14.3409
  66   1.0000      -0.509385       -13.8611
  67   1.0000      -0.491202       -13.3663
  68   1.0000      -0.470766       -12.8102
  69   1.0000      -0.467307       -12.7161
  70   1.0000      -0.439073       -11.9478
  71   1.0000      -0.434476       -11.8227
  72   1.0000      -0.432657       -11.7732
  73   1.0000      -0.423908       -11.5351
  74   1.0000      -0.422657       -11.5011
  75   1.0000      -0.421612       -11.4727
  76   1.0000      -0.371901       -10.1199
  77   0.0000       0.011572         0.3149
  78   0.0000       0.021798         0.5932
  79   0.0000       0.023139         0.6296
  80   0.0000       0.029705         0.8083
  81   0.0000       0.037907         1.0315

                 SPIN DOWN ORBITALS
  NO   OCC          E(Eh)            E(eV)
   0   1.0000    -261.562095     -7117.4665
   1   1.0000    -104.785994     -2851.3719
   2   1.0000    -104.781868     -2851.2596
   3   1.0000    -104.780646     -2851.2263
   4   1.0000     -32.071431      -872.7080
   5   1.0000     -27.549368      -749.6564
   6   1.0000     -27.549308      -749.6548
   7   1.0000     -27.549078      -749.6485
   8   1.0000     -20.588326      -560.2368
   9   1.0000     -11.412914      -310.5612
  10   1.0000     -11.302665      -307.5611
  11   1.0000     -11.269611      -306.6617
  12   1.0000     -11.264125      -306.5124
  13   1.0000     -11.259444      -306.3851
  14   1.0000     -11.258854      -306.3690
  15   1.0000     -11.243009      -305.9378
  16   1.0000     -11.241993      -305.9102
  17   1.0000     -10.512573      -286.0617
  18   1.0000     -10.508431      -285.9489
  19   1.0000     -10.507167      -285.9145
  20   1.0000      -7.978465      -217.1051
  21   1.0000      -7.977836      -217.0879
  22   1.0000      -7.977784      -217.0865
  23   1.0000      -7.974337      -216.9927
  24   1.0000      -7.973643      -216.9739
  25   1.0000      -7.973557      -216.9715
  26   1.0000      -7.973144      -216.9603
  27   1.0000      -7.972339      -216.9384
  28   1.0000      -7.972251      -216.9360
  29   1.0000      -4.146331      -112.8274
  30   1.0000      -2.667978       -72.5994
  31   1.0000      -2.667950       -72.5986
  32   1.0000      -2.667277       -72.5803
  33   1.0000      -1.427073       -38.8326
  34   1.0000      -1.148025       -31.2393
  35   1.0000      -1.089109       -29.6362
  36   1.0000      -1.044406       -28.4197
  37   1.0000      -1.032419       -28.0935
  38   1.0000      -1.030246       -28.0344
  39   1.0000      -1.028623       -27.9903
  40   1.0000      -1.000078       -27.2135
  41   1.0000      -0.974744       -26.5241
  42   1.0000      -0.911079       -24.7917
  43   1.0000      -0.814969       -22.1764
  44   1.0000      -0.746977       -20.3263
  45   1.0000      -0.699935       -19.0462
  46   1.0000      -0.688546       -18.7363
  47   1.0000      -0.682148       -18.5622
  48   1.0000      -0.667314       -18.1586
  49   1.0000      -0.635549       -17.2942
  50   1.0000      -0.622202       -16.9310
  51   1.0000      -0.604303       -16.4439
  52   1.0000      -0.595646       -16.2084
  53   1.0000      -0.582291       -15.8450
  54   1.0000      -0.573395       -15.6029
  55   1.0000      -0.564517       -15.3613
  56   1.0000      -0.558265       -15.1912
  57   1.0000      -0.553146       -15.0519
  58   1.0000      -0.543741       -14.7959
  59   1.0000      -0.537031       -14.6134
  60   1.0000      -0.516349       -14.0506
  61   1.0000      -0.509110       -13.8536
  62   1.0000      -0.491362       -13.3706
  63   1.0000      -0.477688       -12.9985
  64   1.0000      -0.475358       -12.9351
  65   1.0000      -0.447595       -12.1797
  66   1.0000      -0.444355       -12.0915
  67   1.0000      -0.441751       -12.0207
  68   1.0000      -0.426502       -11.6057
  69   1.0000      -0.422261       -11.4903
  70   1.0000      -0.407732       -11.0949
  71   1.0000      -0.370284       -10.0759
  72   0.0000       0.011559         0.3145
  73   0.0000       0.021774         0.5925
  74   0.0000       0.023122         0.6292
  75   0.0000       0.029558         0.8043
  76   0.0000       0.037494         1.0203

E(0)                                       ...  -3028.441889924
E(0)                                       ...  -3028.441889924
E(CORR)(strong-pairs)                      ...     -2.872981966
E(CORR)(weak-pairs)                        ...     -0.036062193
E(CORR)(corrected)                         ...     -2.909044158
E(TOT)                                     ...  -3031.350934082
E(CCSD(T))                                 ...  -3031.470508992
FINAL SINGLE POINT ENERGY     -3031.470508991765

DIPOLE MOMENT
-------------
                                X             Y             Z
Electronic contribution:     42.22909       4.81596       1.34414
Nuclear contribution   :    -46.20017      -5.73802      -1.89939
                        -----------------------------------------
Total Dipole Moment    :     -3.97108      -0.92206      -0.55524
                        -----------------------------------------
Magnitude (a.u.)       :      4.11436
Magnitude (Debye)      :     10.45787

Rotational constants in cm-1:     0.019113     0.011052     0.010391
Rotational constants in MHz :   572.992203   331.338944   311.521462

                             ****ORCA TERMINATED NORMALLY****
TOTAL RUN TIME: 0 days 18 hours 49 minutes 45 seconds 437 msec
