                         Program Version 4.1.2  - RELEASE  -
|  1> ! aug-cc-pVTZ aug-cc-pVTZ/C DLPNO-CCSD(T1) TightSCF NormalPNO UNO MiniPrint AutoAux
|  2> %pal nproc 10 end
|  3> %maxcore 20000
|  4> %mdci
|  5>      density none
|  6> end
|  7>
|  8> * xyz 0 6
|  9>  O     -0.24380600     -0.38719100     -0.59862700
| 10>  C     -1.28868700     -1.15413400     -0.26447100
| 11>  C     -2.32993100     -0.26807700      0.82787400
| 12>  C     -2.98366700      0.68331300     -0.00938200
| 13>  C     -4.33743200      0.43402500     -0.56179100
| 14> Fe      1.49171600      0.12679000     -0.10243100
| 15> Cl      2.79935800     -0.45697100     -1.76236800
| 16>  C     -2.24475500      1.87143000     -0.45280200
| 17> Cl      2.06455000     -0.83444100      1.80194100
| 18> Cl      1.30899000      2.32804400      0.15616400
| 19>  H     -3.02368000     -1.03687500      1.17552500
| 20>  H     -2.79048900      2.49392300     -1.16333100
| 21>  H     -1.87794000      2.47443400      0.38571000
| 22>  H     -1.30490800      1.48565100     -0.90369800
| 23>  H     -5.01298900      1.18503800     -0.12205200
| 24>  H     -4.36370000      0.60708700     -1.64455000
| 25>  H     -4.72489200     -0.55841200     -0.32623800
| 26>  C     -1.46724400      0.29557100      1.96112700
| 27>  H     -2.09985300      0.86060400      2.65383000
| 28>  H     -0.98720400     -0.50497600      2.52314100
| 29>  H     -0.68608400      0.95863000      1.59025400
| 30>  C     -0.91184700     -2.39511800      0.56393800
| 31>  H     -1.79663800     -2.96608900      0.85900300
| 32>  H     -0.29048800     -3.02388700     -0.08272100
| 33>  H     -0.31718600     -2.14340600      1.44054400
| 34>  C     -2.06736300     -1.56839400     -1.51934300
| 35>  H     -1.43566000     -2.25483500     -2.09092000
| 36>  H     -3.00363800     -2.08218200     -1.27885800
| 37>  H     -2.27254400     -0.70815100     -2.16185200
| 38> *
| 39>
| 40>
| 41>                          ****END OF INPUT****

CARTESIAN COORDINATES (ANGSTROEM)
---------------------------------
  O     -0.243806   -0.387191   -0.598627
  C     -1.288687   -1.154134   -0.264471
  C     -2.329931   -0.268077    0.827874
  C     -2.983667    0.683313   -0.009382
  C     -4.337432    0.434025   -0.561791
  Fe     1.491716    0.126790   -0.102431
  Cl     2.799358   -0.456971   -1.762368
  C     -2.244755    1.871430   -0.452802
  Cl     2.064550   -0.834441    1.801941
  Cl     1.308990    2.328044    0.156164
  H     -3.023680   -1.036875    1.175525
  H     -2.790489    2.493923   -1.163331
  H     -1.877940    2.474434    0.385710
  H     -1.304908    1.485651   -0.903698
  H     -5.012989    1.185038   -0.122052
  H     -4.363700    0.607087   -1.644550
  H     -4.724892   -0.558412   -0.326238
  C     -1.467244    0.295571    1.961127
  H     -2.099853    0.860604    2.653830
  H     -0.987204   -0.504976    2.523141
  H     -0.686084    0.958630    1.590254
  C     -0.911847   -2.395118    0.563938
  H     -1.796638   -2.966089    0.859003
  H     -0.290488   -3.023887   -0.082721
  H     -0.317186   -2.143406    1.440544
  C     -2.067363   -1.568394   -1.519343
  H     -1.435660   -2.254835   -2.090920
  H     -3.003638   -2.082182   -1.278858
  H     -2.272544   -0.708151   -2.161852

ORBITAL ENERGIES
----------------
                 SPIN UP ORBITALS
  NO   OCC          E(Eh)            E(eV)
   0   1.0000    -261.540946     -7116.8910
   1   1.0000    -104.768904     -2850.9068
   2   1.0000    -104.767319     -2850.8637
   3   1.0000    -104.760201     -2850.6700
   4   1.0000     -32.208745      -876.4445
   5   1.0000     -27.684661      -753.3379
   6   1.0000     -27.684497      -753.3335
   7   1.0000     -27.684214      -753.3258
   8   1.0000     -20.540623      -558.9388
   9   1.0000     -11.397909      -310.1529
  10   1.0000     -11.357167      -309.0442
  11   1.0000     -11.308235      -307.7127
  12   1.0000     -11.289606      -307.2058
  13   1.0000     -11.280203      -306.9499
  14   1.0000     -11.251730      -306.1751
  15   1.0000     -11.250198      -306.1335
  16   1.0000     -11.237673      -305.7926
  17   1.0000     -10.495526      -285.5978
  18   1.0000     -10.494051      -285.5576
  19   1.0000     -10.486812      -285.3607
  20   1.0000      -7.962420      -216.6685
  21   1.0000      -7.961583      -216.6457
  22   1.0000      -7.961492      -216.6432
  23   1.0000      -7.960904      -216.6272
  24   1.0000      -7.960108      -216.6055
  25   1.0000      -7.960088      -216.6050
  26   1.0000      -7.953661      -216.4301
  27   1.0000      -7.952942      -216.4106
  28   1.0000      -7.952823      -216.4073
  29   1.0000      -4.564067      -124.1946
  30   1.0000      -3.176619       -86.4402
  31   1.0000      -3.176079       -86.4255
  32   1.0000      -3.175808       -86.4181
  33   1.0000      -1.371557       -37.3220
  34   1.0000      -1.201615       -32.6976
  35   1.0000      -1.083950       -29.4958
  36   1.0000      -1.048494       -28.5310
  37   1.0000      -1.039156       -28.2769
  38   1.0000      -1.034946       -28.1623
  39   1.0000      -1.028633       -27.9905
  40   1.0000      -1.023607       -27.8538
  41   1.0000      -0.969983       -26.3946
  42   1.0000      -0.931714       -25.3532
  43   1.0000      -0.907625       -24.6977
  44   1.0000      -0.893805       -24.3217
  45   1.0000      -0.892943       -24.2982
  46   1.0000      -0.885298       -24.0902
  47   1.0000      -0.884038       -24.0559
  48   1.0000      -0.801302       -21.8045
  49   1.0000      -0.768494       -20.9118
  50   1.0000      -0.712464       -19.3871
  51   1.0000      -0.696073       -18.9411
  52   1.0000      -0.675297       -18.3758
  53   1.0000      -0.655534       -17.8380
  54   1.0000      -0.647045       -17.6070
  55   1.0000      -0.636894       -17.3308
  56   1.0000      -0.609728       -16.5915
  57   1.0000      -0.601754       -16.3746
  58   1.0000      -0.593061       -16.1380
  59   1.0000      -0.582134       -15.8407
  60   1.0000      -0.578166       -15.7327
  61   1.0000      -0.563876       -15.3438
  62   1.0000      -0.554916       -15.1000
  63   1.0000      -0.540727       -14.7139
  64   1.0000      -0.532906       -14.5011
  65   1.0000      -0.522837       -14.2271
  66   1.0000      -0.501689       -13.6516
  67   1.0000      -0.462363       -12.5815
  68   1.0000      -0.457283       -12.4433
  69   1.0000      -0.441910       -12.0250
  70   1.0000      -0.422371       -11.4933
  71   1.0000      -0.417945       -11.3729
  72   1.0000      -0.415122       -11.2961
  73   1.0000      -0.407137       -11.0788
  74   1.0000      -0.406534       -11.0624
  75   1.0000      -0.403266       -10.9734
  76   1.0000      -0.400834       -10.9072
  77   0.0000      -0.005430        -0.1478
  78   0.0000       0.000508         0.0138
  79   0.0000       0.016799         0.4571
  80   0.0000       0.017531         0.4770
  81   0.0000       0.026738         0.7276

                 SPIN DOWN ORBITALS
  NO   OCC          E(Eh)            E(eV)
   0   1.0000    -261.537415     -7116.7949
   1   1.0000    -104.767593     -2850.8711
   2   1.0000    -104.765914     -2850.8254
   3   1.0000    -104.758740     -2850.6302
   4   1.0000     -32.046624      -872.0330
   5   1.0000     -27.524729      -748.9860
   6   1.0000     -27.524596      -748.9823
   7   1.0000     -27.524043      -748.9673
   8   1.0000     -20.535072      -558.7877
   9   1.0000     -11.397888      -310.1523
  10   1.0000     -11.357027      -309.0404
  11   1.0000     -11.308239      -307.7128
  12   1.0000     -11.289490      -307.2027
  13   1.0000     -11.280205      -306.9500
  14   1.0000     -11.251768      -306.1762
  15   1.0000     -11.250082      -306.1303
  16   1.0000     -11.237623      -305.7913
  17   1.0000     -10.494113      -285.5593
  18   1.0000     -10.492542      -285.5166
  19   1.0000     -10.485249      -285.3181
  20   1.0000      -7.959990      -216.6023
  21   1.0000      -7.959530      -216.5898
  22   1.0000      -7.959435      -216.5872
  23   1.0000      -7.958461      -216.5607
  24   1.0000      -7.957824      -216.5434
  25   1.0000      -7.957788      -216.5424
  26   1.0000      -7.951193      -216.3630
  27   1.0000      -7.950496      -216.3440
  28   1.0000      -7.950400      -216.3414
  29   1.0000      -4.121646      -112.1557
  30   1.0000      -2.643684       -71.9383
  31   1.0000      -2.643373       -71.9298
  32   1.0000      -2.642339       -71.9017
  33   1.0000      -1.357379       -36.9362
  34   1.0000      -1.200890       -32.6779
  35   1.0000      -1.081345       -29.4249
  36   1.0000      -1.047253       -28.4972
  37   1.0000      -1.025024       -27.8923
  38   1.0000      -1.023386       -27.8477
  39   1.0000      -1.014742       -27.6125
  40   1.0000      -1.007624       -27.4188
  41   1.0000      -0.969340       -26.3771
  42   1.0000      -0.931480       -25.3469
  43   1.0000      -0.807237       -21.9660
  44   1.0000      -0.776129       -21.1196
  45   1.0000      -0.712961       -19.4007
  46   1.0000      -0.695674       -18.9302
  47   1.0000      -0.675267       -18.3749
  48   1.0000      -0.658285       -17.9128
  49   1.0000      -0.646144       -17.5825
  50   1.0000      -0.635556       -17.2944
  51   1.0000      -0.609660       -16.5897
  52   1.0000      -0.601537       -16.3686
  53   1.0000      -0.592739       -16.1292
  54   1.0000      -0.581568       -15.8253
  55   1.0000      -0.577458       -15.7134
  56   1.0000      -0.563392       -15.3307
  57   1.0000      -0.554910       -15.0999
  58   1.0000      -0.540111       -14.6972
  59   1.0000      -0.531926       -14.4745
  60   1.0000      -0.517082       -14.0705
  61   1.0000      -0.494592       -13.4585
  62   1.0000      -0.461960       -12.5706
  63   1.0000      -0.457241       -12.4422
  64   1.0000      -0.448932       -12.2161
  65   1.0000      -0.430541       -11.7156
  66   1.0000      -0.428099       -11.6492
  67   1.0000      -0.425363       -11.5747
  68   1.0000      -0.421512       -11.4699
  69   1.0000      -0.403520       -10.9803
  70   1.0000      -0.392555       -10.6820
  71   1.0000      -0.389727       -10.6050
  72   0.0000      -0.005786        -0.1574
  73   0.0000       0.000511         0.0139
  74   0.0000       0.016789         0.4569
  75   0.0000       0.017510         0.4765
  76   0.0000       0.026754         0.7280

E(0)                                       ...  -3028.424183468
E(0)                                       ...  -3028.424183468
E(CORR)(strong-pairs)                      ...     -2.874850220
E(CORR)(weak-pairs)                        ...     -0.034776790
E(CORR)(corrected)                         ...     -2.909627010
E(TOT)                                     ...  -3031.333810478
E(CCSD(T))                                 ...  -3031.453512220
FINAL SINGLE POINT ENERGY     -3031.453512219895

DIPOLE MOMENT
-------------
                                X             Y             Z
Electronic contribution:     42.60508       6.77235      -0.88056
Nuclear contribution   :    -48.68749      -6.92558       0.92134
                        -----------------------------------------
Total Dipole Moment    :     -6.08241      -0.15323       0.04078
                        -----------------------------------------
Magnitude (a.u.)       :      6.08448
Magnitude (Debye)      :     15.46552

Rotational constants in cm-1:     0.020870     0.010224     0.009725
Rotational constants in MHz :   625.679375   306.518181   291.558131

                             ****ORCA TERMINATED NORMALLY****
TOTAL RUN TIME: 0 days 21 hours 28 minutes 39 seconds 170 msec
