                         Program Version 4.1.2  - RELEASE  -
|  1> ! aug-cc-pVTZ aug-cc-pVTZ/C DLPNO-CCSD(T1) TightSCF NormalPNO UNO MiniPrint AutoAux
|  2> %pal nproc 10 end
|  3> %maxcore 20000
|  4> %mdci
|  5>      density none
|  6> end
|  7>
|  8> * xyz 0 6
|  9>  O     -0.30358900     -0.20575300     -0.67896200
| 10>  C     -1.19024300     -1.13776600     -0.52008400
| 11>  C     -2.71662700     -0.35475200      0.60220800
| 12>  C     -2.70096700      0.86309300     -0.04638900
| 13>  C     -3.49772400      1.10506600     -1.28781500
| 14> Fe      1.45499800      0.15289800     -0.04184100
| 15> Cl      1.92325800      2.09490800     -0.94765100
| 16>  C     -1.82566800      1.98059000      0.38424600
| 17> Cl      2.65978500     -1.54741600     -0.72666000
| 18> Cl      1.33341400      0.27383100      2.16215400
| 19>  H     -3.47784600     -1.05667000      0.26387300
| 20>  H     -2.28864000      2.95153400      0.18219800
| 21>  H     -1.51338300      1.92401600      1.42686900
| 22>  H     -0.91417900      1.93179500     -0.23440700
| 23>  H     -4.20439000      1.92340900     -1.09488300
| 24>  H     -2.84969200      1.44650600     -2.10574700
| 25>  H     -4.06703400      0.23138300     -1.60932400
| 26>  C     -2.33695100     -0.47754100      2.06665200
| 27>  H     -3.03033100      0.11741700      2.67294000
| 28>  H     -2.41649500     -1.51223500      2.40481600
| 29>  H     -1.32372600     -0.12921100      2.27593700
| 30>  C     -0.81813100     -2.29444300      0.39087300
| 31>  H     -1.66214000     -2.95723000      0.59371900
| 32>  H     -0.05288500     -2.85998500     -0.15691100
| 33>  H     -0.36754000     -1.95681800      1.32354200
| 34>  C     -1.87720700     -1.56469700     -1.80615300
| 35>  H     -1.15625700     -2.19920700     -2.33639600
| 36>  H     -2.78244400     -2.15096200     -1.63158000
| 37>  H     -2.09292400     -0.71285300     -2.44964700
| 38> *
| 39>
| 40>
| 41>                          ****END OF INPUT****

CARTESIAN COORDINATES (ANGSTROEM)
---------------------------------
  O     -0.303589   -0.205753   -0.678962
  C     -1.190243   -1.137766   -0.520084
  C     -2.716627   -0.354752    0.602208
  C     -2.700967    0.863093   -0.046389
  C     -3.497724    1.105066   -1.287815
  Fe     1.454998    0.152898   -0.041841
  Cl     1.923258    2.094908   -0.947651
  C     -1.825668    1.980590    0.384246
  Cl     2.659785   -1.547416   -0.726660
  Cl     1.333414    0.273831    2.162154
  H     -3.477846   -1.056670    0.263873
  H     -2.288640    2.951534    0.182198
  H     -1.513383    1.924016    1.426869
  H     -0.914179    1.931795   -0.234407
  H     -4.204390    1.923409   -1.094883
  H     -2.849692    1.446506   -2.105747
  H     -4.067034    0.231383   -1.609324
  C     -2.336951   -0.477541    2.066652
  H     -3.030331    0.117417    2.672940
  H     -2.416495   -1.512235    2.404816
  H     -1.323726   -0.129211    2.275937
  C     -0.818131   -2.294443    0.390873
  H     -1.662140   -2.957230    0.593719
  H     -0.052885   -2.859985   -0.156911
  H     -0.367540   -1.956818    1.323542
  C     -1.877207   -1.564697   -1.806153
  H     -1.156257   -2.199207   -2.336396
  H     -2.782444   -2.150962   -1.631580
  H     -2.092924   -0.712853   -2.449647

ORBITAL ENERGIES
----------------
                 SPIN UP ORBITALS
  NO   OCC          E(Eh)            E(eV)
   0   1.0000    -261.557031     -7117.3286
   1   1.0000    -104.781397     -2851.2468
   2   1.0000    -104.777496     -2851.1406
   3   1.0000    -104.776837     -2851.1227
   4   1.0000     -32.224902      -876.8842
   5   1.0000     -27.701029      -753.7833
   6   1.0000     -27.700457      -753.7678
   7   1.0000     -27.700262      -753.7625
   8   1.0000     -20.571589      -559.7814
   9   1.0000     -11.397370      -310.1382
  10   1.0000     -11.335642      -308.4585
  11   1.0000     -11.274787      -306.8025
  12   1.0000     -11.271731      -306.7194
  13   1.0000     -11.261429      -306.4391
  14   1.0000     -11.255788      -306.2856
  15   1.0000     -11.253963      -306.2359
  16   1.0000     -11.246277      -306.0268
  17   1.0000     -10.508057      -285.9388
  18   1.0000     -10.504146      -285.8323
  19   1.0000     -10.503430      -285.8129
  20   1.0000      -7.974927      -217.0088
  21   1.0000      -7.974097      -216.9862
  22   1.0000      -7.974070      -216.9855
  23   1.0000      -7.970987      -216.9016
  24   1.0000      -7.970251      -216.8815
  25   1.0000      -7.970249      -216.8815
  26   1.0000      -7.970182      -216.8797
  27   1.0000      -7.969539      -216.8622
  28   1.0000      -7.969461      -216.8600
  29   1.0000      -4.580167      -124.6327
  30   1.0000      -3.192961       -86.8849
  31   1.0000      -3.191989       -86.8584
  32   1.0000      -3.191661       -86.8495
  33   1.0000      -1.415007       -38.5043
  34   1.0000      -1.166941       -31.7541
  35   1.0000      -1.084457       -29.5096
  36   1.0000      -1.052773       -28.6474
  37   1.0000      -1.047218       -28.4962
  38   1.0000      -1.044408       -28.4198
  39   1.0000      -1.038646       -28.2630
  40   1.0000      -0.993481       -27.0340
  41   1.0000      -0.987269       -26.8650
  42   1.0000      -0.927121       -25.2282
  43   1.0000      -0.918224       -24.9861
  44   1.0000      -0.909450       -24.7474
  45   1.0000      -0.909399       -24.7460
  46   1.0000      -0.900063       -24.4920
  47   1.0000      -0.899422       -24.4745
  48   1.0000      -0.792493       -21.5648
  49   1.0000      -0.760229       -20.6869
  50   1.0000      -0.691432       -18.8148
  51   1.0000      -0.688460       -18.7340
  52   1.0000      -0.677066       -18.4239
  53   1.0000      -0.665754       -18.1161
  54   1.0000      -0.647509       -17.6196
  55   1.0000      -0.625234       -17.0135
  56   1.0000      -0.601876       -16.3779
  57   1.0000      -0.594214       -16.1694
  58   1.0000      -0.583009       -15.8645
  59   1.0000      -0.577733       -15.7209
  60   1.0000      -0.571260       -15.5448
  61   1.0000      -0.565752       -15.3949
  62   1.0000      -0.554532       -15.0896
  63   1.0000      -0.546346       -14.8668
  64   1.0000      -0.534310       -14.5393
  65   1.0000      -0.521908       -14.2018
  66   1.0000      -0.518709       -14.1148
  67   1.0000      -0.481039       -13.0897
  68   1.0000      -0.465913       -12.6781
  69   1.0000      -0.458560       -12.4780
  70   1.0000      -0.432298       -11.7634
  71   1.0000      -0.429630       -11.6908
  72   1.0000      -0.427046       -11.6205
  73   1.0000      -0.418518       -11.3885
  74   1.0000      -0.416943       -11.3456
  75   1.0000      -0.416281       -11.3276
  76   1.0000      -0.383710       -10.4413
  77   0.0000       0.009274         0.2524
  78   0.0000       0.020096         0.5468
  79   0.0000       0.022048         0.6000
  80   0.0000       0.025733         0.7002
  81   0.0000       0.032626         0.8878

                 SPIN DOWN ORBITALS
  NO   OCC          E(Eh)            E(eV)
   0   1.0000    -261.553474     -7117.2319
   1   1.0000    -104.779990     -2851.2085
   2   1.0000    -104.776019     -2851.1004
   3   1.0000    -104.775394     -2851.0834
   4   1.0000     -32.062840      -872.4742
   5   1.0000     -27.540827      -749.4240
   6   1.0000     -27.540727      -749.4213
   7   1.0000     -27.540402      -749.4124
   8   1.0000     -20.566994      -559.6563
   9   1.0000     -11.397335      -310.1373
  10   1.0000     -11.335418      -308.4524
  11   1.0000     -11.274818      -306.8034
  12   1.0000     -11.271704      -306.7187
  13   1.0000     -11.261316      -306.4360
  14   1.0000     -11.255768      -306.2850
  15   1.0000     -11.254012      -306.2372
  16   1.0000     -11.246283      -306.0269
  17   1.0000     -10.506546      -285.8977
  18   1.0000     -10.502566      -285.7893
  19   1.0000     -10.501890      -285.7709
  20   1.0000      -7.972423      -216.9407
  21   1.0000      -7.971850      -216.9251
  22   1.0000      -7.971782      -216.9232
  23   1.0000      -7.968499      -216.8339
  24   1.0000      -7.967852      -216.8163
  25   1.0000      -7.967792      -216.8146
  26   1.0000      -7.967709      -216.8124
  27   1.0000      -7.967123      -216.7964
  28   1.0000      -7.967027      -216.7938
  29   1.0000      -4.137875      -112.5973
  30   1.0000      -2.659616       -72.3718
  31   1.0000      -2.659575       -72.3707
  32   1.0000      -2.658770       -72.3488
  33   1.0000      -1.403329       -38.1865
  34   1.0000      -1.166076       -31.7305
  35   1.0000      -1.081693       -29.4344
  36   1.0000      -1.040010       -28.3001
  37   1.0000      -1.036513       -28.2049
  38   1.0000      -1.025824       -27.9141
  39   1.0000      -1.023241       -27.8438
  40   1.0000      -0.993328       -27.0298
  41   1.0000      -0.986591       -26.8465
  42   1.0000      -0.920545       -25.0493
  43   1.0000      -0.806085       -21.9347
  44   1.0000      -0.760755       -20.7012
  45   1.0000      -0.692997       -18.8574
  46   1.0000      -0.687942       -18.7199
  47   1.0000      -0.677771       -18.4431
  48   1.0000      -0.665073       -18.0976
  49   1.0000      -0.647296       -17.6138
  50   1.0000      -0.624742       -17.0001
  51   1.0000      -0.601071       -16.3560
  52   1.0000      -0.594298       -16.1717
  53   1.0000      -0.582771       -15.8580
  54   1.0000      -0.577311       -15.7094
  55   1.0000      -0.570762       -15.5312
  56   1.0000      -0.565484       -15.3876
  57   1.0000      -0.554298       -15.0832
  58   1.0000      -0.545789       -14.8517
  59   1.0000      -0.530279       -14.4296
  60   1.0000      -0.521793       -14.1987
  61   1.0000      -0.509119       -13.8538
  62   1.0000      -0.479734       -13.0542
  63   1.0000      -0.470984       -12.8161
  64   1.0000      -0.467770       -12.7287
  65   1.0000      -0.442086       -12.0298
  66   1.0000      -0.438563       -11.9339
  67   1.0000      -0.436331       -11.8732
  68   1.0000      -0.423690       -11.5292
  69   1.0000      -0.416101       -11.3227
  70   1.0000      -0.402646       -10.9565
  71   1.0000      -0.380515       -10.3543
  72   0.0000       0.009270         0.2522
  73   0.0000       0.020054         0.5457
  74   0.0000       0.022044         0.5998
  75   0.0000       0.025320         0.6890
  76   0.0000       0.032294         0.8788

E(0)                                       ...  -3028.430861094
E(0)                                       ...  -3028.430861094
E(CORR)(strong-pairs)                      ...     -2.874427994
E(CORR)(weak-pairs)                        ...     -0.036814018
E(CORR)(corrected)                         ...     -2.911242012
E(TOT)                                     ...  -3031.342103106
E(CCSD(T))                                 ...  -3031.462452123
FINAL SINGLE POINT ENERGY     -3031.462452123034

DIPOLE MOMENT
-------------
                                X             Y             Z
Electronic contribution:     41.92584       5.88693       0.59466
Nuclear contribution   :    -46.47676      -6.52539      -0.98623
                        -----------------------------------------
Total Dipole Moment    :     -4.55092      -0.63846      -0.39157
                        -----------------------------------------
Magnitude (a.u.)       :      4.61214
Magnitude (Debye)      :     11.72314

Rotational constants in cm-1:     0.019262     0.010945     0.010313
Rotational constants in MHz :   577.475189   328.116478   309.185283

                             ****ORCA TERMINATED NORMALLY****
TOTAL RUN TIME: 0 days 21 hours 2 minutes 51 seconds 524 msec
