                         Program Version 4.1.2  - RELEASE  -
|  1> ! aug-cc-pVTZ aug-cc-pVTZ/C DLPNO-CCSD(T1) TightSCF NormalPNO UNO MiniPrint AutoAux
|  2> %pal nproc 10 end
|  3> %maxcore 20000
|  4> %mdci
|  5>      density none
|  6> end
|  7>
|  8> * xyz 0 6
|  9>  O     -0.29890800     -0.19982300     -0.76401100
| 10>  C     -1.18825200     -1.11973200     -0.61156800
| 11>  C     -2.83446400     -0.25164000      0.46495700
| 12>  C     -2.52774900      0.96000800     -0.09536900
| 13>  C     -3.04759600      1.37057500     -1.43644700
| 14> Fe      1.42989300      0.12523300     -0.00916300
| 15> Cl      2.01051100      2.06998600     -0.83060000
| 16>  C     -1.63097500      1.95568500      0.55765300
| 17> Cl      2.62971000     -1.58849800     -0.66785900
| 18> Cl      1.18173300      0.16492300      2.18992600
| 19>  H     -3.60115500     -0.83689600     -0.03939700
| 20>  H     -2.21664400      2.85453800      0.79630600
| 21>  H     -1.16137100      1.59700700      1.47168900
| 22>  H     -0.84609400      2.27182800     -0.14014900
| 23>  H     -3.52721800      2.35376700     -1.35106300
| 24>  H     -2.21284700      1.49600400     -2.13882200
| 25>  H     -3.77392400      0.66776900     -1.84928100
| 26>  C     -2.67466400     -0.54304400      1.94174400
| 27>  H     -3.43787300      0.00902400      2.50433900
| 28>  H     -2.82316400     -1.60390400      2.15404400
| 29>  H     -1.69818300     -0.25193200      2.33452700
| 30>  C     -0.89407300     -2.23839600      0.36122700
| 31>  H     -1.75284200     -2.89322500      0.51817600
| 32>  H     -0.09218100     -2.82311400     -0.11105500
| 33>  H     -0.51064900     -1.87318400      1.31302800
| 34>  C     -1.88038000     -1.55842100     -1.88550400
| 35>  H     -1.15345400     -2.19390200     -2.40835500
| 36>  H     -2.77765200     -2.15140400     -1.69795600
| 37>  H     -2.10500100     -0.71904600     -2.54083600
| 38> *
| 39>
| 40>
| 41>                          ****END OF INPUT****

CARTESIAN COORDINATES (ANGSTROEM)
---------------------------------
  O     -0.298908   -0.199823   -0.764011
  C     -1.188252   -1.119732   -0.611568
  C     -2.834464   -0.251640    0.464957
  C     -2.527749    0.960008   -0.095369
  C     -3.047596    1.370575   -1.436447
  Fe     1.429893    0.125233   -0.009163
  Cl     2.010511    2.069986   -0.830600
  C     -1.630975    1.955685    0.557653
  Cl     2.629710   -1.588498   -0.667859
  Cl     1.181733    0.164923    2.189926
  H     -3.601155   -0.836896   -0.039397
  H     -2.216644    2.854538    0.796306
  H     -1.161371    1.597007    1.471689
  H     -0.846094    2.271828   -0.140149
  H     -3.527218    2.353767   -1.351063
  H     -2.212847    1.496004   -2.138822
  H     -3.773924    0.667769   -1.849281
  C     -2.674664   -0.543044    1.941744
  H     -3.437873    0.009024    2.504339
  H     -2.823164   -1.603904    2.154044
  H     -1.698183   -0.251932    2.334527
  C     -0.894073   -2.238396    0.361227
  H     -1.752842   -2.893225    0.518176
  H     -0.092181   -2.823114   -0.111055
  H     -0.510649   -1.873184    1.313028
  C     -1.880380   -1.558421   -1.885504
  H     -1.153454   -2.193902   -2.408355
  H     -2.777652   -2.151404   -1.697956
  H     -2.105001   -0.719046   -2.540836

ORBITAL ENERGIES
----------------
                 SPIN UP ORBITALS
  NO   OCC          E(Eh)            E(eV)
   0   1.0000    -261.561672     -7117.4549
   1   1.0000    -104.784742     -2851.3378
   2   1.0000    -104.780338     -2851.2179
   3   1.0000    -104.779923     -2851.2067
   4   1.0000     -32.229517      -877.0097
   5   1.0000     -27.705683      -753.9100
   6   1.0000     -27.705047      -753.8927
   7   1.0000     -27.704854      -753.8874
   8   1.0000     -20.580188      -560.0154
   9   1.0000     -11.407062      -310.4019
  10   1.0000     -11.319191      -308.0108
  11   1.0000     -11.265788      -306.5577
  12   1.0000     -11.265247      -306.5430
  13   1.0000     -11.264454      -306.5214
  14   1.0000     -11.259448      -306.3852
  15   1.0000     -11.247240      -306.0530
  16   1.0000     -11.246844      -306.0422
  17   1.0000     -10.511398      -286.0297
  18   1.0000     -10.506990      -285.9097
  19   1.0000     -10.506534      -285.8973
  20   1.0000      -7.978270      -217.0998
  21   1.0000      -7.977436      -217.0771
  22   1.0000      -7.977405      -217.0762
  23   1.0000      -7.973848      -216.9794
  24   1.0000      -7.973341      -216.9656
  25   1.0000      -7.973088      -216.9588
  26   1.0000      -7.973022      -216.9570
  27   1.0000      -7.972646      -216.9467
  28   1.0000      -7.972580      -216.9449
  29   1.0000      -4.584681      -124.7555
  30   1.0000      -3.197495       -87.0083
  31   1.0000      -3.196446       -86.9797
  32   1.0000      -3.196143       -86.9715
  33   1.0000      -1.425705       -38.7954
  34   1.0000      -1.157530       -31.4980
  35   1.0000      -1.088650       -29.6237
  36   1.0000      -1.056248       -28.7420
  37   1.0000      -1.050442       -28.5840
  38   1.0000      -1.047773       -28.5114
  39   1.0000      -1.035304       -28.1721
  40   1.0000      -0.996454       -27.1149
  41   1.0000      -0.980909       -26.6919
  42   1.0000      -0.930225       -25.3127
  43   1.0000      -0.916115       -24.9288
  44   1.0000      -0.913849       -24.8671
  45   1.0000      -0.913786       -24.8654
  46   1.0000      -0.904304       -24.6074
  47   1.0000      -0.903556       -24.5870
  48   1.0000      -0.795990       -21.6600
  49   1.0000      -0.752770       -20.4839
  50   1.0000      -0.692846       -18.8533
  51   1.0000      -0.688574       -18.7370
  52   1.0000      -0.681695       -18.5499
  53   1.0000      -0.667417       -18.1614
  54   1.0000      -0.641107       -17.4454
  55   1.0000      -0.623747       -16.9730
  56   1.0000      -0.603711       -16.4278
  57   1.0000      -0.594672       -16.1819
  58   1.0000      -0.582386       -15.8475
  59   1.0000      -0.573661       -15.6101
  60   1.0000      -0.567954       -15.4548
  61   1.0000      -0.559012       -15.2115
  62   1.0000      -0.555805       -15.1242
  63   1.0000      -0.547555       -14.8997
  64   1.0000      -0.541572       -14.7369
  65   1.0000      -0.523277       -14.2391
  66   1.0000      -0.515180       -14.0188
  67   1.0000      -0.486206       -13.2303
  68   1.0000      -0.468121       -12.7382
  69   1.0000      -0.463440       -12.6109
  70   1.0000      -0.435846       -11.8600
  71   1.0000      -0.431982       -11.7548
  72   1.0000      -0.430314       -11.7094
  73   1.0000      -0.421403       -11.4670
  74   1.0000      -0.420123       -11.4321
  75   1.0000      -0.419239       -11.4081
  76   1.0000      -0.376961       -10.2576
  77   0.0000       0.010874         0.2959
  78   0.0000       0.021095         0.5740
  79   0.0000       0.022601         0.6150
  80   0.0000       0.029362         0.7990
  81   0.0000       0.036578         0.9953

                 SPIN DOWN ORBITALS
  NO   OCC          E(Eh)            E(eV)
   0   1.0000    -261.558115     -7117.3582
   1   1.0000    -104.783342     -2851.2997
   2   1.0000    -104.778841     -2851.1772
   3   1.0000    -104.778464     -2851.1669
   4   1.0000     -32.067455      -872.5998
   5   1.0000     -27.545424      -749.5491
   6   1.0000     -27.545343      -749.5469
   7   1.0000     -27.545046      -749.5388
   8   1.0000     -20.575800      -559.8960
   9   1.0000     -11.407007      -310.4004
  10   1.0000     -11.319010      -308.0059
  11   1.0000     -11.265674      -306.5546
  12   1.0000     -11.265235      -306.5426
  13   1.0000     -11.264478      -306.5220
  14   1.0000     -11.259431      -306.3847
  15   1.0000     -11.247286      -306.0542
  16   1.0000     -11.246844      -306.0422
  17   1.0000     -10.509896      -285.9888
  18   1.0000     -10.505389      -285.8662
  19   1.0000     -10.504977      -285.8550
  20   1.0000      -7.975777      -217.0319
  21   1.0000      -7.975197      -217.0161
  22   1.0000      -7.975139      -217.0146
  23   1.0000      -7.971300      -216.9101
  24   1.0000      -7.970955      -216.9007
  25   1.0000      -7.970614      -216.8914
  26   1.0000      -7.970528      -216.8891
  27   1.0000      -7.970180      -216.8796
  28   1.0000      -7.970092      -216.8772
  29   1.0000      -4.142381      -112.7199
  30   1.0000      -2.664068       -72.4930
  31   1.0000      -2.664040       -72.4922
  32   1.0000      -2.663267       -72.4712
  33   1.0000      -1.414596       -38.4931
  34   1.0000      -1.156788       -31.4778
  35   1.0000      -1.085926       -29.5496
  36   1.0000      -1.041677       -28.3455
  37   1.0000      -1.034969       -28.1629
  38   1.0000      -1.029135       -28.0042
  39   1.0000      -1.026243       -27.9255
  40   1.0000      -0.995714       -27.0948
  41   1.0000      -0.980742       -26.6874
  42   1.0000      -0.917246       -24.9595
  43   1.0000      -0.809312       -22.0225
  44   1.0000      -0.753002       -20.4902
  45   1.0000      -0.695348       -18.9214
  46   1.0000      -0.688117       -18.7246
  47   1.0000      -0.681230       -18.5372
  48   1.0000      -0.666815       -18.1449
  49   1.0000      -0.640988       -17.4422
  50   1.0000      -0.623259       -16.9598
  51   1.0000      -0.603022       -16.4091
  52   1.0000      -0.594683       -16.1822
  53   1.0000      -0.582220       -15.8430
  54   1.0000      -0.572736       -15.5849
  55   1.0000      -0.567872       -15.4526
  56   1.0000      -0.558927       -15.2092
  57   1.0000      -0.555462       -15.1149
  58   1.0000      -0.545951       -14.8561
  59   1.0000      -0.538905       -14.6644
  60   1.0000      -0.515738       -14.0339
  61   1.0000      -0.512171       -13.9369
  62   1.0000      -0.485472       -13.2104
  63   1.0000      -0.474312       -12.9067
  64   1.0000      -0.472338       -12.8530
  65   1.0000      -0.444736       -12.1019
  66   1.0000      -0.441735       -12.0202
  67   1.0000      -0.439338       -11.9550
  68   1.0000      -0.424643       -11.5551
  69   1.0000      -0.419762       -11.4223
  70   1.0000      -0.405537       -11.0352
  71   1.0000      -0.374732       -10.1970
  72   0.0000       0.010865         0.2957
  73   0.0000       0.021069         0.5733
  74   0.0000       0.022589         0.6147
  75   0.0000       0.029204         0.7947
  76   0.0000       0.036061         0.9813

E(0)                                       ...  -3028.434840618
E(0)                                       ...  -3028.434840618
E(CORR)(strong-pairs)                      ...     -2.873806819
E(CORR)(weak-pairs)                        ...     -0.036517489
E(CORR)(corrected)                         ...     -2.910324308
E(TOT)                                     ...  -3031.345164926
E(CCSD(T))                                 ...  -3031.465150414
FINAL SINGLE POINT ENERGY     -3031.465150414034

DIPOLE MOMENT
-------------
                                X             Y             Z
Electronic contribution:     41.56421       4.62799       1.53582
Nuclear contribution   :    -45.76280      -5.30303      -2.07260
                        -----------------------------------------
Total Dipole Moment    :     -4.19859      -0.67504      -0.53678
                        -----------------------------------------
Magnitude (a.u.)       :      4.28626
Magnitude (Debye)      :     10.89480

Rotational constants in cm-1:     0.019134     0.011232     0.010541
Rotational constants in MHz :   573.610655   336.741167   316.024270

                             ****ORCA TERMINATED NORMALLY****
TOTAL RUN TIME: 0 days 19 hours 33 minutes 58 seconds 668 msec
