                         Program Version 4.1.2  - RELEASE  -
|  1> ! aug-cc-pVTZ aug-cc-pVTZ/C DLPNO-CCSD(T1) TightSCF NormalPNO UNO MiniPrint AutoAux
|  2> %pal nproc 10 end
|  3> %maxcore 20000
|  4> %mdci
|  5>      density none
|  6> end
|  7>
|  8> * xyz 0 6
|  9>  O     -0.33247800     -0.10625200     -0.58512800
| 10>  C     -1.21535600     -1.04105100     -0.52448700
| 11>  C     -3.13622500      0.00670900     -0.00012200
| 12>  C     -2.28310800      1.05231100     -0.20728800
| 13>  C     -2.15799500      1.70532500     -1.54816700
| 14> Fe      1.45691900      0.06406700      0.05453800
| 15> Cl      2.07397700      1.99553400     -0.77559300
| 16>  C     -1.57174300      1.74964300      0.91145400
| 17> Cl      2.42683600     -1.73280500     -0.76098400
| 18> Cl      1.39222300      0.03419200      2.25786000
| 19>  H     -3.71641000     -0.33001900     -0.85646100
| 20>  H     -2.25302700      2.50968400      1.32038000
| 21>  H     -1.28947500      1.08672300      1.73030600
| 22>  H     -0.67682600      2.26469200      0.55534500
| 23>  H     -2.54643700      2.72923500     -1.46042600
| 24>  H     -1.10849300      1.78526100     -1.84632000
| 25>  H     -2.73252100      1.19614900     -2.32549500
| 26>  C     -3.65193100     -0.44823200      1.33929100
| 27>  H     -4.57378900      0.09913100      1.57782300
| 28>  H     -3.90784300     -1.51206100      1.33612900
| 29>  H     -2.94764900     -0.26803700      2.15431500
| 30>  C     -1.16178300     -1.98872200      0.64030400
| 31>  H     -2.03761100     -2.63477600      0.70219800
| 32>  H     -0.27978900     -2.62031200      0.45614300
| 33>  H     -0.99034300     -1.46893200      1.58318400
| 34>  C     -1.67364900     -1.60550300     -1.84363300
| 35>  H     -0.83812800     -2.22659300     -2.19749400
| 36>  H     -2.56050800     -2.23466400     -1.74800000
| 37>  H     -1.83211100     -0.82174900     -2.58450100
| 38> *
| 39>
| 40>
| 41>                          ****END OF INPUT****

CARTESIAN COORDINATES (ANGSTROEM)
---------------------------------
  O     -0.332478   -0.106252   -0.585128
  C     -1.215356   -1.041051   -0.524487
  C     -3.136225    0.006709   -0.000122
  C     -2.283108    1.052311   -0.207288
  C     -2.157995    1.705325   -1.548167
  Fe     1.456919    0.064067    0.054538
  Cl     2.073977    1.995534   -0.775593
  C     -1.571743    1.749643    0.911454
  Cl     2.426836   -1.732805   -0.760984
  Cl     1.392223    0.034192    2.257860
  H     -3.716410   -0.330019   -0.856461
  H     -2.253027    2.509684    1.320380
  H     -1.289475    1.086723    1.730306
  H     -0.676826    2.264692    0.555345
  H     -2.546437    2.729235   -1.460426
  H     -1.108493    1.785261   -1.846320
  H     -2.732521    1.196149   -2.325495
  C     -3.651931   -0.448232    1.339291
  H     -4.573789    0.099131    1.577823
  H     -3.907843   -1.512061    1.336129
  H     -2.947649   -0.268037    2.154315
  C     -1.161783   -1.988722    0.640304
  H     -2.037611   -2.634776    0.702198
  H     -0.279789   -2.620312    0.456143
  H     -0.990343   -1.468932    1.583184
  C     -1.673649   -1.605503   -1.843633
  H     -0.838128   -2.226593   -2.197494
  H     -2.560508   -2.234664   -1.748000
  H     -1.832111   -0.821749   -2.584501

ORBITAL ENERGIES
----------------
                 SPIN UP ORBITALS
  NO   OCC          E(Eh)            E(eV)
   0   1.0000    -261.563687     -7117.5098
   1   1.0000    -104.784541     -2851.3323
   2   1.0000    -104.783499     -2851.3040
   3   1.0000    -104.782733     -2851.2831
   4   1.0000     -32.231509      -877.0640
   5   1.0000     -27.707747      -753.9661
   6   1.0000     -27.706981      -753.9453
   7   1.0000     -27.706852      -753.9418
   8   1.0000     -20.580860      -560.0337
   9   1.0000     -11.415165      -310.6224
  10   1.0000     -11.311316      -307.7966
  11   1.0000     -11.269459      -306.6576
  12   1.0000     -11.264761      -306.5297
  13   1.0000     -11.260882      -306.4242
  14   1.0000     -11.253287      -306.2175
  15   1.0000     -11.251599      -306.1716
  16   1.0000     -11.246738      -306.0393
  17   1.0000     -10.511187      -286.0240
  18   1.0000     -10.510091      -285.9941
  19   1.0000     -10.509296      -285.9725
  20   1.0000      -7.978052      -217.0938
  21   1.0000      -7.977251      -217.0720
  22   1.0000      -7.977210      -217.0709
  23   1.0000      -7.976957      -217.0640
  24   1.0000      -7.976189      -217.0431
  25   1.0000      -7.976102      -217.0408
  26   1.0000      -7.976094      -217.0405
  27   1.0000      -7.975414      -217.0221
  28   1.0000      -7.975340      -217.0200
  29   1.0000      -4.586766      -124.8123
  30   1.0000      -3.199763       -87.0700
  31   1.0000      -3.198477       -87.0350
  32   1.0000      -3.198136       -87.0257
  33   1.0000      -1.435886       -39.0724
  34   1.0000      -1.151623       -31.3373
  35   1.0000      -1.094218       -29.7752
  36   1.0000      -1.057312       -28.7709
  37   1.0000      -1.051919       -28.6242
  38   1.0000      -1.050154       -28.5762
  39   1.0000      -1.032320       -28.0908
  40   1.0000      -1.004735       -27.3402
  41   1.0000      -0.976064       -26.5601
  42   1.0000      -0.933753       -25.4087
  43   1.0000      -0.916245       -24.9323
  44   1.0000      -0.916121       -24.9289
  45   1.0000      -0.914509       -24.8850
  46   1.0000      -0.906120       -24.6568
  47   1.0000      -0.905801       -24.6481
  48   1.0000      -0.799134       -21.7455
  49   1.0000      -0.747956       -20.3529
  50   1.0000      -0.699349       -19.0303
  51   1.0000      -0.695146       -18.9159
  52   1.0000      -0.687043       -18.6954
  53   1.0000      -0.667258       -18.1570
  54   1.0000      -0.636492       -17.3198
  55   1.0000      -0.619776       -16.8650
  56   1.0000      -0.602794       -16.4029
  57   1.0000      -0.598991       -16.2994
  58   1.0000      -0.582473       -15.8499
  59   1.0000      -0.576646       -15.6913
  60   1.0000      -0.569600       -15.4996
  61   1.0000      -0.566369       -15.4117
  62   1.0000      -0.549539       -14.9537
  63   1.0000      -0.548019       -14.9124
  64   1.0000      -0.541992       -14.7484
  65   1.0000      -0.520893       -14.1742
  66   1.0000      -0.513154       -13.9636
  67   1.0000      -0.490551       -13.3486
  68   1.0000      -0.471210       -12.8223
  69   1.0000      -0.463513       -12.6128
  70   1.0000      -0.439099       -11.9485
  71   1.0000      -0.433402       -11.7935
  72   1.0000      -0.431841       -11.7510
  73   1.0000      -0.423791       -11.5319
  74   1.0000      -0.421871       -11.4797
  75   1.0000      -0.421628       -11.4731
  76   1.0000      -0.368759       -10.0344
  77   0.0000       0.011732         0.3192
  78   0.0000       0.022378         0.6089
  79   0.0000       0.023211         0.6316
  80   0.0000       0.030313         0.8249
  81   0.0000       0.039195         1.0666

                 SPIN DOWN ORBITALS
  NO   OCC          E(Eh)            E(eV)
   0   1.0000    -261.560130     -7117.4130
   1   1.0000    -104.783095     -2851.2930
   2   1.0000    -104.782025     -2851.2639
   3   1.0000    -104.781281     -2851.2436
   4   1.0000     -32.069487      -872.6551
   5   1.0000     -27.547432      -749.6037
   6   1.0000     -27.547376      -749.6022
   7   1.0000     -27.547093      -749.5945
   8   1.0000     -20.576545      -559.9162
   9   1.0000     -11.415019      -310.6185
  10   1.0000     -11.311381      -307.7983
  11   1.0000     -11.269362      -306.6549
  12   1.0000     -11.264741      -306.5292
  13   1.0000     -11.260563      -306.4155
  14   1.0000     -11.253322      -306.2185
  15   1.0000     -11.251581      -306.1711
  16   1.0000     -11.246751      -306.0396
  17   1.0000     -10.509639      -285.9818
  18   1.0000     -10.508514      -285.9512
  19   1.0000     -10.507749      -285.9304
  20   1.0000      -7.975540      -217.0255
  21   1.0000      -7.974899      -217.0080
  22   1.0000      -7.974830      -217.0062
  23   1.0000      -7.974411      -216.9947
  24   1.0000      -7.973770      -216.9773
  25   1.0000      -7.973733      -216.9763
  26   1.0000      -7.973673      -216.9747
  27   1.0000      -7.972952      -216.9551
  28   1.0000      -7.972863      -216.9526
  29   1.0000      -4.144531      -112.7784
  30   1.0000      -2.666172       -72.5502
  31   1.0000      -2.666099       -72.5482
  32   1.0000      -2.665699       -72.5374
  33   1.0000      -1.424923       -38.7741
  34   1.0000      -1.150857       -31.3164
  35   1.0000      -1.091594       -29.7038
  36   1.0000      -1.042332       -28.3633
  37   1.0000      -1.031886       -28.0790
  38   1.0000      -1.030313       -28.0362
  39   1.0000      -1.029037       -28.0015
  40   1.0000      -1.003927       -27.3182
  41   1.0000      -0.975978       -26.5577
  42   1.0000      -0.916049       -24.9270
  43   1.0000      -0.813191       -22.1281
  44   1.0000      -0.748003       -20.3542
  45   1.0000      -0.701193       -19.0804
  46   1.0000      -0.696427       -18.9507
  47   1.0000      -0.685225       -18.6459
  48   1.0000      -0.667097       -18.1526
  49   1.0000      -0.636421       -17.3179
  50   1.0000      -0.619541       -16.8586
  51   1.0000      -0.602242       -16.3878
  52   1.0000      -0.598938       -16.2979
  53   1.0000      -0.582134       -15.8407
  54   1.0000      -0.576259       -15.6808
  55   1.0000      -0.569477       -15.4962
  56   1.0000      -0.566106       -15.4045
  57   1.0000      -0.548991       -14.9388
  58   1.0000      -0.545792       -14.8517
  59   1.0000      -0.540241       -14.7007
  60   1.0000      -0.513493       -13.9728
  61   1.0000      -0.512731       -13.9521
  62   1.0000      -0.488425       -13.2907
  63   1.0000      -0.475637       -12.9427
  64   1.0000      -0.474129       -12.9017
  65   1.0000      -0.446054       -12.1378
  66   1.0000      -0.443197       -12.0600
  67   1.0000      -0.440997       -12.0001
  68   1.0000      -0.426941       -11.6177
  69   1.0000      -0.421512       -11.4699
  70   1.0000      -0.407345       -11.0844
  71   1.0000      -0.367296        -9.9946
  72   0.0000       0.011727         0.3191
  73   0.0000       0.022345         0.6080
  74   0.0000       0.023186         0.6309
  75   0.0000       0.030330         0.8253
  76   0.0000       0.039172         1.0659

E(0)                                       ...  -3028.428730612
E(0)                                       ...  -3028.428730612
E(CORR)(strong-pairs)                      ...     -2.872760987
E(CORR)(weak-pairs)                        ...     -0.036214774
E(CORR)(corrected)                         ...     -2.908975761
E(TOT)                                     ...  -3031.337706373
E(CCSD(T))                                 ...  -3031.457358938
FINAL SINGLE POINT ENERGY     -3031.457358938374

DIPOLE MOMENT
-------------
                                X             Y             Z
Electronic contribution:     42.54548       2.38340       2.21698
Nuclear contribution   :    -46.53973      -3.00415      -2.74863
                        -----------------------------------------
Total Dipole Moment    :     -3.99425      -0.62074      -0.53165
                        -----------------------------------------
Magnitude (a.u.)       :      4.07701
Magnitude (Debye)      :     10.36292

Rotational constants in cm-1:     0.019535     0.011119     0.010436
Rotational constants in MHz :   585.639985   333.346696   312.866085

                             ****ORCA TERMINATED NORMALLY****
TOTAL RUN TIME: 0 days 20 hours 23 minutes 36 seconds 546 msec
