                         Program Version 4.1.2  - RELEASE  -
|  1> ! aug-cc-pVTZ aug-cc-pVTZ/C DLPNO-CCSD(T1) TightSCF NormalPNO UNO MiniPrint AutoAux
|  2> %pal nproc 10 end
|  3> %maxcore 20000
|  4> %mdci
|  5>      density none
|  6> end
|  7>
|  8> * xyz 0 6
|  9>  O     -0.29889900     -0.34359800     -0.67541200
| 10>  C     -1.40300300     -1.19890100     -0.48402300
| 11>  C     -2.70061000     -0.18554800     -0.06055000
| 12>  C     -2.06825000      1.13906500     -0.23540400
| 13>  C     -1.97647400      1.76810500     -1.56261600
| 14> Fe      1.36246000      0.03136400      0.01307600
| 15> Cl      1.66842300      2.10048500     -0.76739600
| 16>  C     -1.58824000      1.90627100      0.92088700
| 17> Cl      2.80844700     -1.49276600     -0.61591800
| 18> Cl      1.12094800      0.10080600      2.24446900
| 19>  H     -3.44834600     -0.32481300     -0.84742100
| 20>  H     -2.46549500      2.18094300      1.52799400
| 21>  H     -0.96508600      1.27727000      1.57405200
| 22>  H     -1.02979200      2.79801000      0.63634400
| 23>  H     -2.58200500      2.68893200     -1.53444800
| 24>  H     -0.93758300      2.09039000     -1.72325600
| 25>  H     -2.31765600      1.12976000     -2.37661300
| 26>  C     -3.31683400     -0.45483500      1.31027000
| 27>  H     -4.13014300      0.25019800      1.51784000
| 28>  H     -3.74264200     -1.46075500      1.33299300
| 29>  H     -2.58625000     -0.38305100      2.11894300
| 30>  C     -1.12348000     -2.22880200      0.60105400
| 31>  H     -1.96336700     -2.91487500      0.74545100
| 32>  H     -0.25579200     -2.81350300      0.27359700
| 33>  H     -0.86204700     -1.76116000      1.55149100
| 34>  C     -1.73878900     -1.86989600     -1.81216200
| 35>  H     -0.88106900     -2.47822700     -2.11711600
| 36>  H     -2.61931000     -2.51588900     -1.72501200
| 37>  H     -1.91501600     -1.12758100     -2.59588400
| 38> *
| 39>
| 40>
| 41>                          ****END OF INPUT****

CARTESIAN COORDINATES (ANGSTROEM)
---------------------------------
  O     -0.298899   -0.343598   -0.675412
  C     -1.403003   -1.198901   -0.484023
  C     -2.700610   -0.185548   -0.060550
  C     -2.068250    1.139065   -0.235404
  C     -1.976474    1.768105   -1.562616
  Fe     1.362460    0.031364    0.013076
  Cl     1.668423    2.100485   -0.767396
  C     -1.588240    1.906271    0.920887
  Cl     2.808447   -1.492766   -0.615918
  Cl     1.120948    0.100806    2.244469
  H     -3.448346   -0.324813   -0.847421
  H     -2.465495    2.180943    1.527994
  H     -0.965086    1.277270    1.574052
  H     -1.029792    2.798010    0.636344
  H     -2.582005    2.688932   -1.534448
  H     -0.937583    2.090390   -1.723256
  H     -2.317656    1.129760   -2.376613
  C     -3.316834   -0.454835    1.310270
  H     -4.130143    0.250198    1.517840
  H     -3.742642   -1.460755    1.332993
  H     -2.586250   -0.383051    2.118943
  C     -1.123480   -2.228802    0.601054
  H     -1.963367   -2.914875    0.745451
  H     -0.255792   -2.813503    0.273597
  H     -0.862047   -1.761160    1.551491
  C     -1.738789   -1.869896   -1.812162
  H     -0.881069   -2.478227   -2.117116
  H     -2.619310   -2.515889   -1.725012
  H     -1.915016   -1.127581   -2.595884

ORBITAL ENERGIES
----------------
                 SPIN UP ORBITALS
  NO   OCC          E(Eh)            E(eV)
   0   1.0000    -261.543475     -7116.9598
   1   1.0000    -104.774302     -2851.0537
   2   1.0000    -104.773455     -2851.0307
   3   1.0000    -104.768091     -2850.8847
   4   1.0000     -32.211318      -876.5145
   5   1.0000     -27.687333      -753.4106
   6   1.0000     -27.687066      -753.4034
   7   1.0000     -27.686680      -753.3929
   8   1.0000     -20.537615      -558.8569
   9   1.0000     -11.411651      -310.5268
  10   1.0000     -11.342215      -308.6374
  11   1.0000     -11.294403      -307.3363
  12   1.0000     -11.286633      -307.1249
  13   1.0000     -11.280187      -306.9495
  14   1.0000     -11.264188      -306.5141
  15   1.0000     -11.238734      -305.8215
  16   1.0000     -11.231745      -305.6313
  17   1.0000     -10.500886      -285.7436
  18   1.0000     -10.499953      -285.7182
  19   1.0000     -10.494634      -285.5735
  20   1.0000      -7.967787      -216.8145
  21   1.0000      -7.966873      -216.7896
  22   1.0000      -7.966846      -216.7889
  23   1.0000      -7.966810      -216.7879
  24   1.0000      -7.966021      -216.7665
  25   1.0000      -7.965917      -216.7636
  26   1.0000      -7.961411      -216.6410
  27   1.0000      -7.960765      -216.6234
  28   1.0000      -7.960670      -216.6208
  29   1.0000      -4.566830      -124.2698
  30   1.0000      -3.179368       -86.5150
  31   1.0000      -3.178952       -86.5037
  32   1.0000      -3.178578       -86.4935
  33   1.0000      -1.351528       -36.7770
  34   1.0000      -1.190470       -32.3943
  35   1.0000      -1.091610       -29.7042
  36   1.0000      -1.044290       -28.4166
  37   1.0000      -1.040054       -28.3013
  38   1.0000      -1.038617       -28.2622
  39   1.0000      -1.035258       -28.1708
  40   1.0000      -1.019683       -27.7470
  41   1.0000      -0.965281       -26.2666
  42   1.0000      -0.933820       -25.4105
  43   1.0000      -0.904220       -24.6051
  44   1.0000      -0.896566       -24.3968
  45   1.0000      -0.896375       -24.3916
  46   1.0000      -0.889091       -24.1934
  47   1.0000      -0.888292       -24.1716
  48   1.0000      -0.798871       -21.7384
  49   1.0000      -0.760270       -20.6880
  50   1.0000      -0.707393       -19.2491
  51   1.0000      -0.690338       -18.7850
  52   1.0000      -0.676461       -18.4075
  53   1.0000      -0.635884       -17.3033
  54   1.0000      -0.634072       -17.2540
  55   1.0000      -0.626757       -17.0549
  56   1.0000      -0.604105       -16.4385
  57   1.0000      -0.600457       -16.3393
  58   1.0000      -0.595927       -16.2160
  59   1.0000      -0.582744       -15.8573
  60   1.0000      -0.578973       -15.7547
  61   1.0000      -0.556248       -15.1363
  62   1.0000      -0.550257       -14.9732
  63   1.0000      -0.539141       -14.6708
  64   1.0000      -0.525987       -14.3128
  65   1.0000      -0.523616       -14.2483
  66   1.0000      -0.502820       -13.6824
  67   1.0000      -0.468513       -12.7489
  68   1.0000      -0.462876       -12.5955
  69   1.0000      -0.445347       -12.1185
  70   1.0000      -0.431012       -11.7284
  71   1.0000      -0.424174       -11.5424
  72   1.0000      -0.420068       -11.4306
  73   1.0000      -0.414806       -11.2874
  74   1.0000      -0.412162       -11.2155
  75   1.0000      -0.410840       -11.1795
  76   1.0000      -0.408640       -11.1197
  77   0.0000       0.004510         0.1227
  78   0.0000       0.011424         0.3109
  79   0.0000       0.020025         0.5449
  80   0.0000       0.020762         0.5650
  81   0.0000       0.030268         0.8236

                 SPIN DOWN ORBITALS
  NO   OCC          E(Eh)            E(eV)
   0   1.0000    -261.539936     -7116.8635
   1   1.0000    -104.773023     -2851.0189
   2   1.0000    -104.772207     -2850.9967
   3   1.0000    -104.766669     -2850.8460
   4   1.0000     -32.049284      -872.1053
   5   1.0000     -27.527474      -749.0606
   6   1.0000     -27.527231      -749.0540
   7   1.0000     -27.526582      -749.0364
   8   1.0000     -20.530996      -558.6768
   9   1.0000     -11.411666      -310.5272
  10   1.0000     -11.341977      -308.6309
  11   1.0000     -11.294261      -307.3325
  12   1.0000     -11.286617      -307.1245
  13   1.0000     -11.280215      -306.9503
  14   1.0000     -11.264195      -306.5143
  15   1.0000     -11.238644      -305.8191
  16   1.0000     -11.231713      -305.6304
  17   1.0000     -10.499502      -285.7060
  18   1.0000     -10.498607      -285.6816
  19   1.0000     -10.493114      -285.5322
  20   1.0000      -7.965310      -216.7471
  21   1.0000      -7.964957      -216.7375
  22   1.0000      -7.964870      -216.7351
  23   1.0000      -7.964526      -216.7258
  24   1.0000      -7.964050      -216.7128
  25   1.0000      -7.963948      -216.7100
  26   1.0000      -7.959131      -216.5790
  27   1.0000      -7.958324      -216.5570
  28   1.0000      -7.958257      -216.5552
  29   1.0000      -4.124696      -112.2387
  30   1.0000      -2.646677       -72.0197
  31   1.0000      -2.646488       -72.0146
  32   1.0000      -2.645794       -71.9957
  33   1.0000      -1.334097       -36.3026
  34   1.0000      -1.189107       -32.3572
  35   1.0000      -1.088950       -29.6318
  36   1.0000      -1.037474       -28.2311
  37   1.0000      -1.030895       -28.0521
  38   1.0000      -1.022508       -27.8239
  39   1.0000      -1.017595       -27.6902
  40   1.0000      -1.015026       -27.6203
  41   1.0000      -0.964518       -26.2459
  42   1.0000      -0.931919       -25.3588
  43   1.0000      -0.802777       -21.8447
  44   1.0000      -0.766864       -20.8674
  45   1.0000      -0.707992       -19.2654
  46   1.0000      -0.689960       -18.7748
  47   1.0000      -0.677151       -18.4262
  48   1.0000      -0.638545       -17.3757
  49   1.0000      -0.633871       -17.2485
  50   1.0000      -0.624838       -17.0027
  51   1.0000      -0.604373       -16.4458
  52   1.0000      -0.599388       -16.3102
  53   1.0000      -0.595456       -16.2032
  54   1.0000      -0.582363       -15.8469
  55   1.0000      -0.577443       -15.7130
  56   1.0000      -0.556070       -15.1314
  57   1.0000      -0.548010       -14.9121
  58   1.0000      -0.538392       -14.6504
  59   1.0000      -0.523765       -14.2524
  60   1.0000      -0.517957       -14.0943
  61   1.0000      -0.498380       -13.5616
  62   1.0000      -0.467781       -12.7290
  63   1.0000      -0.463119       -12.6021
  64   1.0000      -0.451964       -12.2986
  65   1.0000      -0.438722       -11.9382
  66   1.0000      -0.434712       -11.8291
  67   1.0000      -0.429891       -11.6979
  68   1.0000      -0.428975       -11.6730
  69   1.0000      -0.409274       -11.1369
  70   1.0000      -0.399598       -10.8736
  71   1.0000      -0.397955       -10.8289
  72   0.0000       0.004463         0.1215
  73   0.0000       0.011158         0.3036
  74   0.0000       0.020009         0.5445
  75   0.0000       0.020749         0.5646
  76   0.0000       0.030299         0.8245

E(0)                                       ...  -3028.431015510
E(0)                                       ...  -3028.431015510
E(CORR)(strong-pairs)                      ...     -2.868781929
E(CORR)(weak-pairs)                        ...     -0.035846280
E(CORR)(corrected)                         ...     -2.904628209
E(TOT)                                     ...  -3031.335643719
E(CCSD(T))                                 ...  -3031.453098517
FINAL SINGLE POINT ENERGY     -3031.453098516527

DIPOLE MOMENT
-------------
                                X             Y             Z
Electronic contribution:     39.30009       4.92563       2.39772
Nuclear contribution   :    -44.25265      -4.33919      -2.82675
                        -----------------------------------------
Total Dipole Moment    :     -4.95256       0.58644      -0.42903
                        -----------------------------------------
Magnitude (a.u.)       :      5.00558
Magnitude (Debye)      :     12.72317

Rotational constants in cm-1:     0.018937     0.012022     0.010868
Rotational constants in MHz :   567.717348   360.399485   325.812599

                             ****ORCA TERMINATED NORMALLY****
TOTAL RUN TIME: 0 days 20 hours 55 minutes 13 seconds 249 msec
