                         Program Version 4.1.2  - RELEASE  -
|  1> ! aug-cc-pVTZ aug-cc-pVTZ/C DLPNO-CCSD(T1) TightSCF NormalPNO UNO MiniPrint AutoAux
|  2> %pal nproc 10 end
|  3> %maxcore 20000
|  4> %mdci
|  5>      density none
|  6> end
|  7>
|  8> * xyz 0 6
|  9>  O     -0.32978700     -0.15477900     -0.70070600
| 10>  C     -1.26396500     -1.08035100     -0.56589200
| 11>  C     -2.78865300     -0.26583200      0.33654100
| 12>  C     -2.41491200      0.99404500     -0.12196400
| 13>  C     -2.80324800      1.49794000     -1.46671200
| 14> Fe      1.39864300      0.10390600     -0.00721000
| 15> Cl      1.94705800      2.10396100     -0.74396600
| 16>  C     -1.58011500      1.91802600      0.68454200
| 17> Cl      2.61960600     -1.56779800     -0.74462000
| 18> Cl      1.19033000      0.06169200      2.21106100
| 19>  H     -3.58990400     -0.74221200     -0.22583800
| 20>  H     -2.26804000      2.64097100      1.15270800
| 21>  H     -1.02395800      1.42605900      1.48091400
| 22>  H     -0.88912100      2.48505900      0.05377300
| 23>  H     -3.16943700      2.52774600     -1.37233400
| 24>  H     -1.89993400      1.55087800     -2.08979600
| 25>  H     -3.56334000      0.89046400     -1.95967900
| 26>  C     -2.79341400     -0.58245700      1.82168200
| 27>  H     -3.58303000     -0.00475700      2.31688900
| 28>  H     -3.00633100     -1.63964400      1.99186000
| 29>  H     -1.84634000     -0.34499200      2.31065000
| 30>  C     -0.92829100     -2.23835300      0.35709200
| 31>  H     -1.76397800     -2.93127100      0.47755500
| 32>  H     -0.10212700     -2.77055300     -0.13283400
| 33>  H     -0.56833100     -1.90392700      1.32936300
| 34>  C     -1.84081400     -1.54213700     -1.89673100
| 35>  H     -1.03775500     -2.09851800     -2.39477500
| 36>  H     -2.69833300     -2.20807100     -1.77121800
| 37>  H     -2.10491400     -0.70937900     -2.54754900
| 38> *
| 39>
| 40>
| 41>                          ****END OF INPUT****

CARTESIAN COORDINATES (ANGSTROEM)
---------------------------------
  O     -0.329787   -0.154779   -0.700706
  C     -1.263965   -1.080351   -0.565892
  C     -2.788653   -0.265832    0.336541
  C     -2.414912    0.994045   -0.121964
  C     -2.803248    1.497940   -1.466712
  Fe     1.398643    0.103906   -0.007210
  Cl     1.947058    2.103961   -0.743966
  C     -1.580115    1.918026    0.684542
  Cl     2.619606   -1.567798   -0.744620
  Cl     1.190330    0.061692    2.211061
  H     -3.589904   -0.742212   -0.225838
  H     -2.268040    2.640971    1.152708
  H     -1.023958    1.426059    1.480914
  H     -0.889121    2.485059    0.053773
  H     -3.169437    2.527746   -1.372334
  H     -1.899934    1.550878   -2.089796
  H     -3.563340    0.890464   -1.959679
  C     -2.793414   -0.582457    1.821682
  H     -3.583030   -0.004757    2.316889
  H     -3.006331   -1.639644    1.991860
  H     -1.846340   -0.344992    2.310650
  C     -0.928291   -2.238353    0.357092
  H     -1.763978   -2.931271    0.477555
  H     -0.102127   -2.770553   -0.132834
  H     -0.568331   -1.903927    1.329363
  C     -1.840814   -1.542137   -1.896731
  H     -1.037755   -2.098518   -2.394775
  H     -2.698333   -2.208071   -1.771218
  H     -2.104914   -0.709379   -2.547549

ORBITAL ENERGIES
----------------
                 SPIN UP ORBITALS
  NO   OCC          E(Eh)            E(eV)
   0   1.0000    -261.551797     -7117.1862
   1   1.0000    -104.778349     -2851.1638
   2   1.0000    -104.774676     -2851.0639
   3   1.0000    -104.773352     -2851.0278
   4   1.0000     -32.219692      -876.7424
   5   1.0000     -27.695643      -753.6367
   6   1.0000     -27.695368      -753.6293
   7   1.0000     -27.695131      -753.6228
   8   1.0000     -20.554834      -559.3255
   9   1.0000     -11.385264      -309.8088
  10   1.0000     -11.362380      -309.1861
  11   1.0000     -11.279084      -306.9195
  12   1.0000     -11.278299      -306.8981
  13   1.0000     -11.262245      -306.4613
  14   1.0000     -11.254840      -306.2598
  15   1.0000     -11.254388      -306.2475
  16   1.0000     -11.246818      -306.0415
  17   1.0000     -10.504949      -285.8542
  18   1.0000     -10.501249      -285.7535
  19   1.0000     -10.499953      -285.7183
  20   1.0000      -7.971843      -216.9249
  21   1.0000      -7.970966      -216.9010
  22   1.0000      -7.970928      -216.9000
  23   1.0000      -7.968064      -216.8220
  24   1.0000      -7.967352      -216.8027
  25   1.0000      -7.967272      -216.8005
  26   1.0000      -7.966792      -216.7874
  27   1.0000      -7.966054      -216.7674
  28   1.0000      -7.965980      -216.7653
  29   1.0000      -4.575024      -124.4927
  30   1.0000      -3.187593       -86.7388
  31   1.0000      -3.187059       -86.7243
  32   1.0000      -3.186612       -86.7121
  33   1.0000      -1.396682       -38.0057
  34   1.0000      -1.178453       -32.0673
  35   1.0000      -1.084107       -29.5001
  36   1.0000      -1.048845       -28.5405
  37   1.0000      -1.043872       -28.4052
  38   1.0000      -1.042513       -28.3682
  39   1.0000      -1.040593       -28.3160
  40   1.0000      -1.001007       -27.2388
  41   1.0000      -0.981000       -26.6944
  42   1.0000      -0.931434       -25.3456
  43   1.0000      -0.916377       -24.9359
  44   1.0000      -0.904461       -24.6116
  45   1.0000      -0.904333       -24.6081
  46   1.0000      -0.895761       -24.3749
  47   1.0000      -0.895074       -24.3562
  48   1.0000      -0.786667       -21.4063
  49   1.0000      -0.764751       -20.8099
  50   1.0000      -0.699360       -19.0305
  51   1.0000      -0.691466       -18.8157
  52   1.0000      -0.673368       -18.3233
  53   1.0000      -0.654735       -17.8163
  54   1.0000      -0.649286       -17.6680
  55   1.0000      -0.626503       -17.0480
  56   1.0000      -0.599882       -16.3236
  57   1.0000      -0.595924       -16.2159
  58   1.0000      -0.588228       -16.0065
  59   1.0000      -0.577858       -15.7243
  60   1.0000      -0.574890       -15.6436
  61   1.0000      -0.562563       -15.3081
  62   1.0000      -0.554660       -15.0931
  63   1.0000      -0.549252       -14.9459
  64   1.0000      -0.538481       -14.6528
  65   1.0000      -0.526744       -14.3334
  66   1.0000      -0.513702       -13.9785
  67   1.0000      -0.475517       -12.9395
  68   1.0000      -0.462321       -12.5804
  69   1.0000      -0.453671       -12.3450
  70   1.0000      -0.428143       -11.6504
  71   1.0000      -0.426624       -11.6090
  72   1.0000      -0.424609       -11.5542
  73   1.0000      -0.415599       -11.3090
  74   1.0000      -0.414443       -11.2776
  75   1.0000      -0.413262       -11.2454
  76   1.0000      -0.390828       -10.6350
  77   0.0000       0.008185         0.2227
  78   0.0000       0.019231         0.5233
  79   0.0000       0.021058         0.5730
  80   0.0000       0.024998         0.6802
  81   0.0000       0.031324         0.8524

                 SPIN DOWN ORBITALS
  NO   OCC          E(Eh)            E(eV)
   0   1.0000    -261.548252     -7117.0898
   1   1.0000    -104.777015     -2851.1275
   2   1.0000    -104.773295     -2851.0263
   3   1.0000    -104.771900     -2850.9883
   4   1.0000     -32.057621      -872.3322
   5   1.0000     -27.535671      -749.2837
   6   1.0000     -27.535536      -749.2800
   7   1.0000     -27.535077      -749.2675
   8   1.0000     -20.549598      -559.1830
   9   1.0000     -11.385239      -309.8081
  10   1.0000     -11.362317      -309.1844
  11   1.0000     -11.279091      -306.9197
  12   1.0000     -11.278105      -306.8928
  13   1.0000     -11.262279      -306.4622
  14   1.0000     -11.254727      -306.2567
  15   1.0000     -11.254409      -306.2480
  16   1.0000     -11.246785      -306.0406
  17   1.0000     -10.503512      -285.8151
  18   1.0000     -10.499772      -285.7133
  19   1.0000     -10.498400      -285.6760
  20   1.0000      -7.969362      -216.8574
  21   1.0000      -7.968897      -216.8447
  22   1.0000      -7.968821      -216.8426
  23   1.0000      -7.965749      -216.7591
  24   1.0000      -7.965050      -216.7400
  25   1.0000      -7.964962      -216.7376
  26   1.0000      -7.964338      -216.7207
  27   1.0000      -7.963643      -216.7017
  28   1.0000      -7.963563      -216.6996
  29   1.0000      -4.132711      -112.4568
  30   1.0000      -2.654503       -72.2327
  31   1.0000      -2.654457       -72.2315
  32   1.0000      -2.653573       -72.2074
  33   1.0000      -1.383282       -37.6410
  34   1.0000      -1.177513       -32.0417
  35   1.0000      -1.081406       -29.4266
  36   1.0000      -1.042394       -28.3650
  37   1.0000      -1.034673       -28.1549
  38   1.0000      -1.023041       -27.8384
  39   1.0000      -1.019999       -27.7556
  40   1.0000      -1.000778       -27.2325
  41   1.0000      -0.980199       -26.6726
  42   1.0000      -0.929459       -25.2919
  43   1.0000      -0.798046       -21.7159
  44   1.0000      -0.766546       -20.8588
  45   1.0000      -0.699889       -19.0450
  46   1.0000      -0.690646       -18.7934
  47   1.0000      -0.674981       -18.3672
  48   1.0000      -0.655428       -17.8351
  49   1.0000      -0.648021       -17.6336
  50   1.0000      -0.626043       -17.0355
  51   1.0000      -0.598842       -16.2953
  52   1.0000      -0.596165       -16.2225
  53   1.0000      -0.588047       -16.0016
  54   1.0000      -0.577440       -15.7129
  55   1.0000      -0.574699       -15.6384
  56   1.0000      -0.562157       -15.2971
  57   1.0000      -0.554387       -15.0856
  58   1.0000      -0.548586       -14.9278
  59   1.0000      -0.532911       -14.5012
  60   1.0000      -0.526636       -14.3305
  61   1.0000      -0.504888       -13.7387
  62   1.0000      -0.474071       -12.9001
  63   1.0000      -0.466922       -12.7056
  64   1.0000      -0.462595       -12.5879
  65   1.0000      -0.438214       -11.9244
  66   1.0000      -0.435231       -11.8432
  67   1.0000      -0.433486       -11.7957
  68   1.0000      -0.422259       -11.4903
  69   1.0000      -0.413420       -11.2497
  70   1.0000      -0.400454       -10.8969
  71   1.0000      -0.386055       -10.5051
  72   0.0000       0.008185         0.2227
  73   0.0000       0.019158         0.5213
  74   0.0000       0.021044         0.5726
  75   0.0000       0.024751         0.6735
  76   0.0000       0.031282         0.8512

E(0)                                       ...  -3028.425417903
E(0)                                       ...  -3028.425417903
E(CORR)(strong-pairs)                      ...     -2.873541585
E(CORR)(weak-pairs)                        ...     -0.035958982
E(CORR)(corrected)                         ...     -2.909500567
E(TOT)                                     ...  -3031.334918470
E(CCSD(T))                                 ...  -3031.454572942
FINAL SINGLE POINT ENERGY     -3031.454572942022

DIPOLE MOMENT
-------------
                                X             Y             Z
Electronic contribution:     40.29304       4.78645       1.82820
Nuclear contribution   :    -45.00413      -4.90192      -2.30996
                        -----------------------------------------
Total Dipole Moment    :     -4.71109      -0.11547      -0.48176
                        -----------------------------------------
Magnitude (a.u.)       :      4.73707
Magnitude (Debye)      :     12.04067

Rotational constants in cm-1:     0.019113     0.011549     0.010766
Rotational constants in MHz :   572.994857   346.219902   322.749222

                             ****ORCA TERMINATED NORMALLY****
TOTAL RUN TIME: 0 days 20 hours 55 minutes 34 seconds 213 msec
