                         Program Version 4.1.2  - RELEASE  -
|  1> ! aug-cc-pVTZ aug-cc-pVTZ/C DLPNO-CCSD(T1) TightSCF NormalPNO UNO MiniPrint AutoAux
|  2> %pal nproc 10 end
|  3> %maxcore 20000
|  4> %mdci
|  5>      density none
|  6> end
|  7>
|  8> * xyz 0 6
|  9>  O     -0.34559100     -0.07588100     -0.40252000
| 10>  C     -1.27125500     -1.06226500     -0.25896900
| 11>  C     -2.49998700     -0.45970800      0.66279400
| 12>  C     -2.89400900      0.73753500     -0.03658600
| 13>  C     -3.99603700      0.71133400     -1.03046400
| 14> Fe      1.47597700      0.17219500     -0.07895200
| 15> Cl      1.73776800      2.25646500     -0.76419100
| 16>  C     -2.11291100      1.94301000      0.10165900
| 17> Cl      2.54234500     -1.37741200     -1.22173800
| 18> Cl      1.78009800     -0.01080200      2.11064200
| 19>  H     -3.28459600     -1.21907700      0.59681100
| 20>  H     -2.48649600      2.81010700     -0.44263600
| 21>  H     -1.81492600      2.18340800      1.12492900
| 22>  H     -1.14214100      1.56933600     -0.35187600
| 23>  H     -4.83653900      1.27230300     -0.59080500
| 24>  H     -3.72163600      1.24931200     -1.94558200
| 25>  H     -4.34295000     -0.29498800     -1.26710100
| 26>  C     -2.03179500     -0.24493600      2.11127200
| 27>  H     -2.73241900      0.40234800      2.64819300
| 28>  H     -1.99579800     -1.20071700      2.63621300
| 29>  H     -1.03461400      0.19819400      2.15240800
| 30>  C     -0.72691300     -2.28067300      0.51109500
| 31>  H     -1.51714000     -3.00886600      0.71979700
| 32>  H      0.02868700     -2.75230700     -0.12471400
| 33>  H     -0.24127000     -1.98681100      1.44168700
| 34>  C     -1.77930200     -1.50779100     -1.63910700
| 35>  H     -0.95021000     -2.00272000     -2.15235600
| 36>  H     -2.61392200     -2.21397600     -1.56755700
| 37>  H     -2.07504500     -0.65488300     -2.25478700
| 38> *
| 39>
| 40>
| 41>                          ****END OF INPUT****

CARTESIAN COORDINATES (ANGSTROEM)
---------------------------------
  O     -0.345591   -0.075881   -0.402520
  C     -1.271255   -1.062265   -0.258969
  C     -2.499987   -0.459708    0.662794
  C     -2.894009    0.737535   -0.036586
  C     -3.996037    0.711334   -1.030464
  Fe     1.475977    0.172195   -0.078952
  Cl     1.737768    2.256465   -0.764191
  C     -2.112911    1.943010    0.101659
  Cl     2.542345   -1.377412   -1.221738
  Cl     1.780098   -0.010802    2.110642
  H     -3.284596   -1.219077    0.596811
  H     -2.486496    2.810107   -0.442636
  H     -1.814926    2.183408    1.124929
  H     -1.142141    1.569336   -0.351876
  H     -4.836539    1.272303   -0.590805
  H     -3.721636    1.249312   -1.945582
  H     -4.342950   -0.294988   -1.267101
  C     -2.031795   -0.244936    2.111272
  H     -2.732419    0.402348    2.648193
  H     -1.995798   -1.200717    2.636213
  H     -1.034614    0.198194    2.152408
  C     -0.726913   -2.280673    0.511095
  H     -1.517140   -3.008866    0.719797
  H      0.028687   -2.752307   -0.124714
  H     -0.241270   -1.986811    1.441687
  C     -1.779302   -1.507791   -1.639107
  H     -0.950210   -2.002720   -2.152356
  H     -2.613922   -2.213976   -1.567557
  H     -2.075045   -0.654883   -2.254787

ORBITAL ENERGIES
----------------
                 SPIN UP ORBITALS
  NO   OCC          E(Eh)            E(eV)
   0   1.0000    -261.538909     -7116.8355
   1   1.0000    -104.767317     -2850.8636
   2   1.0000    -104.766501     -2850.8414
   3   1.0000    -104.764782     -2850.7946
   4   1.0000     -32.206845      -876.3928
   5   1.0000     -27.682697      -753.2845
   6   1.0000     -27.682578      -753.2812
   7   1.0000     -27.682320      -753.2742
   8   1.0000     -20.535130      -558.7893
   9   1.0000     -11.402572      -310.2797
  10   1.0000     -11.341622      -308.6212
  11   1.0000     -11.308439      -307.7183
  12   1.0000     -11.292391      -307.2816
  13   1.0000     -11.277247      -306.8695
  14   1.0000     -11.255636      -306.2814
  15   1.0000     -11.243113      -305.9406
  16   1.0000     -11.232277      -305.6458
  17   1.0000     -10.493904      -285.5536
  18   1.0000     -10.493056      -285.5306
  19   1.0000     -10.491380      -285.4850
  20   1.0000      -7.960781      -216.6239
  21   1.0000      -7.959954      -216.6014
  22   1.0000      -7.959892      -216.5997
  23   1.0000      -7.959892      -216.5997
  24   1.0000      -7.959153      -216.5796
  25   1.0000      -7.959056      -216.5769
  26   1.0000      -7.958203      -216.5537
  27   1.0000      -7.957481      -216.5341
  28   1.0000      -7.957406      -216.5320
  29   1.0000      -4.562335      -124.1474
  30   1.0000      -3.174816       -86.3911
  31   1.0000      -3.174519       -86.3831
  32   1.0000      -3.173958       -86.3678
  33   1.0000      -1.367600       -37.2143
  34   1.0000      -1.205767       -32.8106
  35   1.0000      -1.092286       -29.7226
  36   1.0000      -1.047007       -28.4905
  37   1.0000      -1.038279       -28.2530
  38   1.0000      -1.033053       -28.1108
  39   1.0000      -1.031329       -28.0639
  40   1.0000      -1.021816       -27.8050
  41   1.0000      -0.966447       -26.2984
  42   1.0000      -0.933521       -25.4024
  43   1.0000      -0.903979       -24.5985
  44   1.0000      -0.891974       -24.2719
  45   1.0000      -0.891876       -24.2692
  46   1.0000      -0.883613       -24.0443
  47   1.0000      -0.883262       -24.0348
  48   1.0000      -0.805530       -21.9196
  49   1.0000      -0.769164       -20.9300
  50   1.0000      -0.717075       -19.5126
  51   1.0000      -0.700109       -19.0509
  52   1.0000      -0.678766       -18.4702
  53   1.0000      -0.649470       -17.6730
  54   1.0000      -0.647408       -17.6169
  55   1.0000      -0.634910       -17.2768
  56   1.0000      -0.612627       -16.6704
  57   1.0000      -0.599426       -16.3112
  58   1.0000      -0.591708       -16.1012
  59   1.0000      -0.583365       -15.8742
  60   1.0000      -0.571673       -15.5560
  61   1.0000      -0.562427       -15.3044
  62   1.0000      -0.553272       -15.0553
  63   1.0000      -0.538071       -14.6417
  64   1.0000      -0.529185       -14.3998
  65   1.0000      -0.512138       -13.9360
  66   1.0000      -0.499563       -13.5938
  67   1.0000      -0.464032       -12.6270
  68   1.0000      -0.458628       -12.4799
  69   1.0000      -0.439055       -11.9473
  70   1.0000      -0.431654       -11.7459
  71   1.0000      -0.418079       -11.3765
  72   1.0000      -0.413925       -11.2635
  73   1.0000      -0.409678       -11.1479
  74   1.0000      -0.406342       -11.0571
  75   1.0000      -0.405050       -11.0220
  76   1.0000      -0.404358       -11.0031
  77   0.0000      -0.001857        -0.0505
  78   0.0000       0.001003         0.0273
  79   0.0000       0.017024         0.4632
  80   0.0000       0.017653         0.4804
  81   0.0000       0.027158         0.7390

                 SPIN DOWN ORBITALS
  NO   OCC          E(Eh)            E(eV)
   0   1.0000    -261.535362     -7116.7390
   1   1.0000    -104.765964     -2850.8268
   2   1.0000    -104.765161     -2850.8050
   3   1.0000    -104.763374     -2850.7563
   4   1.0000     -32.044792      -871.9831
   5   1.0000     -27.522881      -748.9357
   6   1.0000     -27.522695      -748.9306
   7   1.0000     -27.522201      -748.9172
   8   1.0000     -20.529299      -558.6306
   9   1.0000     -11.402564      -310.2795
  10   1.0000     -11.341480      -308.6173
  11   1.0000     -11.308442      -307.7184
  12   1.0000     -11.292262      -307.2781
  13   1.0000     -11.277250      -306.8696
  14   1.0000     -11.255659      -306.2821
  15   1.0000     -11.243019      -305.9381
  16   1.0000     -11.232239      -305.6448
  17   1.0000     -10.492448      -285.5140
  18   1.0000     -10.491618      -285.4914
  19   1.0000     -10.489871      -285.4439
  20   1.0000      -7.958338      -216.5574
  21   1.0000      -7.957806      -216.5429
  22   1.0000      -7.957728      -216.5408
  23   1.0000      -7.957568      -216.5364
  24   1.0000      -7.956966      -216.5201
  25   1.0000      -7.956859      -216.5171
  26   1.0000      -7.955837      -216.4893
  27   1.0000      -7.955137      -216.4703
  28   1.0000      -7.955066      -216.4683
  29   1.0000      -4.120122      -112.1142
  30   1.0000      -2.642039       -71.8935
  31   1.0000      -2.641937       -71.8908
  32   1.0000      -2.641015       -71.8657
  33   1.0000      -1.352878       -36.8137
  34   1.0000      -1.204602       -32.7789
  35   1.0000      -1.089791       -29.6547
  36   1.0000      -1.046251       -28.4699
  37   1.0000      -1.024274       -27.8719
  38   1.0000      -1.020555       -27.7707
  39   1.0000      -1.012956       -27.5639
  40   1.0000      -1.011444       -27.5228
  41   1.0000      -0.965751       -26.2794
  42   1.0000      -0.933007       -25.3884
  43   1.0000      -0.810306       -22.0495
  44   1.0000      -0.776187       -21.1211
  45   1.0000      -0.717775       -19.5317
  46   1.0000      -0.699568       -19.0362
  47   1.0000      -0.678971       -18.4757
  48   1.0000      -0.649656       -17.6780
  49   1.0000      -0.648026       -17.6337
  50   1.0000      -0.634222       -17.2581
  51   1.0000      -0.612689       -16.6721
  52   1.0000      -0.599340       -16.3089
  53   1.0000      -0.591545       -16.0968
  54   1.0000      -0.582021       -15.8376
  55   1.0000      -0.570216       -15.5164
  56   1.0000      -0.562126       -15.2962
  57   1.0000      -0.553118       -15.0511
  58   1.0000      -0.537965       -14.6388
  59   1.0000      -0.526808       -14.3352
  60   1.0000      -0.508467       -13.8361
  61   1.0000      -0.494271       -13.4498
  62   1.0000      -0.461653       -12.5622
  63   1.0000      -0.459351       -12.4996
  64   1.0000      -0.444612       -12.0985
  65   1.0000      -0.438845       -11.9416
  66   1.0000      -0.428618       -11.6633
  67   1.0000      -0.425523       -11.5791
  68   1.0000      -0.424451       -11.5499
  69   1.0000      -0.404081       -10.9956
  70   1.0000      -0.396849       -10.7988
  71   1.0000      -0.391245       -10.6463
  72   0.0000      -0.001922        -0.0523
  73   0.0000       0.000984         0.0268
  74   0.0000       0.017016         0.4630
  75   0.0000       0.017638         0.4800
  76   0.0000       0.027176         0.7395

E(0)                                       ...  -3028.424310018
E(0)                                       ...  -3028.424310018
E(CORR)(strong-pairs)                      ...     -2.874045358
E(CORR)(weak-pairs)                        ...     -0.035507329
E(CORR)(corrected)                         ...     -2.909552687
E(TOT)                                     ...  -3031.333862704
E(CCSD(T))                                 ...  -3031.452497671
FINAL SINGLE POINT ENERGY     -3031.452497670696

DIPOLE MOMENT
-------------
                                X             Y             Z
Electronic contribution:     41.40134       7.25474      -0.78202
Nuclear contribution   :    -47.29355      -7.27612       0.71294
                        -----------------------------------------
Total Dipole Moment    :     -5.89221      -0.02138      -0.06908
                        -----------------------------------------
Magnitude (a.u.)       :      5.89265
Magnitude (Debye)      :     14.97793

Rotational constants in cm-1:     0.019846     0.010618     0.010096
Rotational constants in MHz :   594.962836   318.319529   302.684211

                             ****ORCA TERMINATED NORMALLY****
TOTAL RUN TIME: 0 days 20 hours 42 minutes 33 seconds 32 msec
