                         Program Version 4.1.2  - RELEASE  -
|  1> ! aug-cc-pVTZ aug-cc-pVTZ/C DLPNO-CCSD(T1) TightSCF NormalPNO UNO MiniPrint AutoAux
|  2> %pal nproc 10 end
|  3> %maxcore 20000
|  4> %mdci
|  5>      density none
|  6> end
|  7>
|  8> * xyz 0 6
|  9>  O     -0.30183300     -0.10258900     -0.41134000
| 10>  C     -1.23555500     -1.04200500     -0.19720000
| 11>  C     -2.51729700     -0.34991200      0.77266900
| 12>  C     -3.07435800      0.66933700     -0.05462800
| 13>  C     -4.25852000      0.41946100     -0.91254400
| 14> Fe      1.52521000      0.17062500     -0.09580700
| 15> Cl      1.85313800      2.18206500     -0.92967000
| 16>  C     -2.35190800      1.93486900     -0.18996000
| 17> Cl      2.53898300     -1.48774900     -1.13071200
| 18> Cl      1.85172100      0.11570000      2.09353700
| 19>  H     -3.20149500     -1.19354700      0.88848200
| 20>  H     -2.81682800      2.65076100     -0.86888900
| 21>  H     -2.12085500      2.39956600      0.77416900
| 22>  H     -1.34834300      1.61986300     -0.57430300
| 23>  H     -5.08147700      1.04296300     -0.52871700
| 24>  H     -4.08186900      0.75771000     -1.94096600
| 25>  H     -4.58327300     -0.62203700     -0.90647200
| 26>  C     -1.90125200      0.10708400      2.10113500
| 27>  H     -2.57748700      0.79425800      2.61973000
| 28>  H     -1.73733500     -0.75096500      2.75412200
| 29>  H     -0.93935700      0.60039900      1.95262000
| 30>  C     -0.73684100     -2.20688400      0.67340500
| 31>  H     -1.54359600     -2.89693300      0.93690500
| 32>  H      0.00717800     -2.74490000      0.07599400
| 33>  H     -0.23911100     -1.85222600      1.57605300
| 34>  C     -1.81298400     -1.55354900     -1.52019700
| 35>  H     -1.02434300     -2.11893600     -2.02593300
| 36>  H     -2.67300100     -2.21503700     -1.37256300
| 37>  H     -2.09265100     -0.72715300     -2.17826900
| 38> *
| 39>
| 40>
| 41>                          ****END OF INPUT****

CARTESIAN COORDINATES (ANGSTROEM)
---------------------------------
  O     -0.301833   -0.102589   -0.411340
  C     -1.235555   -1.042005   -0.197200
  C     -2.517297   -0.349912    0.772669
  C     -3.074358    0.669337   -0.054628
  C     -4.258520    0.419461   -0.912544
  Fe     1.525210    0.170625   -0.095807
  Cl     1.853138    2.182065   -0.929670
  C     -2.351908    1.934869   -0.189960
  Cl     2.538983   -1.487749   -1.130712
  Cl     1.851721    0.115700    2.093537
  H     -3.201495   -1.193547    0.888482
  H     -2.816828    2.650761   -0.868889
  H     -2.120855    2.399566    0.774169
  H     -1.348343    1.619863   -0.574303
  H     -5.081477    1.042963   -0.528717
  H     -4.081869    0.757710   -1.940966
  H     -4.583273   -0.622037   -0.906472
  C     -1.901252    0.107084    2.101135
  H     -2.577487    0.794258    2.619730
  H     -1.737335   -0.750965    2.754122
  H     -0.939357    0.600399    1.952620
  C     -0.736841   -2.206884    0.673405
  H     -1.543596   -2.896933    0.936905
  H      0.007178   -2.744900    0.075994
  H     -0.239111   -1.852226    1.576053
  C     -1.812984   -1.553549   -1.520197
  H     -1.024343   -2.118936   -2.025933
  H     -2.673001   -2.215037   -1.372563
  H     -2.092651   -0.727153   -2.178269

ORBITAL ENERGIES
----------------
                 SPIN UP ORBITALS
  NO   OCC          E(Eh)            E(eV)
   0   1.0000    -261.539400     -7116.8489
   1   1.0000    -104.766988     -2850.8547
   2   1.0000    -104.765318     -2850.8092
   3   1.0000    -104.763701     -2850.7652
   4   1.0000     -32.207316      -876.4056
   5   1.0000     -27.683250      -753.2995
   6   1.0000     -27.682978      -753.2921
   7   1.0000     -27.682788      -753.2869
   8   1.0000     -20.540596      -558.9380
   9   1.0000     -11.396451      -310.1132
  10   1.0000     -11.356034      -309.0134
  11   1.0000     -11.307384      -307.6896
  12   1.0000     -11.290354      -307.2261
  13   1.0000     -11.280728      -306.9642
  14   1.0000     -11.254242      -306.2435
  15   1.0000     -11.247351      -306.0560
  16   1.0000     -11.236319      -305.7558
  17   1.0000     -10.493620      -285.5459
  18   1.0000     -10.491907      -285.4993
  19   1.0000     -10.490323      -285.4562
  20   1.0000      -7.960492      -216.6160
  21   1.0000      -7.959674      -216.5937
  22   1.0000      -7.959620      -216.5923
  23   1.0000      -7.958729      -216.5680
  24   1.0000      -7.958018      -216.5487
  25   1.0000      -7.957916      -216.5459
  26   1.0000      -7.957178      -216.5258
  27   1.0000      -7.956419      -216.5052
  28   1.0000      -7.956335      -216.5029
  29   1.0000      -4.562761      -124.1590
  30   1.0000      -3.175328       -86.4051
  31   1.0000      -3.174854       -86.3922
  32   1.0000      -3.174369       -86.3790
  33   1.0000      -1.372847       -37.3571
  34   1.0000      -1.201438       -32.6928
  35   1.0000      -1.085103       -29.5272
  36   1.0000      -1.047134       -28.4940
  37   1.0000      -1.037901       -28.2427
  38   1.0000      -1.032683       -28.1007
  39   1.0000      -1.030572       -28.0433
  40   1.0000      -1.022180       -27.8149
  41   1.0000      -0.969880       -26.3918
  42   1.0000      -0.931948       -25.3596
  43   1.0000      -0.905882       -24.6503
  44   1.0000      -0.892284       -24.2803
  45   1.0000      -0.892249       -24.2793
  46   1.0000      -0.883628       -24.0448
  47   1.0000      -0.883262       -24.0348
  48   1.0000      -0.800323       -21.7779
  49   1.0000      -0.768799       -20.9201
  50   1.0000      -0.712712       -19.3939
  51   1.0000      -0.696416       -18.9504
  52   1.0000      -0.675696       -18.3866
  53   1.0000      -0.651450       -17.7269
  54   1.0000      -0.648650       -17.6507
  55   1.0000      -0.637327       -17.3426
  56   1.0000      -0.609428       -16.5834
  57   1.0000      -0.603085       -16.4108
  58   1.0000      -0.591836       -16.1047
  59   1.0000      -0.583795       -15.8859
  60   1.0000      -0.576498       -15.6873
  61   1.0000      -0.562777       -15.3139
  62   1.0000      -0.554611       -15.0917
  63   1.0000      -0.539011       -14.6672
  64   1.0000      -0.533351       -14.5132
  65   1.0000      -0.518137       -14.0992
  66   1.0000      -0.500936       -13.6312
  67   1.0000      -0.463414       -12.6101
  68   1.0000      -0.456260       -12.4155
  69   1.0000      -0.439500       -11.9594
  70   1.0000      -0.425991       -11.5918
  71   1.0000      -0.417988       -11.3740
  72   1.0000      -0.413743       -11.2585
  73   1.0000      -0.406788       -11.0693
  74   1.0000      -0.404358       -11.0031
  75   1.0000      -0.403811       -10.9882
  76   1.0000      -0.403350       -10.9757
  77   0.0000      -0.004300        -0.1170
  78   0.0000       0.000689         0.0187
  79   0.0000       0.016592         0.4515
  80   0.0000       0.017369         0.4726
  81   0.0000       0.026606         0.7240

                 SPIN DOWN ORBITALS
  NO   OCC          E(Eh)            E(eV)
   0   1.0000    -261.535849     -7116.7523
   1   1.0000    -104.765617     -2850.8174
   2   1.0000    -104.763953     -2850.7721
   3   1.0000    -104.762279     -2850.7265
   4   1.0000     -32.045228      -871.9950
   5   1.0000     -27.523287      -748.9467
   6   1.0000     -27.523151      -748.9430
   7   1.0000     -27.522676      -748.9301
   8   1.0000     -20.535092      -558.7883
   9   1.0000     -11.396382      -310.1113
  10   1.0000     -11.355927      -309.0105
  11   1.0000     -11.307395      -307.6899
  12   1.0000     -11.290222      -307.2226
  13   1.0000     -11.280737      -306.9645
  14   1.0000     -11.254274      -306.2444
  15   1.0000     -11.247250      -306.0532
  16   1.0000     -11.236290      -305.7550
  17   1.0000     -10.492146      -285.5058
  18   1.0000     -10.490445      -285.4595
  19   1.0000     -10.488798      -285.4147
  20   1.0000      -7.958043      -216.5493
  21   1.0000      -7.957483      -216.5341
  22   1.0000      -7.957413      -216.5322
  23   1.0000      -7.956416      -216.5051
  24   1.0000      -7.955759      -216.4872
  25   1.0000      -7.955653      -216.4843
  26   1.0000      -7.954729      -216.4592
  27   1.0000      -7.954083      -216.4416
  28   1.0000      -7.954002      -216.4394
  29   1.0000      -4.120455      -112.1233
  30   1.0000      -2.642319       -71.9012
  31   1.0000      -2.642249       -71.8993
  32   1.0000      -2.641344       -71.8746
  33   1.0000      -1.358752       -36.9735
  34   1.0000      -1.200535       -32.6682
  35   1.0000      -1.082683       -29.4613
  36   1.0000      -1.046127       -28.4666
  37   1.0000      -1.023903       -27.8618
  38   1.0000      -1.021214       -27.7886
  39   1.0000      -1.012275       -27.5454
  40   1.0000      -1.010366       -27.4935
  41   1.0000      -0.969253       -26.3747
  42   1.0000      -0.931675       -25.3522
  43   1.0000      -0.806145       -21.9363
  44   1.0000      -0.775978       -21.1154
  45   1.0000      -0.713318       -19.4104
  46   1.0000      -0.695764       -18.9327
  47   1.0000      -0.675799       -18.3894
  48   1.0000      -0.653882       -17.7930
  49   1.0000      -0.647748       -17.6261
  50   1.0000      -0.636384       -17.3169
  51   1.0000      -0.609425       -16.5833
  52   1.0000      -0.602945       -16.4070
  53   1.0000      -0.591550       -16.0969
  54   1.0000      -0.582889       -15.8612
  55   1.0000      -0.575528       -15.6609
  56   1.0000      -0.562446       -15.3049
  57   1.0000      -0.554681       -15.0936
  58   1.0000      -0.538938       -14.6652
  59   1.0000      -0.531946       -14.4750
  60   1.0000      -0.513235       -13.9658
  61   1.0000      -0.494278       -13.4500
  62   1.0000      -0.461721       -12.5641
  63   1.0000      -0.457793       -12.4572
  64   1.0000      -0.447142       -12.1674
  65   1.0000      -0.431445       -11.7402
  66   1.0000      -0.427970       -11.6456
  67   1.0000      -0.424535       -11.5522
  68   1.0000      -0.423823       -11.5328
  69   1.0000      -0.402920       -10.9640
  70   1.0000      -0.393885       -10.7182
  71   1.0000      -0.390071       -10.6144
  72   0.0000      -0.004408        -0.1200
  73   0.0000       0.000687         0.0187
  74   0.0000       0.016586         0.4513
  75   0.0000       0.017354         0.4722
  76   0.0000       0.026618         0.7243

E(0)                                       ...  -3028.426095008
E(0)                                       ...  -3028.426095008
E(CORR)(strong-pairs)                      ...     -2.873471686
E(CORR)(weak-pairs)                        ...     -0.035294247
E(CORR)(corrected)                         ...     -2.908765933
E(TOT)                                     ...  -3031.334860941
E(CCSD(T))                                 ...  -3031.454302327
FINAL SINGLE POINT ENERGY     -3031.454302326538

DIPOLE MOMENT
-------------
                                X             Y             Z
Electronic contribution:     42.91088       6.68059      -1.46037
Nuclear contribution   :    -48.97319      -6.81167       1.44009
                        -----------------------------------------
Total Dipole Moment    :     -6.06230      -0.13109      -0.02027
                        -----------------------------------------
Magnitude (a.u.)       :      6.06375
Magnitude (Debye)      :     15.41284

Rotational constants in cm-1:     0.020240     0.010097     0.009662
Rotational constants in MHz :   606.774797   302.713925   289.656450

                             ****ORCA TERMINATED NORMALLY****
TOTAL RUN TIME: 0 days 20 hours 7 minutes 45 seconds 65 msec
