                         Program Version 4.1.2  - RELEASE  -
|  1> ! aug-cc-pVTZ aug-cc-pVTZ/C DLPNO-CCSD(T1) TightSCF NormalPNO UNO MiniPrint AutoAux
|  2> %pal nproc 10 end
|  3> %maxcore 20000
|  4> %mdci
|  5>      density none
|  6> end
|  7>
|  8> * xyz 0 6
|  9>  O      0.21884200      0.39759300     -0.84522900
| 10>  C      0.95291200      1.38845800     -0.63956000
| 11>  C      3.17566500      0.00671300      0.48855700
| 12>  C      2.59674300     -0.95696800     -0.25298300
| 13>  C      2.94803900     -1.14609100     -1.70483700
| 14> Fe     -1.47160700     -0.16183100      0.03010900
| 15> Cl     -2.08488200     -1.94969400     -1.04069300
| 16>  C      1.65241000     -1.99171900      0.28837000
| 17> Cl     -2.68781700      1.62152600     -0.33553200
| 18> Cl     -1.08864400     -0.45851400      2.16824000
| 19>  H      3.90760000      0.64640600     -0.00676300
| 20>  H      2.15478000     -2.96862600      0.31060700
| 21>  H      1.29268100     -1.77742000      1.29444000
| 22>  H      0.78538000     -2.11305600     -0.37135700
| 23>  H      3.38616900     -2.14087600     -1.85958300
| 24>  H      2.04813800     -1.10550300     -2.33220800
| 25>  H      3.66788300     -0.40354200     -2.06193000
| 26>  C      3.04310700      0.21396200      1.97231100
| 27>  H      3.89178600     -0.24209700      2.50053000
| 28>  H      3.05399000      1.27907300      2.22993100
| 29>  H      2.12885300     -0.22195700      2.38316300
| 30>  C      0.82766900      2.20441400      0.60684500
| 31>  H      1.70804900      2.82542400      0.77761200
| 32>  H     -0.04315800      2.86166600      0.46434300
| 33>  H      0.62170800      1.57742900      1.47524600
| 34>  C      1.76078600      1.93105100     -1.77624400
| 35>  H      1.20530900      2.79665000     -2.16660900
| 36>  H      2.73630800      2.28996600     -1.44313300
| 37>  H      1.86441200      1.19799800     -2.57430100
| 38> *
| 39>
| 40>
| 41>                          ****END OF INPUT****

CARTESIAN COORDINATES (ANGSTROEM)
---------------------------------
  O      0.218842    0.397593   -0.845229
  C      0.952912    1.388458   -0.639560
  C      3.175665    0.006713    0.488557
  C      2.596743   -0.956968   -0.252983
  C      2.948039   -1.146091   -1.704837
  Fe    -1.471607   -0.161831    0.030109
  Cl    -2.084882   -1.949694   -1.040693
  C      1.652410   -1.991719    0.288370
  Cl    -2.687817    1.621526   -0.335532
  Cl    -1.088644   -0.458514    2.168240
  H      3.907600    0.646406   -0.006763
  H      2.154780   -2.968626    0.310607
  H      1.292681   -1.777420    1.294440
  H      0.785380   -2.113056   -0.371357
  H      3.386169   -2.140876   -1.859583
  H      2.048138   -1.105503   -2.332208
  H      3.667883   -0.403542   -2.061930
  C      3.043107    0.213962    1.972311
  H      3.891786   -0.242097    2.500530
  H      3.053990    1.279073    2.229931
  H      2.128853   -0.221957    2.383163
  C      0.827669    2.204414    0.606845
  H      1.708049    2.825424    0.777612
  H     -0.043158    2.861666    0.464343
  H      0.621708    1.577429    1.475246
  C      1.760786    1.931051   -1.776244
  H      1.205309    2.796650   -2.166609
  H      2.736308    2.289966   -1.443133
  H      1.864412    1.197998   -2.574301

ORBITAL ENERGIES
----------------
                 SPIN UP ORBITALS
  NO   OCC          E(Eh)            E(eV)
   0   1.0000    -261.578906     -7117.9239
   1   1.0000    -104.795562     -2851.6322
   2   1.0000    -104.792714     -2851.5547
   3   1.0000    -104.790937     -2851.5064
   4   1.0000     -32.246552      -877.4733
   5   1.0000     -27.723092      -754.3837
   6   1.0000     -27.721859      -754.3501
   7   1.0000     -27.721673      -754.3451
   8   1.0000     -20.625886      -561.2589
   9   1.0000     -11.422503      -310.8221
  10   1.0000     -11.279544      -306.9320
  11   1.0000     -11.273547      -306.7688
  12   1.0000     -11.259467      -306.3857
  13   1.0000     -11.239530      -305.8432
  14   1.0000     -11.238336      -305.8107
  15   1.0000     -11.235582      -305.7357
  16   1.0000     -11.226045      -305.4762
  17   1.0000     -10.522293      -286.3262
  18   1.0000     -10.519420      -286.2480
  19   1.0000     -10.517588      -286.1981
  20   1.0000      -7.989114      -217.3949
  21   1.0000      -7.988383      -217.3750
  22   1.0000      -7.988323      -217.3733
  23   1.0000      -7.986318      -217.3188
  24   1.0000      -7.985509      -217.2967
  25   1.0000      -7.985453      -217.2952
  26   1.0000      -7.984368      -217.2657
  27   1.0000      -7.983716      -217.2480
  28   1.0000      -7.983676      -217.2469
  29   1.0000      -4.601304      -125.2078
  30   1.0000      -3.214466       -87.4701
  31   1.0000      -3.212636       -87.4203
  32   1.0000      -3.212534       -87.4175
  33   1.0000      -1.470593       -40.0169
  34   1.0000      -1.120220       -30.4827
  35   1.0000      -1.103667       -30.0323
  36   1.0000      -1.069121       -29.0923
  37   1.0000      -1.063370       -28.9358
  38   1.0000      -1.060786       -28.8655
  39   1.0000      -1.020870       -27.7793
  40   1.0000      -1.009164       -27.4607
  41   1.0000      -0.954394       -25.9704
  42   1.0000      -0.944849       -25.7107
  43   1.0000      -0.930145       -25.3105
  44   1.0000      -0.930013       -25.3070
  45   1.0000      -0.919063       -25.0090
  46   1.0000      -0.918472       -24.9929
  47   1.0000      -0.892147       -24.2765
  48   1.0000      -0.816988       -22.2314
  49   1.0000      -0.724542       -19.7158
  50   1.0000      -0.715860       -19.4795
  51   1.0000      -0.706074       -19.2132
  52   1.0000      -0.685859       -18.6632
  53   1.0000      -0.650646       -17.7050
  54   1.0000      -0.621978       -16.9249
  55   1.0000      -0.617169       -16.7940
  56   1.0000      -0.603486       -16.4217
  57   1.0000      -0.600013       -16.3272
  58   1.0000      -0.586547       -15.9608
  59   1.0000      -0.580000       -15.7826
  60   1.0000      -0.561033       -15.2665
  61   1.0000      -0.548603       -14.9282
  62   1.0000      -0.548128       -14.9153
  63   1.0000      -0.537032       -14.6134
  64   1.0000      -0.536249       -14.5921
  65   1.0000      -0.523177       -14.2364
  66   1.0000      -0.506184       -13.7740
  67   1.0000      -0.488850       -13.3023
  68   1.0000      -0.478728       -13.0268
  69   1.0000      -0.478219       -13.0130
  70   1.0000      -0.448897       -12.2151
  71   1.0000      -0.442457       -12.0399
  72   1.0000      -0.440705       -11.9922
  73   1.0000      -0.432121       -11.7586
  74   1.0000      -0.431013       -11.7285
  75   1.0000      -0.429905       -11.6983
  76   1.0000      -0.355562        -9.6753
  77   0.0000       0.012809         0.3486
  78   0.0000       0.023922         0.6509
  79   0.0000       0.024804         0.6749
  80   0.0000       0.030850         0.8395
  81   0.0000       0.039553         1.0763

                 SPIN DOWN ORBITALS
  NO   OCC          E(Eh)            E(eV)
   0   1.0000    -261.575321     -7117.8264
   1   1.0000    -104.794059     -2851.5913
   2   1.0000    -104.791151     -2851.5122
   3   1.0000    -104.789360     -2851.4634
   4   1.0000     -32.084587      -873.0660
   5   1.0000     -27.562542      -750.0149
   6   1.0000     -27.562405      -750.0112
   7   1.0000     -27.562332      -750.0092
   8   1.0000     -20.622574      -561.1688
   9   1.0000     -11.422425      -310.8200
  10   1.0000     -11.279441      -306.9292
  11   1.0000     -11.273543      -306.7687
  12   1.0000     -11.259524      -306.3872
  13   1.0000     -11.239452      -305.8410
  14   1.0000     -11.238328      -305.8104
  15   1.0000     -11.235590      -305.7359
  16   1.0000     -11.226052      -305.4764
  17   1.0000     -10.520689      -286.2825
  18   1.0000     -10.517751      -286.2026
  19   1.0000     -10.515914      -286.1526
  20   1.0000      -7.986620      -217.3270
  21   1.0000      -7.985847      -217.3059
  22   1.0000      -7.985808      -217.3049
  23   1.0000      -7.983610      -217.2451
  24   1.0000      -7.982953      -217.2272
  25   1.0000      -7.982857      -217.2246
  26   1.0000      -7.981912      -217.1989
  27   1.0000      -7.980986      -217.1737
  28   1.0000      -7.980907      -217.1715
  29   1.0000      -4.159283      -113.1798
  30   1.0000      -2.680827       -72.9490
  31   1.0000      -2.680758       -72.9471
  32   1.0000      -2.680358       -72.9363
  33   1.0000      -1.462523       -39.7973
  34   1.0000      -1.119928       -30.4748
  35   1.0000      -1.101510       -29.9736
  36   1.0000      -1.053362       -28.6635
  37   1.0000      -1.040742       -28.3200
  38   1.0000      -1.037835       -28.2409
  39   1.0000      -1.019926       -27.7536
  40   1.0000      -1.008911       -27.4539
  41   1.0000      -0.954199       -25.9651
  42   1.0000      -0.892236       -24.2790
  43   1.0000      -0.828991       -22.5580
  44   1.0000      -0.724635       -19.7183
  45   1.0000      -0.717446       -19.5227
  46   1.0000      -0.705328       -19.1930
  47   1.0000      -0.685304       -18.6481
  48   1.0000      -0.650599       -17.7037
  49   1.0000      -0.621412       -16.9095
  50   1.0000      -0.617083       -16.7917
  51   1.0000      -0.603337       -16.4176
  52   1.0000      -0.599933       -16.3250
  53   1.0000      -0.586289       -15.9537
  54   1.0000      -0.578776       -15.7493
  55   1.0000      -0.560032       -15.2392
  56   1.0000      -0.548111       -14.9149
  57   1.0000      -0.545989       -14.8571
  58   1.0000      -0.536518       -14.5994
  59   1.0000      -0.526644       -14.3307
  60   1.0000      -0.522602       -14.2207
  61   1.0000      -0.507800       -13.8179
  62   1.0000      -0.488812       -13.3013
  63   1.0000      -0.486941       -13.2503
  64   1.0000      -0.484963       -13.1965
  65   1.0000      -0.455746       -12.4015
  66   1.0000      -0.452863       -12.3230
  67   1.0000      -0.449754       -12.2384
  68   1.0000      -0.433129       -11.7861
  69   1.0000      -0.431435       -11.7399
  70   1.0000      -0.415082       -11.2950
  71   1.0000      -0.355147        -9.6640
  72   0.0000       0.012793         0.3481
  73   0.0000       0.023898         0.6503
  74   0.0000       0.024763         0.6738
  75   0.0000       0.030793         0.8379
  76   0.0000       0.039466         1.0739

E(0)                                       ...  -3028.470156108
E(0)                                       ...  -3028.470156108
E(CORR)(strong-pairs)                      ...     -2.866271084
E(CORR)(weak-pairs)                        ...     -0.035185551
E(CORR)(corrected)                         ...     -2.901456634
E(TOT)                                     ...  -3031.371612742
E(CCSD(T))                                 ...  -3031.489311138
FINAL SINGLE POINT ENERGY     -3031.489311138486

DIPOLE MOMENT
-------------
                                X             Y             Z
Electronic contribution:    -43.53788      -4.46989       1.93481
Nuclear contribution   :     46.66305       6.02441      -2.54530
                        -----------------------------------------
Total Dipole Moment    :      3.12517       1.55452      -0.61048
                        -----------------------------------------
Magnitude (a.u.)       :      3.54343
Magnitude (Debye)      :      9.00669

Rotational constants in cm-1:     0.018700     0.010721     0.010103
Rotational constants in MHz :   560.597968   321.393071   302.891844

                             ****ORCA TERMINATED NORMALLY****
TOTAL RUN TIME: 0 days 17 hours 1 minutes 35 seconds 367 msec
