                         Program Version 4.1.2  - RELEASE  -
|  1> ! aug-cc-pVTZ aug-cc-pVTZ/C DLPNO-CCSD(T1) TightSCF NormalPNO UNO MiniPrint AutoAux
|  2> %pal nproc 10 end
|  3> %maxcore 20000
|  4> %mdci
|  5>      density none
|  6> end
|  7>
|  8> * xyz 0 6
|  9>  O     -0.38769900     -0.19900500     -0.53729200
| 10>  C     -1.39576200     -1.20638000     -0.38476800
| 11>  C     -2.81805400     -0.12328800     -0.17503600
| 12>  C     -1.99876700      1.12192500     -0.27345100
| 13>  C     -1.89575100      1.82794300     -1.57257200
| 14> Fe      1.37828800      0.04454600      0.03655700
| 15> Cl      1.81704600      2.03685500     -0.82928300
| 16>  C     -1.57206500      1.85388800      0.94170700
| 17> Cl      2.52564700     -1.66692800     -0.71701900
| 18> Cl      1.32791100      0.14428700      2.25170900
| 19>  H     -3.42964900     -0.24684500     -1.07160300
| 20>  H     -2.43615200      2.45986300      1.26119700
| 21>  H     -1.31001500      1.18946900      1.76574100
| 22>  H     -0.73764000      2.52627200      0.73262900
| 23>  H     -2.66833000      2.61500300     -1.56911600
| 24>  H     -0.92072100      2.31182200     -1.67676800
| 25>  H     -2.08683000      1.16654400     -2.41879400
| 26>  C     -3.63081500     -0.34581100      1.08884600
| 27>  H     -4.43134200      0.39810000      1.18220400
| 28>  H     -4.10323800     -1.33182000      1.05276200
| 29>  H     -3.02202800     -0.30212200      1.99475400
| 30>  C     -1.16517300     -2.07406600      0.83055400
| 31>  H     -1.98457800     -2.78563800      0.97118600
| 32>  H     -0.24098500     -2.64458800      0.67456500
| 33>  H     -1.03382100     -1.48232200      1.73813000
| 34>  C     -1.53521600     -1.98985900     -1.67147600
| 35>  H     -0.59462700     -2.52200000     -1.85765100
| 36>  H     -2.34786700     -2.72115200     -1.60597600
| 37>  H     -1.71672400     -1.32448400     -2.52016300
| 38> *
| 39>
| 40>
| 41>                          ****END OF INPUT****

CARTESIAN COORDINATES (ANGSTROEM)
---------------------------------
  O     -0.387699   -0.199005   -0.537292
  C     -1.395762   -1.206380   -0.384768
  C     -2.818054   -0.123288   -0.175036
  C     -1.998767    1.121925   -0.273451
  C     -1.895751    1.827943   -1.572572
  Fe     1.378288    0.044546    0.036557
  Cl     1.817046    2.036855   -0.829283
  C     -1.572065    1.853888    0.941707
  Cl     2.525647   -1.666928   -0.717019
  Cl     1.327911    0.144287    2.251709
  H     -3.429649   -0.246845   -1.071603
  H     -2.436152    2.459863    1.261197
  H     -1.310015    1.189469    1.765741
  H     -0.737640    2.526272    0.732629
  H     -2.668330    2.615003   -1.569116
  H     -0.920721    2.311822   -1.676768
  H     -2.086830    1.166544   -2.418794
  C     -3.630815   -0.345811    1.088846
  H     -4.431342    0.398100    1.182204
  H     -4.103238   -1.331820    1.052762
  H     -3.022028   -0.302122    1.994754
  C     -1.165173   -2.074066    0.830554
  H     -1.984578   -2.785638    0.971186
  H     -0.240985   -2.644588    0.674565
  H     -1.033821   -1.482322    1.738130
  C     -1.535216   -1.989859   -1.671476
  H     -0.594627   -2.522000   -1.857651
  H     -2.347867   -2.721152   -1.605976
  H     -1.716724   -1.324484   -2.520163

ORBITAL ENERGIES
----------------
                 SPIN UP ORBITALS
  NO   OCC          E(Eh)            E(eV)
   0   1.0000    -261.548332     -7117.0919
   1   1.0000    -104.776658     -2851.1178
   2   1.0000    -104.774935     -2851.0709
   3   1.0000    -104.772916     -2851.0160
   4   1.0000     -32.216243      -876.6485
   5   1.0000     -27.692128      -753.5411
   6   1.0000     -27.691995      -753.5375
   7   1.0000     -27.691669      -753.5286
   8   1.0000     -20.555484      -559.3432
   9   1.0000     -11.404433      -310.3304
  10   1.0000     -11.349665      -308.8401
  11   1.0000     -11.291562      -307.2590
  12   1.0000     -11.279311      -306.9256
  13   1.0000     -11.276456      -306.8480
  14   1.0000     -11.262622      -306.4715
  15   1.0000     -11.240057      -305.8575
  16   1.0000     -11.236797      -305.7688
  17   1.0000     -10.503221      -285.8072
  18   1.0000     -10.501582      -285.7626
  19   1.0000     -10.499515      -285.7063
  20   1.0000      -7.970050      -216.8761
  21   1.0000      -7.969301      -216.8557
  22   1.0000      -7.969224      -216.8536
  23   1.0000      -7.968471      -216.8331
  24   1.0000      -7.967623      -216.8100
  25   1.0000      -7.967585      -216.8090
  26   1.0000      -7.966314      -216.7744
  27   1.0000      -7.965632      -216.7559
  28   1.0000      -7.965555      -216.7538
  29   1.0000      -4.571665      -124.4013
  30   1.0000      -3.184078       -86.6432
  31   1.0000      -3.183876       -86.6377
  32   1.0000      -3.183254       -86.6207
  33   1.0000      -1.357817       -36.9481
  34   1.0000      -1.172234       -31.8981
  35   1.0000      -1.085493       -29.5378
  36   1.0000      -1.047738       -28.5104
  37   1.0000      -1.042165       -28.3587
  38   1.0000      -1.040187       -28.3049
  39   1.0000      -1.039148       -28.2767
  40   1.0000      -1.013017       -27.5656
  41   1.0000      -0.967776       -26.3345
  42   1.0000      -0.929553       -25.2944
  43   1.0000      -0.904453       -24.6114
  44   1.0000      -0.901148       -24.5215
  45   1.0000      -0.900713       -24.5096
  46   1.0000      -0.892883       -24.2966
  47   1.0000      -0.892403       -24.2835
  48   1.0000      -0.791725       -21.5439
  49   1.0000      -0.759338       -20.6626
  50   1.0000      -0.697968       -18.9927
  51   1.0000      -0.687022       -18.6948
  52   1.0000      -0.670039       -18.2327
  53   1.0000      -0.638808       -17.3828
  54   1.0000      -0.629082       -17.1182
  55   1.0000      -0.626042       -17.0355
  56   1.0000      -0.599165       -16.3041
  57   1.0000      -0.597191       -16.2504
  58   1.0000      -0.592796       -16.1308
  59   1.0000      -0.580451       -15.7949
  60   1.0000      -0.574970       -15.6457
  61   1.0000      -0.558692       -15.2028
  62   1.0000      -0.548143       -14.9157
  63   1.0000      -0.539089       -14.6694
  64   1.0000      -0.531908       -14.4739
  65   1.0000      -0.522028       -14.2051
  66   1.0000      -0.506109       -13.7719
  67   1.0000      -0.477183       -12.9848
  68   1.0000      -0.463295       -12.6069
  69   1.0000      -0.451156       -12.2766
  70   1.0000      -0.432484       -11.7685
  71   1.0000      -0.426774       -11.6131
  72   1.0000      -0.422855       -11.5065
  73   1.0000      -0.416589       -11.3360
  74   1.0000      -0.413975       -11.2648
  75   1.0000      -0.412490       -11.2244
  76   1.0000      -0.405323       -11.0294
  77   0.0000       0.007324         0.1993
  78   0.0000       0.019671         0.5353
  79   0.0000       0.021995         0.5985
  80   0.0000       0.030710         0.8357
  81   0.0000       0.036005         0.9798

                 SPIN DOWN ORBITALS
  NO   OCC          E(Eh)            E(eV)
   0   1.0000    -261.544784     -7116.9954
   1   1.0000    -104.775342     -2851.0820
   2   1.0000    -104.773562     -2851.0336
   3   1.0000    -104.771470     -2850.9766
   4   1.0000     -32.054259      -872.2407
   5   1.0000     -27.532327      -749.1927
   6   1.0000     -27.532137      -749.1875
   7   1.0000     -27.531685      -749.1752
   8   1.0000     -20.549799      -559.1885
   9   1.0000     -11.404479      -310.3317
  10   1.0000     -11.349509      -308.8358
  11   1.0000     -11.291380      -307.2541
  12   1.0000     -11.279290      -306.9251
  13   1.0000     -11.276466      -306.8482
  14   1.0000     -11.262626      -306.4716
  15   1.0000     -11.240005      -305.8561
  16   1.0000     -11.236779      -305.7683
  17   1.0000     -10.501808      -285.7687
  18   1.0000     -10.500105      -285.7224
  19   1.0000     -10.497968      -285.6642
  20   1.0000      -7.967762      -216.8138
  21   1.0000      -7.967157      -216.7974
  22   1.0000      -7.967081      -216.7953
  23   1.0000      -7.965991      -216.7656
  24   1.0000      -7.965448      -216.7509
  25   1.0000      -7.965383      -216.7491
  26   1.0000      -7.963950      -216.7101
  27   1.0000      -7.963178      -216.6891
  28   1.0000      -7.963120      -216.6875
  29   1.0000      -4.129578      -112.3715
  30   1.0000      -2.651466       -72.1501
  31   1.0000      -2.651389       -72.1480
  32   1.0000      -2.650481       -72.1233
  33   1.0000      -1.342855       -36.5409
  34   1.0000      -1.170867       -31.8609
  35   1.0000      -1.082882       -29.4667
  36   1.0000      -1.037826       -28.2407
  37   1.0000      -1.033311       -28.1178
  38   1.0000      -1.022706       -27.8292
  39   1.0000      -1.019941       -27.7540
  40   1.0000      -1.012497       -27.5514
  41   1.0000      -0.967138       -26.3172
  42   1.0000      -0.924863       -25.1668
  43   1.0000      -0.795102       -21.6358
  44   1.0000      -0.764078       -20.7916
  45   1.0000      -0.698081       -18.9958
  46   1.0000      -0.686460       -18.6795
  47   1.0000      -0.670903       -18.2562
  48   1.0000      -0.640296       -17.4233
  49   1.0000      -0.629298       -17.1241
  50   1.0000      -0.623996       -16.9798
  51   1.0000      -0.599245       -16.3063
  52   1.0000      -0.596246       -16.2247
  53   1.0000      -0.592694       -16.1280
  54   1.0000      -0.578963       -15.7544
  55   1.0000      -0.574369       -15.6294
  56   1.0000      -0.558537       -15.1986
  57   1.0000      -0.545744       -14.8504
  58   1.0000      -0.538556       -14.6549
  59   1.0000      -0.530237       -14.4285
  60   1.0000      -0.516629       -14.0582
  61   1.0000      -0.502679       -13.6786
  62   1.0000      -0.473536       -12.8856
  63   1.0000      -0.466590       -12.6966
  64   1.0000      -0.461076       -12.5465
  65   1.0000      -0.437802       -11.9132
  66   1.0000      -0.434157       -11.8140
  67   1.0000      -0.432820       -11.7776
  68   1.0000      -0.428759       -11.6671
  69   1.0000      -0.412532       -11.2256
  70   1.0000      -0.400575       -10.9002
  71   1.0000      -0.399986       -10.8842
  72   0.0000       0.007294         0.1985
  73   0.0000       0.019538         0.5317
  74   0.0000       0.021976         0.5980
  75   0.0000       0.030749         0.8367
  76   0.0000       0.035239         0.9589

E(0)                                       ...  -3028.429070398
E(0)                                       ...  -3028.429070398
E(CORR)(strong-pairs)                      ...     -2.872147215
E(CORR)(weak-pairs)                        ...     -0.035395841
E(CORR)(corrected)                         ...     -2.907543056
E(TOT)                                     ...  -3031.336613454
E(CCSD(T))                                 ...  -3031.455339743
FINAL SINGLE POINT ENERGY     -3031.455339743089

DIPOLE MOMENT
-------------
                                X             Y             Z
Electronic contribution:     40.10180       3.93744       1.98668
Nuclear contribution   :    -44.76240      -3.47173      -2.41310
                        -----------------------------------------
Total Dipole Moment    :     -4.66059       0.46571      -0.42642
                        -----------------------------------------
Magnitude (a.u.)       :      4.70317
Magnitude (Debye)      :     11.95451

Rotational constants in cm-1:     0.018900     0.011959     0.010763
Rotational constants in MHz :   566.594405   358.523033   322.659549

                             ****ORCA TERMINATED NORMALLY****
TOTAL RUN TIME: 0 days 22 hours 23 minutes 45 seconds 992 msec
