                         Program Version 4.1.2  - RELEASE  -
|  1> ! aug-cc-pVTZ aug-cc-pVTZ/C DLPNO-CCSD(T1) TightSCF NormalPNO UNO MiniPrint AutoAux
|  2> %pal nproc 10 end
|  3> %maxcore 20000
|  4> %mdci
|  5>      density none
|  6> end
|  7>
|  8> * xyz 0 6
|  9>  O     -0.27969400     -0.40143800     -0.72462300
| 10>  C     -1.42744700     -1.21193400     -0.49616000
| 11>  C     -2.59217700     -0.23027200     -0.00652100
| 12>  C     -2.04426200      1.14900500     -0.23225200
| 13>  C     -1.97520900      1.72765700     -1.58133400
| 14> Fe      1.34592200      0.02413100     -0.00172000
| 15> Cl      1.62994600      2.09220100     -0.79919900
| 16>  C     -1.61720600      1.98164400      0.88951200
| 17> Cl      2.86954600     -1.46244800     -0.51741200
| 18> Cl      1.00126200      0.15901900      2.22543400
| 19>  H     -3.42728300     -0.34950800     -0.70983300
| 20>  H     -2.43988700      2.08089700      1.61077600
| 21>  H     -0.83040300      1.43934500      1.45204500
| 22>  H     -1.23592300      2.95609400      0.58595100
| 23>  H     -2.59350500      2.63950600     -1.59123400
| 24>  H     -0.93926700      2.06565900     -1.74511700
| 25>  H     -2.28911900      1.05179200     -2.37430000
| 26>  C     -3.11174600     -0.47079600      1.41459500
| 27>  H     -3.91731900      0.23026200      1.65971500
| 28>  H     -3.52439600     -1.47914200      1.49084700
| 29>  H     -2.32496400     -0.37285000      2.16615200
| 30>  C     -1.09720000     -2.30361200      0.52215600
| 31>  H     -1.93649400     -2.98824200      0.68014700
| 32>  H     -0.25714900     -2.87970600      0.11999900
| 33>  H     -0.78331100     -1.88628200      1.48018900
| 34>  C     -1.81403000     -1.85454900     -1.83191300
| 35>  H     -0.98262500     -2.47449000     -2.17913500
| 36>  H     -2.70493000     -2.48414500     -1.72587100
| 37>  H     -2.00702600     -1.09707400     -2.59710700
| 38> *
| 39>
| 40>
| 41>                          ****END OF INPUT****

CARTESIAN COORDINATES (ANGSTROEM)
---------------------------------
  O     -0.279694   -0.401438   -0.724623
  C     -1.427447   -1.211934   -0.496160
  C     -2.592177   -0.230272   -0.006521
  C     -2.044262    1.149005   -0.232252
  C     -1.975209    1.727657   -1.581334
  Fe     1.345922    0.024131   -0.001720
  Cl     1.629946    2.092201   -0.799199
  C     -1.617206    1.981644    0.889512
  Cl     2.869546   -1.462448   -0.517412
  Cl     1.001262    0.159019    2.225434
  H     -3.427283   -0.349508   -0.709833
  H     -2.439887    2.080897    1.610776
  H     -0.830403    1.439345    1.452045
  H     -1.235923    2.956094    0.585951
  H     -2.593505    2.639506   -1.591234
  H     -0.939267    2.065659   -1.745117
  H     -2.289119    1.051792   -2.374300
  C     -3.111746   -0.470796    1.414595
  H     -3.917319    0.230262    1.659715
  H     -3.524396   -1.479142    1.490847
  H     -2.324964   -0.372850    2.166152
  C     -1.097200   -2.303612    0.522156
  H     -1.936494   -2.988242    0.680147
  H     -0.257149   -2.879706    0.119999
  H     -0.783311   -1.886282    1.480189
  C     -1.814030   -1.854549   -1.831913
  H     -0.982625   -2.474490   -2.179135
  H     -2.704930   -2.484145   -1.725871
  H     -2.007026   -1.097074   -2.597107

ORBITAL ENERGIES
----------------
                 SPIN UP ORBITALS
  NO   OCC          E(Eh)            E(eV)
   0   1.0000    -261.542680     -7116.9381
   1   1.0000    -104.775890     -2851.0969
   2   1.0000    -104.773601     -2851.0346
   3   1.0000    -104.768109     -2850.8852
   4   1.0000     -32.210496      -876.4922
   5   1.0000     -27.686619      -753.3912
   6   1.0000     -27.686235      -753.3808
   7   1.0000     -27.685760      -753.3678
   8   1.0000     -20.533827      -558.7538
   9   1.0000     -11.416318      -310.6538
  10   1.0000     -11.330327      -308.3139
  11   1.0000     -11.296760      -307.4005
  12   1.0000     -11.288139      -307.1659
  13   1.0000     -11.281215      -306.9775
  14   1.0000     -11.262338      -306.4638
  15   1.0000     -11.236328      -305.7560
  16   1.0000     -11.228287      -305.5372
  17   1.0000     -10.502484      -285.7871
  18   1.0000     -10.500103      -285.7223
  19   1.0000     -10.494662      -285.5743
  20   1.0000      -7.969386      -216.8580
  21   1.0000      -7.968456      -216.8327
  22   1.0000      -7.968411      -216.8315
  23   1.0000      -7.966967      -216.7922
  24   1.0000      -7.966169      -216.7705
  25   1.0000      -7.966057      -216.7674
  26   1.0000      -7.961414      -216.6411
  27   1.0000      -7.960800      -216.6244
  28   1.0000      -7.960703      -216.6217
  29   1.0000      -4.566022      -124.2478
  30   1.0000      -3.178634       -86.4950
  31   1.0000      -3.178048       -86.4791
  32   1.0000      -3.177816       -86.4728
  33   1.0000      -1.344633       -36.5893
  34   1.0000      -1.192977       -32.4626
  35   1.0000      -1.097678       -29.8693
  36   1.0000      -1.045396       -28.4467
  37   1.0000      -1.040281       -28.3075
  38   1.0000      -1.037447       -28.2304
  39   1.0000      -1.035324       -28.1726
  40   1.0000      -1.020105       -27.7585
  41   1.0000      -0.962266       -26.1846
  42   1.0000      -0.933044       -25.3894
  43   1.0000      -0.902331       -24.5537
  44   1.0000      -0.895858       -24.3775
  45   1.0000      -0.895577       -24.3699
  46   1.0000      -0.888815       -24.1859
  47   1.0000      -0.887712       -24.1559
  48   1.0000      -0.807793       -21.9812
  49   1.0000      -0.758939       -20.6518
  50   1.0000      -0.710176       -19.3249
  51   1.0000      -0.690925       -18.8010
  52   1.0000      -0.678024       -18.4500
  53   1.0000      -0.637056       -17.3352
  54   1.0000      -0.631825       -17.1928
  55   1.0000      -0.623480       -16.9658
  56   1.0000      -0.606573       -16.5057
  57   1.0000      -0.598196       -16.2777
  58   1.0000      -0.595288       -16.1986
  59   1.0000      -0.582847       -15.8601
  60   1.0000      -0.578462       -15.7408
  61   1.0000      -0.554524       -15.0894
  62   1.0000      -0.546794       -14.8790
  63   1.0000      -0.537452       -14.6248
  64   1.0000      -0.523726       -14.2513
  65   1.0000      -0.518413       -14.1067
  66   1.0000      -0.500703       -13.6248
  67   1.0000      -0.468168       -12.7395
  68   1.0000      -0.466326       -12.6894
  69   1.0000      -0.443471       -12.0675
  70   1.0000      -0.437413       -11.9026
  71   1.0000      -0.423781       -11.5317
  72   1.0000      -0.420048       -11.4301
  73   1.0000      -0.417194       -11.3524
  74   1.0000      -0.412819       -11.2334
  75   1.0000      -0.411547       -11.1988
  76   1.0000      -0.409039       -11.1305
  77   0.0000       0.002944         0.0801
  78   0.0000       0.008324         0.2265
  79   0.0000       0.019749         0.5374
  80   0.0000       0.020832         0.5669
  81   0.0000       0.030296         0.8244

                 SPIN DOWN ORBITALS
  NO   OCC          E(Eh)            E(eV)
   0   1.0000    -261.539142     -7116.8419
   1   1.0000    -104.774647     -2851.0631
   2   1.0000    -104.772361     -2851.0009
   3   1.0000    -104.766697     -2850.8468
   4   1.0000     -32.048493      -872.0838
   5   1.0000     -27.526723      -749.0402
   6   1.0000     -27.526455      -749.0329
   7   1.0000     -27.525748      -749.0137
   8   1.0000     -20.526845      -558.5638
   9   1.0000     -11.416334      -310.6542
  10   1.0000     -11.330053      -308.3064
  11   1.0000     -11.296658      -307.3977
  12   1.0000     -11.288123      -307.1655
  13   1.0000     -11.281250      -306.9784
  14   1.0000     -11.262341      -306.4639
  15   1.0000     -11.236238      -305.7536
  16   1.0000     -11.228256      -305.5364
  17   1.0000     -10.501137      -285.7505
  18   1.0000     -10.498765      -285.6859
  19   1.0000     -10.493154      -285.5332
  20   1.0000      -7.966901      -216.7904
  21   1.0000      -7.966638      -216.7832
  22   1.0000      -7.966539      -216.7805
  23   1.0000      -7.964675      -216.7298
  24   1.0000      -7.964222      -216.7175
  25   1.0000      -7.964116      -216.7146
  26   1.0000      -7.959202      -216.5809
  27   1.0000      -7.958349      -216.5577
  28   1.0000      -7.958283      -216.5559
  29   1.0000      -4.124002      -112.2198
  30   1.0000      -2.646092       -72.0038
  31   1.0000      -2.645824       -71.9965
  32   1.0000      -2.645116       -71.9773
  33   1.0000      -1.326412       -36.0935
  34   1.0000      -1.191337       -32.4179
  35   1.0000      -1.094802       -29.7911
  36   1.0000      -1.037436       -28.2301
  37   1.0000      -1.030977       -28.0543
  38   1.0000      -1.023276       -27.8448
  39   1.0000      -1.017748       -27.6943
  40   1.0000      -1.015323       -27.6283
  41   1.0000      -0.961501       -26.1638
  42   1.0000      -0.931202       -25.3393
  43   1.0000      -0.811109       -22.0714
  44   1.0000      -0.764891       -20.8137
  45   1.0000      -0.711317       -19.3559
  46   1.0000      -0.691034       -18.8040
  47   1.0000      -0.678298       -18.4574
  48   1.0000      -0.637084       -17.3359
  49   1.0000      -0.634194       -17.2573
  50   1.0000      -0.621774       -16.9193
  51   1.0000      -0.606763       -16.5109
  52   1.0000      -0.597674       -16.2635
  53   1.0000      -0.594079       -16.1657
  54   1.0000      -0.582619       -15.8539
  55   1.0000      -0.576629       -15.6909
  56   1.0000      -0.554285       -15.0829
  57   1.0000      -0.543214       -14.7816
  58   1.0000      -0.536536       -14.5999
  59   1.0000      -0.520147       -14.1539
  60   1.0000      -0.515110       -14.0169
  61   1.0000      -0.498224       -13.5574
  62   1.0000      -0.467346       -12.7171
  63   1.0000      -0.464228       -12.6323
  64   1.0000      -0.448531       -12.2051
  65   1.0000      -0.446523       -12.1505
  66   1.0000      -0.434968       -11.8361
  67   1.0000      -0.430076       -11.7030
  68   1.0000      -0.429560       -11.6889
  69   1.0000      -0.409046       -11.1307
  70   1.0000      -0.401474       -10.9247
  71   1.0000      -0.398997       -10.8572
  72   0.0000       0.002818         0.0767
  73   0.0000       0.008137         0.2214
  74   0.0000       0.019731         0.5369
  75   0.0000       0.020816         0.5664
  76   0.0000       0.030326         0.8252

E(0)                                       ...  -3028.430042367
E(0)                                       ...  -3028.430042367
E(CORR)(strong-pairs)                      ...     -2.869766968
E(CORR)(weak-pairs)                        ...     -0.036082546
E(CORR)(corrected)                         ...     -2.905849514
E(TOT)                                     ...  -3031.335891881
E(CCSD(T))                                 ...  -3031.453162621
FINAL SINGLE POINT ENERGY     -3031.453162620755

DIPOLE MOMENT
-------------
                                X             Y             Z
Electronic contribution:     38.64459       5.25457       2.46272
Nuclear contribution   :    -43.56812      -4.60086      -2.87309
                        -----------------------------------------
Total Dipole Moment    :     -4.92353       0.65370      -0.41037
                        -----------------------------------------
Magnitude (a.u.)       :      4.98366
Magnitude (Debye)      :     12.66745

Rotational constants in cm-1:     0.018840     0.012258     0.011029
Rotational constants in MHz :   564.813718   367.493133   330.629159

                             ****ORCA TERMINATED NORMALLY****
TOTAL RUN TIME: 0 days 21 hours 2 minutes 12 seconds 251 msec
