                         Program Version 4.1.2  - RELEASE  -
|  1> ! aug-cc-pVTZ aug-cc-pVTZ/C DLPNO-CCSD(T1) TightSCF NormalPNO UNO MiniPrint AutoAux
|  2> %pal nproc 10 end
|  3> %maxcore 20000
|  4> %mdci
|  5>      density none
|  6> end
|  7>
|  8> * xyz 0 6
|  9>  O     -0.39009900     -0.21720000     -0.56457800
| 10>  C     -1.47169400     -1.16692500     -0.32998300
| 11>  C     -2.70822000     -0.15223600     -0.29238100
| 12>  C     -1.94027600      1.16206000     -0.24124800
| 13>  C     -1.83132300      1.99353100     -1.46149800
| 14> Fe      1.38107300      0.02463000      0.01575500
| 15> Cl      1.83509600      2.00878300     -0.85891700
| 16>  C     -1.59439400      1.78890700      1.05523700
| 17> Cl      2.51041100     -1.70071400     -0.72516000
| 18> Cl      1.37073900      0.16154200      2.22606900
| 19>  H     -3.21332000     -0.20477400     -1.26222200
| 20>  H     -2.47568000      2.37324700      1.36767500
| 21>  H     -1.37924300      1.06236900      1.83845800
| 22>  H     -0.75236600      2.47717500      0.95218300
| 23>  H     -2.62337000      2.75904600     -1.40945300
| 24>  H     -0.86757300      2.51129100     -1.48891000
| 25>  H     -1.97163100      1.40946400     -2.37179600
| 26>  C     -3.74629400     -0.35018400      0.81181000
| 27>  H     -4.53423700      0.40872700      0.75039200
| 28>  H     -4.22294000     -1.32818400      0.69494900
| 29>  H     -3.30852100     -0.30916300      1.81184700
| 30>  C     -1.24312700     -1.93213900      0.96621200
| 31>  H     -2.06464000     -2.63008000      1.15728900
| 32>  H     -0.31924000     -2.51293500      0.87637100
| 33>  H     -1.13022000     -1.26991400      1.82659000
| 34>  C     -1.54020300     -2.10910400     -1.52279600
| 35>  H     -0.61065500     -2.68361400     -1.58691700
| 36>  H     -2.37914800     -2.80769900     -1.42268800
| 37>  H     -1.65730900     -1.54460400     -2.45276400
| 38> *
| 39>
| 40>
| 41>                          ****END OF INPUT****

CARTESIAN COORDINATES (ANGSTROEM)
---------------------------------
  O     -0.390099   -0.217200   -0.564578
  C     -1.471694   -1.166925   -0.329983
  C     -2.708220   -0.152236   -0.292381
  C     -1.940276    1.162060   -0.241248
  C     -1.831323    1.993531   -1.461498
  Fe     1.381073    0.024630    0.015755
  Cl     1.835096    2.008783   -0.858917
  C     -1.594394    1.788907    1.055237
  Cl     2.510411   -1.700714   -0.725160
  Cl     1.370739    0.161542    2.226069
  H     -3.213320   -0.204774   -1.262222
  H     -2.475680    2.373247    1.367675
  H     -1.379243    1.062369    1.838458
  H     -0.752366    2.477175    0.952183
  H     -2.623370    2.759046   -1.409453
  H     -0.867573    2.511291   -1.488910
  H     -1.971631    1.409464   -2.371796
  C     -3.746294   -0.350184    0.811810
  H     -4.534237    0.408727    0.750392
  H     -4.222940   -1.328184    0.694949
  H     -3.308521   -0.309163    1.811847
  C     -1.243127   -1.932139    0.966212
  H     -2.064640   -2.630080    1.157289
  H     -0.319240   -2.512935    0.876371
  H     -1.130220   -1.269914    1.826590
  C     -1.540203   -2.109104   -1.522796
  H     -0.610655   -2.683614   -1.586917
  H     -2.379148   -2.807699   -1.422688
  H     -1.657309   -1.544604   -2.452764

ORBITAL ENERGIES
----------------
                 SPIN UP ORBITALS
  NO   OCC          E(Eh)            E(eV)
   0   1.0000    -261.547143     -7117.0596
   1   1.0000    -104.775815     -2851.0949
   2   1.0000    -104.774300     -2851.0536
   3   1.0000    -104.771285     -2850.9716
   4   1.0000     -32.215063      -876.6164
   5   1.0000     -27.690963      -753.5094
   6   1.0000     -27.690811      -753.5053
   7   1.0000     -27.690453      -753.4955
   8   1.0000     -20.556815      -559.3794
   9   1.0000     -11.409169      -310.4593
  10   1.0000     -11.330330      -308.3140
  11   1.0000     -11.293385      -307.3086
  12   1.0000     -11.281230      -306.9779
  13   1.0000     -11.281128      -306.9751
  14   1.0000     -11.266617      -306.5802
  15   1.0000     -11.234868      -305.7163
  16   1.0000     -11.234314      -305.7012
  17   1.0000     -10.502420      -285.7854
  18   1.0000     -10.501019      -285.7473
  19   1.0000     -10.497913      -285.6627
  20   1.0000      -7.969255      -216.8545
  21   1.0000      -7.968504      -216.8340
  22   1.0000      -7.968417      -216.8316
  23   1.0000      -7.967902      -216.8176
  24   1.0000      -7.967056      -216.7946
  25   1.0000      -7.967036      -216.7941
  26   1.0000      -7.964716      -216.7309
  27   1.0000      -7.964039      -216.7125
  28   1.0000      -7.963952      -216.7102
  29   1.0000      -4.570450      -124.3683
  30   1.0000      -3.182791       -86.6081
  31   1.0000      -3.182682       -86.6052
  32   1.0000      -3.182062       -86.5883
  33   1.0000      -1.351574       -36.7782
  34   1.0000      -1.174280       -31.9538
  35   1.0000      -1.096926       -29.8489
  36   1.0000      -1.047050       -28.4917
  37   1.0000      -1.041887       -28.3512
  38   1.0000      -1.038986       -28.2722
  39   1.0000      -1.034683       -28.1551
  40   1.0000      -1.016531       -27.6612
  41   1.0000      -0.963536       -26.2191
  42   1.0000      -0.935748       -25.4630
  43   1.0000      -0.901654       -24.5353
  44   1.0000      -0.899733       -24.4830
  45   1.0000      -0.899209       -24.4687
  46   1.0000      -0.891658       -24.2633
  47   1.0000      -0.891099       -24.2480
  48   1.0000      -0.805795       -21.9268
  49   1.0000      -0.758349       -20.6357
  50   1.0000      -0.701493       -19.0886
  51   1.0000      -0.689742       -18.7688
  52   1.0000      -0.671480       -18.2719
  53   1.0000      -0.635850       -17.3024
  54   1.0000      -0.634990       -17.2790
  55   1.0000      -0.619159       -16.8482
  56   1.0000      -0.605051       -16.4643
  57   1.0000      -0.595155       -16.1950
  58   1.0000      -0.593810       -16.1584
  59   1.0000      -0.583758       -15.8849
  60   1.0000      -0.575314       -15.6551
  61   1.0000      -0.559234       -15.2175
  62   1.0000      -0.543526       -14.7901
  63   1.0000      -0.536031       -14.5862
  64   1.0000      -0.527088       -14.3428
  65   1.0000      -0.517734       -14.0883
  66   1.0000      -0.503425       -13.6989
  67   1.0000      -0.472917       -12.8687
  68   1.0000      -0.468798       -12.7566
  69   1.0000      -0.451772       -12.2933
  70   1.0000      -0.442926       -12.0526
  71   1.0000      -0.426816       -11.6143
  72   1.0000      -0.422413       -11.4945
  73   1.0000      -0.418385       -11.3848
  74   1.0000      -0.414547       -11.2804
  75   1.0000      -0.412727       -11.2309
  76   1.0000      -0.411227       -11.1900
  77   0.0000       0.006360         0.1731
  78   0.0000       0.019162         0.5214
  79   0.0000       0.021575         0.5871
  80   0.0000       0.030360         0.8261
  81   0.0000       0.036140         0.9834

                 SPIN DOWN ORBITALS
  NO   OCC          E(Eh)            E(eV)
   0   1.0000    -261.543593     -7116.9630
   1   1.0000    -104.774495     -2851.0589
   2   1.0000    -104.772918     -2851.0160
   3   1.0000    -104.769825     -2850.9319
   4   1.0000     -32.053064      -872.2082
   5   1.0000     -27.531151      -749.1607
   6   1.0000     -27.530936      -749.1549
   7   1.0000     -27.530491      -749.1427
   8   1.0000     -20.551103      -559.2239
   9   1.0000     -11.409229      -310.4609
  10   1.0000     -11.330118      -308.3082
  11   1.0000     -11.293295      -307.3062
  12   1.0000     -11.281210      -306.9773
  13   1.0000     -11.281132      -306.9752
  14   1.0000     -11.266603      -306.5799
  15   1.0000     -11.234830      -305.7153
  16   1.0000     -11.234299      -305.7008
  17   1.0000     -10.501000      -285.7467
  18   1.0000     -10.499533      -285.7068
  19   1.0000     -10.496353      -285.6203
  20   1.0000      -7.966946      -216.7916
  21   1.0000      -7.966353      -216.7755
  22   1.0000      -7.966279      -216.7735
  23   1.0000      -7.965426      -216.7503
  24   1.0000      -7.964858      -216.7348
  25   1.0000      -7.964807      -216.7334
  26   1.0000      -7.962334      -216.6661
  27   1.0000      -7.961554      -216.6449
  28   1.0000      -7.961497      -216.6434
  29   1.0000      -4.128366      -112.3385
  30   1.0000      -2.650295       -72.1182
  31   1.0000      -2.650252       -72.1170
  32   1.0000      -2.649124       -72.0863
  33   1.0000      -1.336965       -36.3807
  34   1.0000      -1.172333       -31.9008
  35   1.0000      -1.094465       -29.7819
  36   1.0000      -1.033149       -28.1134
  37   1.0000      -1.032738       -28.1022
  38   1.0000      -1.022650       -27.8277
  39   1.0000      -1.018683       -27.7198
  40   1.0000      -1.015445       -27.6317
  41   1.0000      -0.962729       -26.1972
  42   1.0000      -0.931269       -25.3411
  43   1.0000      -0.807906       -21.9842
  44   1.0000      -0.762259       -20.7421
  45   1.0000      -0.701582       -19.0910
  46   1.0000      -0.689622       -18.7656
  47   1.0000      -0.672716       -18.3055
  48   1.0000      -0.636374       -17.3166
  49   1.0000      -0.635375       -17.2894
  50   1.0000      -0.617825       -16.8119
  51   1.0000      -0.605126       -16.4663
  52   1.0000      -0.594049       -16.1649
  53   1.0000      -0.593564       -16.1517
  54   1.0000      -0.582720       -15.8566
  55   1.0000      -0.574679       -15.6378
  56   1.0000      -0.558568       -15.1994
  57   1.0000      -0.539045       -14.6682
  58   1.0000      -0.535659       -14.5760
  59   1.0000      -0.524553       -14.2738
  60   1.0000      -0.513363       -13.9693
  61   1.0000      -0.501296       -13.6410
  62   1.0000      -0.470337       -12.7985
  63   1.0000      -0.467368       -12.7177
  64   1.0000      -0.459234       -12.4964
  65   1.0000      -0.450692       -12.2639
  66   1.0000      -0.437549       -11.9063
  67   1.0000      -0.433002       -11.7826
  68   1.0000      -0.432118       -11.7585
  69   1.0000      -0.412521       -11.2253
  70   1.0000      -0.406330       -11.0568
  71   1.0000      -0.399011       -10.8576
  72   0.0000       0.006332         0.1723
  73   0.0000       0.019007         0.5172
  74   0.0000       0.021555         0.5865
  75   0.0000       0.030384         0.8268
  76   0.0000       0.035587         0.9684

E(0)                                       ...  -3028.442552012
E(0)                                       ...  -3028.442552012
E(CORR)(strong-pairs)                      ...     -2.872315245
E(CORR)(weak-pairs)                        ...     -0.034905499
E(CORR)(corrected)                         ...     -2.907220745
E(TOT)                                     ...  -3031.349772757
E(CCSD(T))                                 ...  -3031.468104530
FINAL SINGLE POINT ENERGY     -3031.468104530069

DIPOLE MOMENT
-------------
                                X             Y             Z
Electronic contribution:     40.47546       3.61415       1.34817
Nuclear contribution   :    -45.26491      -2.94759      -1.64440
                        -----------------------------------------
Total Dipole Moment    :     -4.78946       0.66655      -0.29623
                        -----------------------------------------
Magnitude (a.u.)       :      4.84468
Magnitude (Debye)      :     12.31420

Rotational constants in cm-1:     0.019101     0.012003     0.010660
Rotational constants in MHz :   572.625907   359.833731   319.584845

                             ****ORCA TERMINATED NORMALLY****
TOTAL RUN TIME: 1 days 3 hours 16 minutes 56 seconds 948 msec
