                         Program Version 4.1.2  - RELEASE  -
|  1> ! aug-cc-pVTZ aug-cc-pVTZ/C DLPNO-CCSD(T1) TightSCF NormalPNO UNO MiniPrint AutoAux
|  2> %pal nproc 10 end
|  3> %maxcore 20000
|  4> %mdci
|  5>      density none
|  6> end
|  7>
|  8> * xyz 0 6
|  9>  O     -0.32628300     -0.11732400     -0.43065200
| 10>  C     -1.21472700     -1.08011500     -0.24815800
| 11>  C     -2.57783600     -0.35819600      0.77324600
| 12>  C     -2.97633600      0.70507000     -0.05529200
| 13>  C     -4.06410300      0.54758000     -1.05858200
| 14> Fe      1.50294900      0.17401900     -0.08934800
| 15> Cl      1.80980300      2.19312600     -0.90630400
| 16>  C     -2.23272500      1.97163200     -0.04030200
| 17> Cl      2.53447500     -1.46956300     -1.12567700
| 18> Cl      1.80214800      0.10716700      2.10111600
| 19>  H     -3.28183400     -1.19167600      0.77791900
| 20>  H     -2.67052600      2.74559000     -0.67281500
| 21>  H     -2.05018300      2.35021800      0.96967300
| 22>  H     -1.22531100      1.70098300     -0.42915400
| 23>  H     -4.89477000      1.20194800     -0.75375900
| 24>  H     -3.74759900      0.90388700     -2.04669700
| 25>  H     -4.44004600     -0.47397400     -1.13166000
| 26>  C     -1.97909700     -0.02901300      2.13766600
| 27>  H     -2.62840300      0.67097800      2.67448700
| 28>  H     -1.89282300     -0.93048000      2.74578000
| 29>  H     -0.98514300      0.41537400      2.05360300
| 30>  C     -0.74523300     -2.22966600      0.64800300
| 31>  H     -1.55839400     -2.91531000      0.90109300
| 32>  H      0.00773300     -2.77687200      0.06855400
| 33>  H     -0.26135500     -1.86836500      1.55481900
| 34>  C     -1.80452200     -1.58829400     -1.56094000
| 35>  H     -1.02100700     -2.17191300     -2.05599900
| 36>  H     -2.67228400     -2.23712600     -1.40846900
| 37>  H     -2.06625700     -0.76555900     -2.22824000
| 38> *
| 39>
| 40>
| 41>                          ****END OF INPUT****

CARTESIAN COORDINATES (ANGSTROEM)
---------------------------------
  O     -0.326283   -0.117324   -0.430652
  C     -1.214727   -1.080115   -0.248158
  C     -2.577836   -0.358196    0.773246
  C     -2.976336    0.705070   -0.055292
  C     -4.064103    0.547580   -1.058582
  Fe     1.502949    0.174019   -0.089348
  Cl     1.809803    2.193126   -0.906304
  C     -2.232725    1.971632   -0.040302
  Cl     2.534475   -1.469563   -1.125677
  Cl     1.802148    0.107167    2.101116
  H     -3.281834   -1.191676    0.777919
  H     -2.670526    2.745590   -0.672815
  H     -2.050183    2.350218    0.969673
  H     -1.225311    1.700983   -0.429154
  H     -4.894770    1.201948   -0.753759
  H     -3.747599    0.903887   -2.046697
  H     -4.440046   -0.473974   -1.131660
  C     -1.979097   -0.029013    2.137666
  H     -2.628403    0.670978    2.674487
  H     -1.892823   -0.930480    2.745780
  H     -0.985143    0.415374    2.053603
  C     -0.745233   -2.229666    0.648003
  H     -1.558394   -2.915310    0.901093
  H      0.007733   -2.776872    0.068554
  H     -0.261355   -1.868365    1.554819
  C     -1.804522   -1.588294   -1.560940
  H     -1.021007   -2.171913   -2.055999
  H     -2.672284   -2.237126   -1.408469
  H     -2.066257   -0.765559   -2.228240

ORBITAL ENERGIES
----------------
                 SPIN UP ORBITALS
  NO   OCC          E(Eh)            E(eV)
   0   1.0000    -261.545729     -7117.0211
   1   1.0000    -104.771763     -2850.9846
   2   1.0000    -104.769847     -2850.9325
   3   1.0000    -104.768928     -2850.9075
   4   1.0000     -32.213638      -876.5777
   5   1.0000     -27.689646      -753.4736
   6   1.0000     -27.689255      -753.4629
   7   1.0000     -27.689071      -753.4579
   8   1.0000     -20.550897      -559.2183
   9   1.0000     -11.375101      -309.5322
  10   1.0000     -11.371526      -309.4349
  11   1.0000     -11.296077      -307.3819
  12   1.0000     -11.285069      -307.0823
  13   1.0000     -11.270157      -306.6766
  14   1.0000     -11.251711      -306.1746
  15   1.0000     -11.251584      -306.1712
  16   1.0000     -11.243214      -305.9434
  17   1.0000     -10.498388      -285.6757
  18   1.0000     -10.496432      -285.6224
  19   1.0000     -10.495548      -285.5984
  20   1.0000      -7.965256      -216.7456
  21   1.0000      -7.964440      -216.7234
  22   1.0000      -7.964393      -216.7221
  23   1.0000      -7.963254      -216.6911
  24   1.0000      -7.962544      -216.6718
  25   1.0000      -7.962447      -216.6692
  26   1.0000      -7.962399      -216.6679
  27   1.0000      -7.961646      -216.6474
  28   1.0000      -7.961566      -216.6452
  29   1.0000      -4.569038      -124.3298
  30   1.0000      -3.181693       -86.5783
  31   1.0000      -3.181054       -86.5609
  32   1.0000      -3.180584       -86.5481
  33   1.0000      -1.389078       -37.7987
  34   1.0000      -1.190211       -32.3873
  35   1.0000      -1.081590       -29.4315
  36   1.0000      -1.046287       -28.4709
  37   1.0000      -1.042977       -28.3809
  38   1.0000      -1.037675       -28.2366
  39   1.0000      -1.035777       -28.1849
  40   1.0000      -1.012428       -27.5496
  41   1.0000      -0.975900       -26.5556
  42   1.0000      -0.929975       -25.3059
  43   1.0000      -0.912373       -24.8269
  44   1.0000      -0.898501       -24.4494
  45   1.0000      -0.898473       -24.4487
  46   1.0000      -0.889529       -24.2053
  47   1.0000      -0.889163       -24.1954
  48   1.0000      -0.791602       -21.5406
  49   1.0000      -0.769818       -20.9478
  50   1.0000      -0.704344       -19.1662
  51   1.0000      -0.693607       -18.8740
  52   1.0000      -0.669820       -18.2267
  53   1.0000      -0.658948       -17.9309
  54   1.0000      -0.653199       -17.7745
  55   1.0000      -0.632020       -17.1981
  56   1.0000      -0.603776       -16.4296
  57   1.0000      -0.599402       -16.3106
  58   1.0000      -0.591616       -16.0987
  59   1.0000      -0.581093       -15.8124
  60   1.0000      -0.575248       -15.6533
  61   1.0000      -0.563337       -15.3292
  62   1.0000      -0.558036       -15.1849
  63   1.0000      -0.539450       -14.6792
  64   1.0000      -0.536201       -14.5908
  65   1.0000      -0.521045       -14.1784
  66   1.0000      -0.506768       -13.7899
  67   1.0000      -0.469572       -12.7777
  68   1.0000      -0.458928       -12.4881
  69   1.0000      -0.445837       -12.1319
  70   1.0000      -0.426133       -11.5957
  71   1.0000      -0.422389       -11.4938
  72   1.0000      -0.418586       -11.3903
  73   1.0000      -0.410745       -11.1769
  74   1.0000      -0.408776       -11.1233
  75   1.0000      -0.408259       -11.1093
  76   1.0000      -0.400418       -10.8959
  77   0.0000       0.003995         0.1087
  78   0.0000       0.008805         0.2396
  79   0.0000       0.018262         0.4969
  80   0.0000       0.019390         0.5276
  81   0.0000       0.028242         0.7685

                 SPIN DOWN ORBITALS
  NO   OCC          E(Eh)            E(eV)
   0   1.0000    -261.542176     -7116.9244
   1   1.0000    -104.770375     -2850.9468
   2   1.0000    -104.768459     -2850.8947
   3   1.0000    -104.767491     -2850.8684
   4   1.0000     -32.051559      -872.1673
   5   1.0000     -27.529593      -749.1183
   6   1.0000     -27.529466      -749.1149
   7   1.0000     -27.529045      -749.1034
   8   1.0000     -20.545721      -559.0775
   9   1.0000     -11.374954      -309.5282
  10   1.0000     -11.371478      -309.4337
  11   1.0000     -11.296099      -307.3825
  12   1.0000     -11.284946      -307.0790
  13   1.0000     -11.270181      -306.6772
  14   1.0000     -11.251740      -306.1754
  15   1.0000     -11.251480      -306.1683
  16   1.0000     -11.243191      -305.9428
  17   1.0000     -10.496896      -285.6351
  18   1.0000     -10.494946      -285.5820
  19   1.0000     -10.494008      -285.5565
  20   1.0000      -7.962790      -216.6785
  21   1.0000      -7.962215      -216.6629
  22   1.0000      -7.962141      -216.6609
  23   1.0000      -7.960914      -216.6275
  24   1.0000      -7.960236      -216.6090
  25   1.0000      -7.960132      -216.6062
  26   1.0000      -7.959939      -216.6010
  27   1.0000      -7.959277      -216.5829
  28   1.0000      -7.959194      -216.5807
  29   1.0000      -4.126732      -112.2941
  30   1.0000      -2.648538       -72.0704
  31   1.0000      -2.648487       -72.0690
  32   1.0000      -2.647650       -72.0462
  33   1.0000      -1.375839       -37.4385
  34   1.0000      -1.189234       -32.3607
  35   1.0000      -1.079036       -29.3621
  36   1.0000      -1.045436       -28.4477
  37   1.0000      -1.028497       -27.9868
  38   1.0000      -1.017055       -27.6755
  39   1.0000      -1.015370       -27.6296
  40   1.0000      -1.012048       -27.5392
  41   1.0000      -0.975228       -26.5373
  42   1.0000      -0.929248       -25.2861
  43   1.0000      -0.801200       -21.8018
  44   1.0000      -0.773963       -21.0606
  45   1.0000      -0.704897       -19.1812
  46   1.0000      -0.692869       -18.8539
  47   1.0000      -0.669947       -18.2302
  48   1.0000      -0.661483       -17.9999
  49   1.0000      -0.651528       -17.7290
  50   1.0000      -0.631482       -17.1835
  51   1.0000      -0.603856       -16.4317
  52   1.0000      -0.599210       -16.3053
  53   1.0000      -0.590567       -16.0702
  54   1.0000      -0.580952       -15.8085
  55   1.0000      -0.574673       -15.6376
  56   1.0000      -0.562891       -15.3170
  57   1.0000      -0.558068       -15.1858
  58   1.0000      -0.538290       -14.6476
  59   1.0000      -0.536054       -14.5868
  60   1.0000      -0.516459       -14.0536
  61   1.0000      -0.499515       -13.5925
  62   1.0000      -0.467453       -12.7201
  63   1.0000      -0.462159       -12.5760
  64   1.0000      -0.454688       -12.3727
  65   1.0000      -0.433098       -11.7852
  66   1.0000      -0.430494       -11.7143
  67   1.0000      -0.428533       -11.6610
  68   1.0000      -0.424280       -11.5452
  69   1.0000      -0.408009       -11.1025
  70   1.0000      -0.394631       -10.7385
  71   1.0000      -0.393251       -10.7009
  72   0.0000       0.004006         0.1090
  73   0.0000       0.008683         0.2363
  74   0.0000       0.018260         0.4969
  75   0.0000       0.019362         0.5269
  76   0.0000       0.028238         0.7684

E(0)                                       ...  -3028.426926424
E(0)                                       ...  -3028.426926424
E(CORR)(strong-pairs)                      ...     -2.874983040
E(CORR)(weak-pairs)                        ...     -0.035582898
E(CORR)(corrected)                         ...     -2.910565938
E(TOT)                                     ...  -3031.337492362
E(CCSD(T))                                 ...  -3031.457603801
FINAL SINGLE POINT ENERGY     -3031.457603801132

DIPOLE MOMENT
-------------
                                X             Y             Z
Electronic contribution:     42.60535       6.59974      -1.29269
Nuclear contribution   :    -48.11584      -6.93591       1.20950
                        -----------------------------------------
Total Dipole Moment    :     -5.51049      -0.33616      -0.08319
                        -----------------------------------------
Magnitude (a.u.)       :      5.52136
Magnitude (Debye)      :     14.03419

Rotational constants in cm-1:     0.019852     0.010352     0.009887
Rotational constants in MHz :   595.139170   310.336975   296.418062

                             ****ORCA TERMINATED NORMALLY****
TOTAL RUN TIME: 0 days 21 hours 18 minutes 28 seconds 299 msec
