                         Program Version 4.1.2  - RELEASE  -
|  1> ! aug-cc-pVTZ aug-cc-pVTZ/C DLPNO-CCSD(T1) TightSCF NormalPNO UNO MiniPrint AutoAux
|  2> %pal nproc 10 end
|  3> %maxcore 20000
|  4> %mdci
|  5>      density none
|  6> end
|  7>
|  8> * xyz 0 6
|  9>  O     -0.29604400     -0.21742200     -0.66972700
| 10>  C     -1.17026500     -1.15193300     -0.50675200
| 11>  C     -2.73139100     -0.34691900      0.64426600
| 12>  C     -2.75635800      0.84198000     -0.04759800
| 13>  C     -3.59135700      1.02472400     -1.27523600
| 14> Fe      1.47048700      0.16085400     -0.04589700
| 15> Cl      1.92147300      2.09408200     -0.97256200
| 16>  C     -1.88938600      1.99070700      0.32082800
| 17> Cl      2.66144600     -1.54486900     -0.73966100
| 18> Cl      1.38043900      0.29027800      2.15576800
| 19>  H     -3.47167100     -1.08711200      0.34319700
| 20>  H     -2.35537200      2.94612600      0.06123900
| 21>  H     -1.58668100      1.99706200      1.36833200
| 22>  H     -0.97079300      1.91018300     -0.28398300
| 23>  H     -4.32183800      1.82274600     -1.08547100
| 24>  H     -2.97839000      1.36555700     -2.11992800
| 25>  H     -4.13821200      0.12368700     -1.55894800
| 26>  C     -2.29642900     -0.41909800      2.09530100
| 27>  H     -2.97358200      0.18708700      2.70906300
| 28>  H     -2.34964300     -1.44291600      2.46992600
| 29>  H     -1.28088800     -0.05194100      2.25626000
| 30>  C     -0.80827100     -2.28965100      0.42803500
| 31>  H     -1.65682700     -2.94167900      0.64525400
| 32>  H     -0.04778000     -2.87292300     -0.10840500
| 33>  H     -0.35335000     -1.93535100      1.35232400
| 34>  C     -1.87570600     -1.58427000     -1.77802900
| 35>  H     -1.16744500     -2.23251400     -2.30955000
| 36>  H     -2.78433900     -2.15945800     -1.58662400
| 37>  H     -2.08963500     -0.73598300     -2.42671200
| 38> *
| 39>
| 40>
| 41>                          ****END OF INPUT****

CARTESIAN COORDINATES (ANGSTROEM)
---------------------------------
  O     -0.296044   -0.217422   -0.669727
  C     -1.170265   -1.151933   -0.506752
  C     -2.731391   -0.346919    0.644266
  C     -2.756358    0.841980   -0.047598
  C     -3.591357    1.024724   -1.275236
  Fe     1.470487    0.160854   -0.045897
  Cl     1.921473    2.094082   -0.972562
  C     -1.889386    1.990707    0.320828
  Cl     2.661446   -1.544869   -0.739661
  Cl     1.380439    0.290278    2.155768
  H     -3.471671   -1.087112    0.343197
  H     -2.355372    2.946126    0.061239
  H     -1.586681    1.997062    1.368332
  H     -0.970793    1.910183   -0.283983
  H     -4.321838    1.822746   -1.085471
  H     -2.978390    1.365557   -2.119928
  H     -4.138212    0.123687   -1.558948
  C     -2.296429   -0.419098    2.095301
  H     -2.973582    0.187087    2.709063
  H     -2.349643   -1.442916    2.469926
  H     -1.280888   -0.051941    2.256260
  C     -0.808271   -2.289651    0.428035
  H     -1.656827   -2.941679    0.645254
  H     -0.047780   -2.872923   -0.108405
  H     -0.353350   -1.935351    1.352324
  C     -1.875706   -1.584270   -1.778029
  H     -1.167445   -2.232514   -2.309550
  H     -2.784339   -2.159458   -1.586624
  H     -2.089635   -0.735983   -2.426712

ORBITAL ENERGIES
----------------
                 SPIN UP ORBITALS
  NO   OCC          E(Eh)            E(eV)
   0   1.0000    -261.559235     -7117.3886
   1   1.0000    -104.782708     -2851.2824
   2   1.0000    -104.779054     -2851.1830
   3   1.0000    -104.777934     -2851.1525
   4   1.0000     -32.227091      -876.9437
   5   1.0000     -27.703276      -753.8445
   6   1.0000     -27.702607      -753.8263
   7   1.0000     -27.702425      -753.8213
   8   1.0000     -20.578461      -559.9684
   9   1.0000     -11.402167      -310.2687
  10   1.0000     -11.326244      -308.2028
  11   1.0000     -11.271436      -306.7114
  12   1.0000     -11.268576      -306.6335
  13   1.0000     -11.263993      -306.5088
  14   1.0000     -11.258796      -306.3674
  15   1.0000     -11.251320      -306.1640
  16   1.0000     -11.244779      -305.9860
  17   1.0000     -10.509373      -285.9746
  18   1.0000     -10.505708      -285.8748
  19   1.0000     -10.504532      -285.8429
  20   1.0000      -7.976235      -217.0444
  21   1.0000      -7.975416      -217.0221
  22   1.0000      -7.975394      -217.0215
  23   1.0000      -7.972554      -216.9442
  24   1.0000      -7.971810      -216.9240
  25   1.0000      -7.971744      -216.9222
  26   1.0000      -7.971352      -216.9115
  27   1.0000      -7.970647      -216.8923
  28   1.0000      -7.970568      -216.8902
  29   1.0000      -4.582324      -124.6914
  30   1.0000      -3.195206       -86.9460
  31   1.0000      -3.194066       -86.9150
  32   1.0000      -3.193780       -86.9072
  33   1.0000      -1.421878       -38.6913
  34   1.0000      -1.162122       -31.6229
  35   1.0000      -1.086027       -29.5523
  36   1.0000      -1.054293       -28.6888
  37   1.0000      -1.048726       -28.5373
  38   1.0000      -1.045860       -28.4593
  39   1.0000      -1.036712       -28.2104
  40   1.0000      -0.993708       -27.0402
  41   1.0000      -0.986441       -26.8424
  42   1.0000      -0.928543       -25.2669
  43   1.0000      -0.916370       -24.9357
  44   1.0000      -0.911580       -24.8054
  45   1.0000      -0.911516       -24.8036
  46   1.0000      -0.901929       -24.5427
  47   1.0000      -0.901303       -24.5257
  48   1.0000      -0.795221       -21.6391
  49   1.0000      -0.757157       -20.6033
  50   1.0000      -0.690930       -18.8012
  51   1.0000      -0.687246       -18.7009
  52   1.0000      -0.679363       -18.4864
  53   1.0000      -0.669090       -18.2069
  54   1.0000      -0.644937       -17.5496
  55   1.0000      -0.624326       -16.9888
  56   1.0000      -0.602905       -16.4059
  57   1.0000      -0.594549       -16.1785
  58   1.0000      -0.582387       -15.8475
  59   1.0000      -0.576287       -15.6816
  60   1.0000      -0.571649       -15.5554
  61   1.0000      -0.564020       -15.3478
  62   1.0000      -0.555902       -15.1269
  63   1.0000      -0.544186       -14.8081
  64   1.0000      -0.535955       -14.5841
  65   1.0000      -0.521224       -14.1832
  66   1.0000      -0.518732       -14.1154
  67   1.0000      -0.483933       -13.1685
  68   1.0000      -0.467225       -12.7138
  69   1.0000      -0.460667       -12.5354
  70   1.0000      -0.434096       -11.8123
  71   1.0000      -0.430755       -11.7214
  72   1.0000      -0.428158       -11.6508
  73   1.0000      -0.419762       -11.4223
  74   1.0000      -0.418245       -11.3810
  75   1.0000      -0.417381       -11.3575
  76   1.0000      -0.380263       -10.3475
  77   0.0000       0.009828         0.2674
  78   0.0000       0.020508         0.5580
  79   0.0000       0.022328         0.6076
  80   0.0000       0.027198         0.7401
  81   0.0000       0.034136         0.9289

                 SPIN DOWN ORBITALS
  NO   OCC          E(Eh)            E(eV)
   0   1.0000    -261.555675     -7117.2917
   1   1.0000    -104.781283     -2851.2437
   2   1.0000    -104.777567     -2851.1425
   3   1.0000    -104.776471     -2851.1127
   4   1.0000     -32.065032      -872.5339
   5   1.0000     -27.542998      -749.4831
   6   1.0000     -27.542915      -749.4808
   7   1.0000     -27.542625      -749.4729
   8   1.0000     -20.574082      -559.8492
   9   1.0000     -11.402114      -310.2673
  10   1.0000     -11.325919      -308.1939
  11   1.0000     -11.271480      -306.7126
  12   1.0000     -11.268649      -306.6355
  13   1.0000     -11.263883      -306.5058
  14   1.0000     -11.258782      -306.3670
  15   1.0000     -11.251378      -306.1656
  16   1.0000     -11.244775      -305.9859
  17   1.0000     -10.507845      -285.9330
  18   1.0000     -10.504118      -285.8316
  19   1.0000     -10.502973      -285.8004
  20   1.0000      -7.973727      -216.9762
  21   1.0000      -7.973126      -216.9598
  22   1.0000      -7.973061      -216.9580
  23   1.0000      -7.970044      -216.8759
  24   1.0000      -7.969342      -216.8568
  25   1.0000      -7.969256      -216.8545
  26   1.0000      -7.968937      -216.8458
  27   1.0000      -7.968188      -216.8254
  28   1.0000      -7.968093      -216.8228
  29   1.0000      -4.140038      -112.6562
  30   1.0000      -2.661743       -72.4297
  31   1.0000      -2.661707       -72.4287
  32   1.0000      -2.660979       -72.4089
  33   1.0000      -1.410756       -38.3886
  34   1.0000      -1.161206       -31.5980
  35   1.0000      -1.083297       -29.4780
  36   1.0000      -1.040157       -28.3041
  37   1.0000      -1.035937       -28.1893
  38   1.0000      -1.027093       -27.9486
  39   1.0000      -1.024463       -27.8771
  40   1.0000      -0.993245       -27.0276
  41   1.0000      -0.986124       -26.8338
  42   1.0000      -0.917524       -24.9671
  43   1.0000      -0.809341       -22.0233
  44   1.0000      -0.757457       -20.6115
  45   1.0000      -0.693254       -18.8644
  46   1.0000      -0.686799       -18.6887
  47   1.0000      -0.679203       -18.4821
  48   1.0000      -0.668489       -18.1905
  49   1.0000      -0.644803       -17.5460
  50   1.0000      -0.623764       -16.9735
  51   1.0000      -0.602232       -16.3876
  52   1.0000      -0.594555       -16.1787
  53   1.0000      -0.582113       -15.8401
  54   1.0000      -0.575899       -15.6710
  55   1.0000      -0.570955       -15.5365
  56   1.0000      -0.563967       -15.3463
  57   1.0000      -0.555672       -15.1206
  58   1.0000      -0.543719       -14.7954
  59   1.0000      -0.532410       -14.4876
  60   1.0000      -0.519201       -14.1282
  61   1.0000      -0.510743       -13.8980
  62   1.0000      -0.482844       -13.1389
  63   1.0000      -0.472583       -12.8596
  64   1.0000      -0.469867       -12.7857
  65   1.0000      -0.443455       -12.0670
  66   1.0000      -0.439844       -11.9688
  67   1.0000      -0.437597       -11.9076
  68   1.0000      -0.424226       -11.5438
  69   1.0000      -0.417422       -11.3586
  70   1.0000      -0.403619       -10.9830
  71   1.0000      -0.377702       -10.2778
  72   0.0000       0.009822         0.2673
  73   0.0000       0.020485         0.5574
  74   0.0000       0.022327         0.6076
  75   0.0000       0.026890         0.7317
  76   0.0000       0.033579         0.9137

E(0)                                       ...  -3028.433897991
E(0)                                       ...  -3028.433897991
E(CORR)(strong-pairs)                      ...     -2.873938502
E(CORR)(weak-pairs)                        ...     -0.036783194
E(CORR)(corrected)                         ...     -2.910721696
E(TOT)                                     ...  -3031.344619688
E(CCSD(T))                                 ...  -3031.464872521
FINAL SINGLE POINT ENERGY     -3031.464872520833

DIPOLE MOMENT
-------------
                                X             Y             Z
Electronic contribution:     42.47052       5.90166       0.33438
Nuclear contribution   :    -46.91303      -6.67467      -0.71643
                        -----------------------------------------
Total Dipole Moment    :     -4.44251      -0.77301      -0.38205
                        -----------------------------------------
Magnitude (a.u.)       :      4.52542
Magnitude (Debye)      :     11.50270

Rotational constants in cm-1:     0.019283     0.010786     0.010193
Rotational constants in MHz :   578.080618   323.353382   305.590637

                             ****ORCA TERMINATED NORMALLY****
TOTAL RUN TIME: 0 days 19 hours 9 minutes 6 seconds 932 msec
