                         Program Version 4.1.2  - RELEASE  -
|  1> ! aug-cc-pVTZ aug-cc-pVTZ/C DLPNO-CCSD(T1) TightSCF NormalPNO UNO MiniPrint AutoAux
|  2> %pal nproc 10 end
|  3> %maxcore 20000
|  4> %mdci
|  5>      density none
|  6> end
|  7>
|  8> * xyz 0 6
|  9>  O     -0.33454800     -0.14211200     -0.47887000
| 10>  C     -1.19353200     -1.11224600     -0.30598400
| 11>  C     -2.63589700     -0.35040000      0.76250700
| 12>  C     -2.90696500      0.73618300     -0.06206600
| 13>  C     -3.91553600      0.65667300     -1.15833500
| 14> Fe      1.49036200      0.17424900     -0.08055100
| 15> Cl      1.81066400      2.17999200     -0.91591900
| 16>  C     -2.14365900      1.99383000      0.05760700
| 17> Cl      2.55566700     -1.47824700     -1.06252200
| 18> Cl      1.72224400      0.13775200      2.11628500
| 19>  H     -3.34493400     -1.17436400      0.68158900
| 20>  H     -2.57506800      2.81060200     -0.52467100
| 21>  H     -1.98782300      2.30352500      1.09441600
| 22>  H     -1.13669400      1.77025300     -0.34563400
| 23>  H     -4.73265000      1.35125800     -0.91503200
| 24>  H     -3.49548300      1.00572400     -2.11002100
| 25>  H     -4.33980000     -0.34076400     -1.28367700
| 26>  C     -2.05819700     -0.11969200      2.14964300
| 27>  H     -2.69664700      0.57459400      2.70778200
| 28>  H     -2.01652700     -1.05250300      2.71393800
| 29>  H     -1.04965800      0.29894100      2.11550200
| 30>  C     -0.75601700     -2.24244600      0.62048200
| 31>  H     -1.57762100     -2.91888900      0.86903600
| 32>  H      0.00308700     -2.80514100      0.06255300
| 33>  H     -0.28381800     -1.86985000      1.52851900
| 34>  C     -1.81418600     -1.61896900     -1.59979200
| 35>  H     -1.04831300     -2.23043700     -2.09093900
| 36>  H     -2.69415100     -2.24523300     -1.42911900
| 37>  H     -2.05878400     -0.80033000     -2.27668200
| 38> *
| 39>
| 40>
| 41>                          ****END OF INPUT****

CARTESIAN COORDINATES (ANGSTROEM)
---------------------------------
  O     -0.334548   -0.142112   -0.478870
  C     -1.193532   -1.112246   -0.305984
  C     -2.635897   -0.350400    0.762507
  C     -2.906965    0.736183   -0.062066
  C     -3.915536    0.656673   -1.158335
  Fe     1.490362    0.174249   -0.080551
  Cl     1.810664    2.179992   -0.915919
  C     -2.143659    1.993830    0.057607
  Cl     2.555667   -1.478247   -1.062522
  Cl     1.722244    0.137752    2.116285
  H     -3.344934   -1.174364    0.681589
  H     -2.575068    2.810602   -0.524671
  H     -1.987823    2.303525    1.094416
  H     -1.136694    1.770253   -0.345634
  H     -4.732650    1.351258   -0.915032
  H     -3.495483    1.005724   -2.110021
  H     -4.339800   -0.340764   -1.283677
  C     -2.058197   -0.119692    2.149643
  H     -2.696647    0.574594    2.707782
  H     -2.016527   -1.052503    2.713938
  H     -1.049658    0.298941    2.115502
  C     -0.756017   -2.242446    0.620482
  H     -1.577621   -2.918889    0.869036
  H      0.003087   -2.805141    0.062553
  H     -0.283818   -1.869850    1.528519
  C     -1.814186   -1.618969   -1.599792
  H     -1.048313   -2.230437   -2.090939
  H     -2.694151   -2.245233   -1.429119
  H     -2.058784   -0.800330   -2.276682

ORBITAL ENERGIES
----------------
                 SPIN UP ORBITALS
  NO   OCC          E(Eh)            E(eV)
   0   1.0000    -261.551534     -7117.1791
   1   1.0000    -104.776148     -2851.1039
   2   1.0000    -104.773555     -2851.0334
   3   1.0000    -104.773404     -2851.0293
   4   1.0000     -32.219423      -876.7351
   5   1.0000     -27.695508      -753.6331
   6   1.0000     -27.694993      -753.6191
   7   1.0000     -27.694817      -753.6143
   8   1.0000     -20.561815      -559.5154
   9   1.0000     -11.385700      -309.8206
  10   1.0000     -11.354198      -308.9634
  11   1.0000     -11.285714      -307.0999
  12   1.0000     -11.278770      -306.9109
  13   1.0000     -11.261476      -306.4403
  14   1.0000     -11.256649      -306.3090
  15   1.0000     -11.249951      -306.1267
  16   1.0000     -11.249256      -306.1078
  17   1.0000     -10.502775      -285.7950
  18   1.0000     -10.500141      -285.7234
  19   1.0000     -10.500029      -285.7203
  20   1.0000      -7.969640      -216.8649
  21   1.0000      -7.968825      -216.8427
  22   1.0000      -7.968786      -216.8417
  23   1.0000      -7.966961      -216.7920
  24   1.0000      -7.966880      -216.7898
  25   1.0000      -7.966256      -216.7728
  26   1.0000      -7.966164      -216.7704
  27   1.0000      -7.966129      -216.7694
  28   1.0000      -7.966050      -216.7672
  29   1.0000      -4.574758      -124.4855
  30   1.0000      -3.187510       -86.7366
  31   1.0000      -3.186672       -86.7137
  32   1.0000      -3.186252       -86.7023
  33   1.0000      -1.403669       -38.1958
  34   1.0000      -1.178734       -32.0750
  35   1.0000      -1.081676       -29.4339
  36   1.0000      -1.047727       -28.5101
  37   1.0000      -1.044382       -28.4191
  38   1.0000      -1.041790       -28.3486
  39   1.0000      -1.040248       -28.3066
  40   1.0000      -1.002127       -27.2693
  41   1.0000      -0.982403       -26.7325
  42   1.0000      -0.927182       -25.2299
  43   1.0000      -0.917436       -24.9647
  44   1.0000      -0.904146       -24.6031
  45   1.0000      -0.904109       -24.6021
  46   1.0000      -0.894846       -24.3500
  47   1.0000      -0.894445       -24.3391
  48   1.0000      -0.790017       -21.4975
  49   1.0000      -0.766778       -20.8651
  50   1.0000      -0.696742       -18.9593
  51   1.0000      -0.690780       -18.7971
  52   1.0000      -0.670770       -18.2526
  53   1.0000      -0.664611       -18.0850
  54   1.0000      -0.654160       -17.8006
  55   1.0000      -0.627489       -17.0748
  56   1.0000      -0.602182       -16.3862
  57   1.0000      -0.596333       -16.2271
  58   1.0000      -0.590156       -16.0590
  59   1.0000      -0.576720       -15.6933
  60   1.0000      -0.574082       -15.6216
  61   1.0000      -0.566037       -15.4027
  62   1.0000      -0.557436       -15.1686
  63   1.0000      -0.543585       -14.7917
  64   1.0000      -0.532760       -14.4971
  65   1.0000      -0.524553       -14.2738
  66   1.0000      -0.512285       -13.9400
  67   1.0000      -0.475586       -12.9413
  68   1.0000      -0.462379       -12.5820
  69   1.0000      -0.451908       -12.2970
  70   1.0000      -0.428865       -11.6700
  71   1.0000      -0.425854       -11.5881
  72   1.0000      -0.422746       -11.5035
  73   1.0000      -0.414611       -11.2821
  74   1.0000      -0.412763       -11.2319
  75   1.0000      -0.412330       -11.2201
  76   1.0000      -0.392203       -10.6724
  77   0.0000       0.006739         0.1834
  78   0.0000       0.018388         0.5004
  79   0.0000       0.019676         0.5354
  80   0.0000       0.021511         0.5853
  81   0.0000       0.029985         0.8159

                 SPIN DOWN ORBITALS
  NO   OCC          E(Eh)            E(eV)
   0   1.0000    -261.547978     -7117.0823
   1   1.0000    -104.774740     -2851.0656
   2   1.0000    -104.772137     -2850.9948
   3   1.0000    -104.771950     -2850.9897
   4   1.0000     -32.057354      -872.3249
   5   1.0000     -27.535361      -749.2753
   6   1.0000     -27.535249      -749.2722
   7   1.0000     -27.534882      -749.2622
   8   1.0000     -20.557006      -559.3846
   9   1.0000     -11.385688      -309.8203
  10   1.0000     -11.353917      -308.9558
  11   1.0000     -11.285753      -307.1009
  12   1.0000     -11.278720      -306.9096
  13   1.0000     -11.261522      -306.4416
  14   1.0000     -11.256543      -306.3061
  15   1.0000     -11.249937      -306.1263
  16   1.0000     -11.249275      -306.1083
  17   1.0000     -10.501264      -285.7539
  18   1.0000     -10.498626      -285.6821
  19   1.0000     -10.498472      -285.6779
  20   1.0000      -7.967155      -216.7973
  21   1.0000      -7.966563      -216.7812
  22   1.0000      -7.966491      -216.7792
  23   1.0000      -7.964593      -216.7276
  24   1.0000      -7.964398      -216.7223
  25   1.0000      -7.963886      -216.7084
  26   1.0000      -7.963785      -216.7056
  27   1.0000      -7.963727      -216.7040
  28   1.0000      -7.963641      -216.7017
  29   1.0000      -4.132457      -112.4499
  30   1.0000      -2.654214       -72.2248
  31   1.0000      -2.654170       -72.2236
  32   1.0000      -2.653397       -72.2026
  33   1.0000      -1.391396       -37.8618
  34   1.0000      -1.177626       -32.0448
  35   1.0000      -1.079042       -29.3622
  36   1.0000      -1.043733       -28.4014
  37   1.0000      -1.032818       -28.1044
  38   1.0000      -1.021182       -27.7878
  39   1.0000      -1.019531       -27.7429
  40   1.0000      -1.001979       -27.2652
  41   1.0000      -0.981701       -26.7134
  42   1.0000      -0.925249       -25.1773
  43   1.0000      -0.802853       -21.8467
  44   1.0000      -0.768102       -20.9011
  45   1.0000      -0.697490       -18.9797
  46   1.0000      -0.690237       -18.7823
  47   1.0000      -0.672377       -18.2963
  48   1.0000      -0.664319       -18.0770
  49   1.0000      -0.653432       -17.7808
  50   1.0000      -0.626972       -17.0608
  51   1.0000      -0.602033       -16.3822
  52   1.0000      -0.595757       -16.2114
  53   1.0000      -0.589813       -16.0496
  54   1.0000      -0.576441       -15.6858
  55   1.0000      -0.574010       -15.6196
  56   1.0000      -0.565464       -15.3871
  57   1.0000      -0.557310       -15.1652
  58   1.0000      -0.542819       -14.7709
  59   1.0000      -0.531759       -14.4699
  60   1.0000      -0.521263       -14.1843
  61   1.0000      -0.504185       -13.7196
  62   1.0000      -0.473294       -12.8790
  63   1.0000      -0.466319       -12.6892
  64   1.0000      -0.461722       -12.5641
  65   1.0000      -0.437333       -11.9004
  66   1.0000      -0.434326       -11.8186
  67   1.0000      -0.432454       -11.7677
  68   1.0000      -0.422603       -11.4996
  69   1.0000      -0.412228       -11.2173
  70   1.0000      -0.398408       -10.8412
  71   1.0000      -0.388144       -10.5619
  72   0.0000       0.006746         0.1836
  73   0.0000       0.018295         0.4978
  74   0.0000       0.019697         0.5360
  75   0.0000       0.021380         0.5818
  76   0.0000       0.029901         0.8136

E(0)                                       ...  -3028.428246699
E(0)                                       ...  -3028.428246699
E(CORR)(strong-pairs)                      ...     -2.875581859
E(CORR)(weak-pairs)                        ...     -0.035672964
E(CORR)(corrected)                         ...     -2.911254824
E(TOT)                                     ...  -3031.339501523
E(CCSD(T))                                 ...  -3031.460010377
FINAL SINGLE POINT ENERGY     -3031.460010376773

DIPOLE MOMENT
-------------
                                X             Y             Z
Electronic contribution:     42.59746       6.38631      -1.02325
Nuclear contribution   :    -47.64939      -6.93025       0.86813
                        -----------------------------------------
Total Dipole Moment    :     -5.05193      -0.54395      -0.15512
                        -----------------------------------------
Magnitude (a.u.)       :      5.08350
Magnitude (Debye)      :     12.92122

Rotational constants in cm-1:     0.019595     0.010503     0.010012
Rotational constants in MHz :   587.455938   314.863649   300.163412

                             ****ORCA TERMINATED NORMALLY****
TOTAL RUN TIME: 0 days 20 hours 55 minutes 31 seconds 399 msec
