                         Program Version 4.1.2  - RELEASE  -
|  1> ! aug-cc-pVTZ aug-cc-pVTZ/C DLPNO-CCSD(T1) TightSCF NormalPNO UNO MiniPrint AutoAux
|  2> %pal nproc 10 end
|  3> %maxcore 20000
|  4> %mdci
|  5>      density none
|  6> end
|  7>
|  8> * xyz 0 6
|  9>  O      0.26216500      0.28748100     -0.79824300
| 10>  C      1.04447000      1.25784400     -0.64320400
| 11>  C      3.16730600      0.02053400      0.34933300
| 12>  C      2.50243200     -1.00533800     -0.22172900
| 13>  C      2.71454900     -1.37574700     -1.66317000
| 14> Fe     -1.46755300     -0.12817700      0.04242000
| 15> Cl     -2.10519400     -1.97460800     -0.91627400
| 16>  C      1.59524500     -1.93816700      0.52556000
| 17> Cl     -2.60079700      1.66805400     -0.49669300
| 18> Cl     -1.18269300     -0.28351700      2.21327300
| 19>  H      3.87065900      0.56996600     -0.27634700
| 20>  H      2.12063800     -2.88765700      0.69878700
| 21>  H      1.26781300     -1.55690400      1.49253800
| 22>  H      0.70922800     -2.18360000     -0.06998500
| 23>  H      3.06874000     -2.41254800     -1.73032900
| 24>  H      1.76749600     -1.33588800     -2.21611900
| 25>  H      3.45163200     -0.73689000     -2.15797000
| 26>  C      3.21451600      0.35512700      1.81545900
| 27>  H      4.09112300     -0.11567800      2.28120000
| 28>  H      3.31498100      1.43295900      1.98121200
| 29>  H      2.33252100      0.00960000      2.36080900
| 30>  C      0.93626700      2.14687100      0.55514400
| 31>  H      1.82618700      2.76148200      0.69338000
| 32>  H      0.08034200      2.81144500      0.36259000
| 33>  H      0.70932200      1.58126000      1.45919800
| 34>  C      1.78491800      1.76674600     -1.84267900
| 35>  H      1.13125500      2.52834800     -2.29386500
| 36>  H      2.72580900      2.24971900     -1.57563500
| 37>  H      1.94073700      0.98111600     -2.57992300
| 38> *
| 39>
| 40>
| 41>                          ****END OF INPUT****

CARTESIAN COORDINATES (ANGSTROEM)
---------------------------------
  O      0.262165    0.287481   -0.798243
  C      1.044470    1.257844   -0.643204
  C      3.167306    0.020534    0.349333
  C      2.502432   -1.005338   -0.221729
  C      2.714549   -1.375747   -1.663170
  Fe    -1.467553   -0.128177    0.042420
  Cl    -2.105194   -1.974608   -0.916274
  C      1.595245   -1.938167    0.525560
  Cl    -2.600797    1.668054   -0.496693
  Cl    -1.182693   -0.283517    2.213273
  H      3.870659    0.569966   -0.276347
  H      2.120638   -2.887657    0.698787
  H      1.267813   -1.556904    1.492538
  H      0.709228   -2.183600   -0.069985
  H      3.068740   -2.412548   -1.730329
  H      1.767496   -1.335888   -2.216119
  H      3.451632   -0.736890   -2.157970
  C      3.214516    0.355127    1.815459
  H      4.091123   -0.115678    2.281200
  H      3.314981    1.432959    1.981212
  H      2.332521    0.009600    2.360809
  C      0.936267    2.146871    0.555144
  H      1.826187    2.761482    0.693380
  H      0.080342    2.811445    0.362590
  H      0.709322    1.581260    1.459198
  C      1.784918    1.766746   -1.842679
  H      1.131255    2.528348   -2.293865
  H      2.725809    2.249719   -1.575635
  H      1.940737    0.981116   -2.579923

ORBITAL ENERGIES
----------------
                 SPIN UP ORBITALS
  NO   OCC          E(Eh)            E(eV)
   0   1.0000    -261.576167     -7117.8494
   1   1.0000    -104.793458     -2851.5750
   2   1.0000    -104.790838     -2851.5037
   3   1.0000    -104.789334     -2851.4627
   4   1.0000     -32.243850      -877.3998
   5   1.0000     -27.720332      -754.3086
   6   1.0000     -27.719190      -754.2775
   7   1.0000     -27.719019      -754.2728
   8   1.0000     -20.617065      -561.0189
   9   1.0000     -11.422437      -310.8203
  10   1.0000     -11.277827      -306.8853
  11   1.0000     -11.271960      -306.7256
  12   1.0000     -11.268165      -306.6224
  13   1.0000     -11.243204      -305.9431
  14   1.0000     -11.240862      -305.8794
  15   1.0000     -11.240146      -305.8599
  16   1.0000     -11.229955      -305.5826
  17   1.0000     -10.520172      -286.2684
  18   1.0000     -10.517520      -286.1963
  19   1.0000     -10.515961      -286.1539
  20   1.0000      -7.987003      -217.3374
  21   1.0000      -7.986256      -217.3171
  22   1.0000      -7.986202      -217.3156
  23   1.0000      -7.984415      -217.2670
  24   1.0000      -7.983611      -217.2451
  25   1.0000      -7.983545      -217.2433
  26   1.0000      -7.982746      -217.2216
  27   1.0000      -7.982086      -217.2036
  28   1.0000      -7.982040      -217.2024
  29   1.0000      -4.598704      -125.1371
  30   1.0000      -3.211843       -87.3987
  31   1.0000      -3.210100       -87.3513
  32   1.0000      -3.209968       -87.3477
  33   1.0000      -1.464261       -39.8446
  34   1.0000      -1.126978       -30.6666
  35   1.0000      -1.101757       -29.9803
  36   1.0000      -1.066796       -29.0290
  37   1.0000      -1.061162       -28.8757
  38   1.0000      -1.058712       -28.8090
  39   1.0000      -1.022099       -27.8127
  40   1.0000      -1.010627       -27.5006
  41   1.0000      -0.958800       -26.0903
  42   1.0000      -0.942836       -25.6559
  43   1.0000      -0.927638       -25.2423
  44   1.0000      -0.927517       -25.2390
  45   1.0000      -0.916700       -24.9447
  46   1.0000      -0.916278       -24.9332
  47   1.0000      -0.897327       -24.4175
  48   1.0000      -0.813550       -22.1378
  49   1.0000      -0.729602       -19.8535
  50   1.0000      -0.712286       -19.3823
  51   1.0000      -0.703216       -19.1355
  52   1.0000      -0.687660       -18.7122
  53   1.0000      -0.655435       -17.8353
  54   1.0000      -0.622225       -16.9316
  55   1.0000      -0.621503       -16.9119
  56   1.0000      -0.603310       -16.4169
  57   1.0000      -0.600323       -16.3356
  58   1.0000      -0.585878       -15.9426
  59   1.0000      -0.579462       -15.7680
  60   1.0000      -0.560353       -15.2480
  61   1.0000      -0.552634       -15.0379
  62   1.0000      -0.551158       -14.9978
  63   1.0000      -0.539494       -14.6804
  64   1.0000      -0.534764       -14.5517
  65   1.0000      -0.526605       -14.3297
  66   1.0000      -0.503093       -13.6899
  67   1.0000      -0.493496       -13.4287
  68   1.0000      -0.477308       -12.9882
  69   1.0000      -0.475983       -12.9521
  70   1.0000      -0.446824       -12.1587
  71   1.0000      -0.440606       -11.9895
  72   1.0000      -0.439040       -11.9469
  73   1.0000      -0.430418       -11.7123
  74   1.0000      -0.429119       -11.6769
  75   1.0000      -0.428369       -11.6565
  76   1.0000      -0.358850        -9.7648
  77   0.0000       0.012839         0.3494
  78   0.0000       0.023712         0.6452
  79   0.0000       0.024398         0.6639
  80   0.0000       0.030625         0.8334
  81   0.0000       0.039457         1.0737

                 SPIN DOWN ORBITALS
  NO   OCC          E(Eh)            E(eV)
   0   1.0000    -261.572589     -7117.7520
   1   1.0000    -104.791966     -2851.5344
   2   1.0000    -104.789292     -2851.4616
   3   1.0000    -104.787780     -2851.4205
   4   1.0000     -32.081867      -872.9920
   5   1.0000     -27.559801      -749.9403
   6   1.0000     -27.559707      -749.9377
   7   1.0000     -27.559594      -749.9347
   8   1.0000     -20.613606      -560.9247
   9   1.0000     -11.422328      -310.8173
  10   1.0000     -11.277722      -306.8824
  11   1.0000     -11.271957      -306.7255
  12   1.0000     -11.268226      -306.6240
  13   1.0000     -11.243096      -305.9402
  14   1.0000     -11.240852      -305.8791
  15   1.0000     -11.240157      -305.8602
  16   1.0000     -11.229963      -305.5828
  17   1.0000     -10.518578      -286.2251
  18   1.0000     -10.515868      -286.1513
  19   1.0000     -10.514311      -286.1090
  20   1.0000      -7.984500      -217.2693
  21   1.0000      -7.983757      -217.2491
  22   1.0000      -7.983711      -217.2478
  23   1.0000      -7.981731      -217.1939
  24   1.0000      -7.981083      -217.1763
  25   1.0000      -7.980984      -217.1736
  26   1.0000      -7.980305      -217.1551
  27   1.0000      -7.979408      -217.1307
  28   1.0000      -7.979329      -217.1286
  29   1.0000      -4.156615      -113.1072
  30   1.0000      -2.678168       -72.8767
  31   1.0000      -2.678112       -72.8751
  32   1.0000      -2.677688       -72.8636
  33   1.0000      -1.455714       -39.6120
  34   1.0000      -1.126660       -30.6580
  35   1.0000      -1.099463       -29.9179
  36   1.0000      -1.051215       -28.6050
  37   1.0000      -1.038682       -28.2640
  38   1.0000      -1.036114       -28.1941
  39   1.0000      -1.021426       -27.7944
  40   1.0000      -1.010095       -27.4861
  41   1.0000      -0.958626       -26.0855
  42   1.0000      -0.897493       -24.4220
  43   1.0000      -0.826054       -22.4781
  44   1.0000      -0.729664       -19.8552
  45   1.0000      -0.714365       -19.4388
  46   1.0000      -0.702393       -19.1131
  47   1.0000      -0.686971       -18.6934
  48   1.0000      -0.655379       -17.8338
  49   1.0000      -0.621878       -16.9222
  50   1.0000      -0.621236       -16.9047
  51   1.0000      -0.603082       -16.4107
  52   1.0000      -0.600280       -16.3345
  53   1.0000      -0.585614       -15.9354
  54   1.0000      -0.578573       -15.7438
  55   1.0000      -0.559287       -15.2190
  56   1.0000      -0.552341       -15.0300
  57   1.0000      -0.549176       -14.9438
  58   1.0000      -0.539523       -14.6812
  59   1.0000      -0.528047       -14.3689
  60   1.0000      -0.522245       -14.2110
  61   1.0000      -0.504338       -13.7237
  62   1.0000      -0.493257       -13.4222
  63   1.0000      -0.485214       -13.2034
  64   1.0000      -0.483181       -13.1480
  65   1.0000      -0.453921       -12.3518
  66   1.0000      -0.450933       -12.2705
  67   1.0000      -0.448065       -12.1925
  68   1.0000      -0.431632       -11.7453
  69   1.0000      -0.429643       -11.6912
  70   1.0000      -0.413528       -11.2527
  71   1.0000      -0.358194        -9.7470
  72   0.0000       0.012824         0.3489
  73   0.0000       0.023688         0.6446
  74   0.0000       0.024365         0.6630
  75   0.0000       0.030573         0.8319
  76   0.0000       0.039351         1.0708

E(0)                                       ...  -3028.460653283
E(0)                                       ...  -3028.460653283
E(CORR)(strong-pairs)                      ...     -2.868069548
E(CORR)(weak-pairs)                        ...     -0.036049871
E(CORR)(corrected)                         ...     -2.904119418
E(TOT)                                     ...  -3031.364772701
E(CCSD(T))                                 ...  -3031.482852381
FINAL SINGLE POINT ENERGY     -3031.482852381239

DIPOLE MOMENT
-------------
                                X             Y             Z
Electronic contribution:    -43.34956      -3.55178       2.15020
Nuclear contribution   :     46.68510       4.85220      -2.78490
                        -----------------------------------------
Total Dipole Moment    :      3.33554       1.30042      -0.63470
                        -----------------------------------------
Magnitude (a.u.)       :      3.63590
Magnitude (Debye)      :      9.24172

Rotational constants in cm-1:     0.018944     0.010843     0.010221
Rotational constants in MHz :   567.930622   325.070237   306.431446

                             ****ORCA TERMINATED NORMALLY****
TOTAL RUN TIME: 0 days 17 hours 52 minutes 46 seconds 137 msec
