                         Program Version 4.1.2  - RELEASE  -
|  1> ! aug-cc-pVTZ aug-cc-pVTZ/C DLPNO-CCSD(T1) TightSCF NormalPNO UNO MiniPrint AutoAux
|  2> %pal nproc 10 end
|  3> %maxcore 20000
|  4> %mdci
|  5>      density none
|  6> end
|  7>
|  8> * xyz 0 6
|  9>  O     -0.31988100     -0.16385100     -0.72565900
| 10>  C     -1.23154300     -1.08593600     -0.59053200
| 11>  C     -2.82938000     -0.24518500      0.38031900
| 12>  C     -2.45400500      0.98586600     -0.11437500
| 13>  C     -2.87067300      1.46347800     -1.46485000
| 14> Fe      1.41308100      0.11001600     -0.00360300
| 15> Cl      1.99002300      2.08552400     -0.76613900
| 16>  C     -1.58812700      1.92882400      0.64408700
| 17> Cl      2.60800600     -1.58564500     -0.72334100
| 18> Cl      1.19268600      0.08570700      2.20619300
| 19>  H     -3.60849400     -0.76374500     -0.17523800
| 20>  H     -2.23424600      2.72865700      1.03741300
| 21>  H     -1.06889000      1.47242400      1.48495000
| 22>  H     -0.85477600      2.40418900     -0.01538900
| 23>  H     -3.26675000      2.48290800     -1.37771000
| 24>  H     -1.98517400      1.53262100     -2.11072600
| 25>  H     -3.62652800      0.83206500     -1.93488100
| 26>  C     -2.78331300     -0.56626000      1.86070400
| 27>  H     -3.57031500     -0.00462500      2.37888900
| 28>  H     -2.97102000     -1.62704900      2.03898800
| 29>  H     -1.82928800     -0.30795500      2.32524400
| 30>  C     -0.92712500     -2.22470000      0.36087300
| 31>  H     -1.77549200     -2.89942100      0.49041900
| 32>  H     -0.10780700     -2.78274000     -0.11291600
| 33>  H     -0.56495700     -1.87501200      1.32677700
| 34>  C     -1.85641800     -1.53802300     -1.89862600
| 35>  H     -1.08272300     -2.12869300     -2.40533500
| 36>  H     -2.73171800     -2.17411800     -1.74902100
| 37>  H     -2.10150100     -0.70245000     -2.55223000
| 38> *
| 39>
| 40>
| 41>                          ****END OF INPUT****

CARTESIAN COORDINATES (ANGSTROEM)
---------------------------------
  O     -0.319881   -0.163851   -0.725659
  C     -1.231543   -1.085936   -0.590532
  C     -2.829380   -0.245185    0.380319
  C     -2.454005    0.985866   -0.114375
  C     -2.870673    1.463478   -1.464850
  Fe     1.413081    0.110016   -0.003603
  Cl     1.990023    2.085524   -0.766139
  C     -1.588127    1.928824    0.644087
  Cl     2.608006   -1.585645   -0.723341
  Cl     1.192686    0.085707    2.206193
  H     -3.608494   -0.763745   -0.175238
  H     -2.234246    2.728657    1.037413
  H     -1.068890    1.472424    1.484950
  H     -0.854776    2.404189   -0.015389
  H     -3.266750    2.482908   -1.377710
  H     -1.985174    1.532621   -2.110726
  H     -3.626528    0.832065   -1.934881
  C     -2.783313   -0.566260    1.860704
  H     -3.570315   -0.004625    2.378889
  H     -2.971020   -1.627049    2.038988
  H     -1.829288   -0.307955    2.325244
  C     -0.927125   -2.224700    0.360873
  H     -1.775492   -2.899421    0.490419
  H     -0.107807   -2.782740   -0.112916
  H     -0.564957   -1.875012    1.326777
  C     -1.856418   -1.538023   -1.898626
  H     -1.082723   -2.128693   -2.405335
  H     -2.731718   -2.174118   -1.749021
  H     -2.101501   -0.702450   -2.552230

ORBITAL ENERGIES
----------------
                 SPIN UP ORBITALS
  NO   OCC          E(Eh)            E(eV)
   0   1.0000    -261.556844     -7117.3236
   1   1.0000    -104.781509     -2851.2498
   2   1.0000    -104.777372     -2851.1373
   3   1.0000    -104.776860     -2851.1233
   4   1.0000     -32.224715      -876.8791
   5   1.0000     -27.700772      -753.7763
   6   1.0000     -27.700318      -753.7640
   7   1.0000     -27.700109      -753.7583
   8   1.0000     -20.566723      -559.6490
   9   1.0000     -11.397975      -310.1547
  10   1.0000     -11.339963      -308.5761
  11   1.0000     -11.271801      -306.7213
  12   1.0000     -11.271087      -306.7019
  13   1.0000     -11.260747      -306.4205
  14   1.0000     -11.254356      -306.2466
  15   1.0000     -11.253486      -306.2229
  16   1.0000     -11.251331      -306.1643
  17   1.0000     -10.508138      -285.9410
  18   1.0000     -10.503965      -285.8274
  19   1.0000     -10.503487      -285.8144
  20   1.0000      -7.975021      -217.0114
  21   1.0000      -7.974165      -216.9881
  22   1.0000      -7.974131      -216.9871
  23   1.0000      -7.970774      -216.8958
  24   1.0000      -7.970338      -216.8839
  25   1.0000      -7.970073      -216.8767
  26   1.0000      -7.970000      -216.8747
  27   1.0000      -7.969586      -216.8634
  28   1.0000      -7.969514      -216.8615
  29   1.0000      -4.579959      -124.6270
  30   1.0000      -3.192643       -86.8762
  31   1.0000      -3.191865       -86.8551
  32   1.0000      -3.191484       -86.8447
  33   1.0000      -1.411714       -38.4147
  34   1.0000      -1.167929       -31.7810
  35   1.0000      -1.085731       -29.5442
  36   1.0000      -1.052518       -28.6405
  37   1.0000      -1.046863       -28.4866
  38   1.0000      -1.044280       -28.4163
  39   1.0000      -1.039886       -28.2967
  40   1.0000      -0.994363       -27.0580
  41   1.0000      -0.985202       -26.8087
  42   1.0000      -0.928499       -25.2657
  43   1.0000      -0.919380       -25.0176
  44   1.0000      -0.909263       -24.7423
  45   1.0000      -0.909163       -24.7396
  46   1.0000      -0.900126       -24.4937
  47   1.0000      -0.899415       -24.4743
  48   1.0000      -0.790352       -21.5066
  49   1.0000      -0.759214       -20.6593
  50   1.0000      -0.693590       -18.8735
  51   1.0000      -0.690522       -18.7901
  52   1.0000      -0.677786       -18.4435
  53   1.0000      -0.661751       -18.0072
  54   1.0000      -0.646747       -17.5989
  55   1.0000      -0.624708       -16.9992
  56   1.0000      -0.601968       -16.3804
  57   1.0000      -0.594348       -16.1730
  58   1.0000      -0.584726       -15.9112
  59   1.0000      -0.574870       -15.6430
  60   1.0000      -0.571187       -15.5428
  61   1.0000      -0.562297       -15.3009
  62   1.0000      -0.553870       -15.0716
  63   1.0000      -0.550720       -14.9859
  64   1.0000      -0.541872       -14.7451
  65   1.0000      -0.521642       -14.1946
  66   1.0000      -0.518393       -14.1062
  67   1.0000      -0.480783       -13.0828
  68   1.0000      -0.465174       -12.6580
  69   1.0000      -0.458616       -12.4796
  70   1.0000      -0.432030       -11.7561
  71   1.0000      -0.429148       -11.6777
  72   1.0000      -0.427511       -11.6332
  73   1.0000      -0.418528       -11.3887
  74   1.0000      -0.417263       -11.3543
  75   1.0000      -0.416349       -11.3294
  76   1.0000      -0.383070       -10.4239
  77   0.0000       0.009766         0.2657
  78   0.0000       0.020295         0.5523
  79   0.0000       0.021873         0.5952
  80   0.0000       0.028711         0.7813
  81   0.0000       0.034159         0.9295

                 SPIN DOWN ORBITALS
  NO   OCC          E(Eh)            E(eV)
   0   1.0000    -261.553294     -7117.2270
   1   1.0000    -104.780143     -2851.2127
   2   1.0000    -104.775952     -2851.0986
   3   1.0000    -104.775386     -2851.0832
   4   1.0000     -32.062643      -872.4689
   5   1.0000     -27.540651      -749.4192
   6   1.0000     -27.540546      -749.4163
   7   1.0000     -27.540168      -749.4061
   8   1.0000     -20.561932      -559.5186
   9   1.0000     -11.397944      -310.1538
  10   1.0000     -11.339839      -308.5727
  11   1.0000     -11.271678      -306.7180
  12   1.0000     -11.271102      -306.7023
  13   1.0000     -11.260633      -306.4174
  14   1.0000     -11.254397      -306.2477
  15   1.0000     -11.253462      -306.2223
  16   1.0000     -11.251345      -306.1647
  17   1.0000     -10.506669      -285.9010
  18   1.0000     -10.502449      -285.7862
  19   1.0000     -10.501910      -285.7715
  20   1.0000      -7.972534      -216.9437
  21   1.0000      -7.972014      -216.9295
  22   1.0000      -7.971945      -216.9276
  23   1.0000      -7.968429      -216.8320
  24   1.0000      -7.967831      -216.8157
  25   1.0000      -7.967688      -216.8118
  26   1.0000      -7.967600      -216.8094
  27   1.0000      -7.967147      -216.7971
  28   1.0000      -7.967063      -216.7948
  29   1.0000      -4.137631      -112.5907
  30   1.0000      -2.659363       -72.3649
  31   1.0000      -2.659337       -72.3642
  32   1.0000      -2.658491       -72.3412
  33   1.0000      -1.399520       -38.0829
  34   1.0000      -1.167066       -31.7575
  35   1.0000      -1.082986       -29.4695
  36   1.0000      -1.039914       -28.2975
  37   1.0000      -1.037663       -28.2362
  38   1.0000      -1.026106       -27.9218
  39   1.0000      -1.023221       -27.8433
  40   1.0000      -0.993958       -27.0470
  41   1.0000      -0.984656       -26.7938
  42   1.0000      -0.923966       -25.1424
  43   1.0000      -0.803183       -21.8557
  44   1.0000      -0.759785       -20.6748
  45   1.0000      -0.694787       -18.9061
  46   1.0000      -0.689878       -18.7725
  47   1.0000      -0.679031       -18.4774
  48   1.0000      -0.660977       -17.9861
  49   1.0000      -0.646490       -17.5919
  50   1.0000      -0.624288       -16.9877
  51   1.0000      -0.601089       -16.3565
  52   1.0000      -0.594502       -16.1772
  53   1.0000      -0.584525       -15.9057
  54   1.0000      -0.574375       -15.6295
  55   1.0000      -0.571021       -15.5383
  56   1.0000      -0.562116       -15.2960
  57   1.0000      -0.553497       -15.0614
  58   1.0000      -0.550068       -14.9681
  59   1.0000      -0.537231       -14.6188
  60   1.0000      -0.521612       -14.1938
  61   1.0000      -0.508704       -13.8425
  62   1.0000      -0.479353       -13.0438
  63   1.0000      -0.470433       -12.8011
  64   1.0000      -0.468048       -12.7362
  65   1.0000      -0.441399       -12.0111
  66   1.0000      -0.438510       -11.9325
  67   1.0000      -0.436468       -11.8769
  68   1.0000      -0.422923       -11.5083
  69   1.0000      -0.416706       -11.3392
  70   1.0000      -0.402990       -10.9659
  71   1.0000      -0.379926       -10.3383
  72   0.0000       0.009763         0.2657
  73   0.0000       0.020260         0.5513
  74   0.0000       0.021859         0.5948
  75   0.0000       0.028518         0.7760
  76   0.0000       0.033763         0.9187

E(0)                                       ...  -3028.428672385
E(0)                                       ...  -3028.428672385
E(CORR)(strong-pairs)                      ...     -2.874073368
E(CORR)(weak-pairs)                        ...     -0.036233890
E(CORR)(corrected)                         ...     -2.910307259
E(TOT)                                     ...  -3031.338979644
E(CCSD(T))                                 ...  -3031.459004143
FINAL SINGLE POINT ENERGY     -3031.459004143260

DIPOLE MOMENT
-------------
                                X             Y             Z
Electronic contribution:     40.90906       4.50609       1.77015
Nuclear contribution   :    -45.35884      -4.88917      -2.28722
                        -----------------------------------------
Total Dipole Moment    :     -4.44978      -0.38308      -0.51707
                        -----------------------------------------
Magnitude (a.u.)       :      4.49608
Magnitude (Debye)      :     11.42811

Rotational constants in cm-1:     0.019134     0.011405     0.010674
Rotational constants in MHz :   573.627275   341.903499   320.000801

                             ****ORCA TERMINATED NORMALLY****
TOTAL RUN TIME: 0 days 21 hours 38 minutes 2 seconds 367 msec
