                         Program Version 4.1.2  - RELEASE  -
|  1> ! aug-cc-pVTZ aug-cc-pVTZ/C DLPNO-CCSD(T1) TightSCF NormalPNO UNO MiniPrint AutoAux
|  2> %pal nproc 10 end
|  3> %maxcore 20000
|  4> %mdci
|  5>      density none
|  6> end
|  7>
|  8> * xyz 0 6
|  9>  O     -0.32123800     -0.23589900     -0.60650700
| 10>  C     -1.35207200     -1.12690800     -0.47673200
| 11>  C     -2.85641600     -0.12259600     -0.08839300
| 12>  C     -2.14562500      1.11059500     -0.22111500
| 13>  C     -2.00607500      1.78369300     -1.53035000
| 14> Fe      1.39361400      0.04199000      0.02963900
| 15> Cl      1.78907000      2.08683500     -0.74976700
| 16>  C     -1.57818400      1.80537700      0.95442300
| 17> Cl      2.66736000     -1.58420700     -0.72083100
| 18> Cl      1.26649900      0.05005700      2.25553200
| 19>  H     -3.50406300     -0.32284300     -0.94187500
| 20>  H     -2.41050400      2.35189500      1.42890700
| 21>  H     -1.18514000      1.11269800      1.70213100
| 22>  H     -0.80021200      2.51775800      0.67482400
| 23>  H     -2.56801200      2.72949100     -1.46904300
| 24>  H     -0.95571600      2.04924500     -1.69743800
| 25>  H     -2.39671800      1.19664800     -2.36207000
| 26>  C     -3.51221200     -0.47107600      1.23771000
| 27>  H     -4.36323300      0.19404500      1.42730000
| 28>  H     -3.89605700     -1.49384600      1.21212600
| 29>  H     -2.82769800     -0.39106200      2.08443100
| 30>  C     -1.15616100     -2.11577200      0.65447700
| 31>  H     -2.00008100     -2.80106700      0.76383600
| 32>  H     -0.26554200     -2.70337500      0.39545500
| 33>  H     -0.94695800     -1.61836100      1.60251300
| 34>  C     -1.67114300     -1.78812000     -1.80698600
| 35>  H     -0.79257100     -2.37931200     -2.09182000
| 36>  H     -2.54023900     -2.44963300     -1.73972500
| 37>  H     -1.83379900     -1.04363300     -2.59018400
| 38> *
| 39>
| 40>
| 41>                          ****END OF INPUT****

CARTESIAN COORDINATES (ANGSTROEM)
---------------------------------
  O     -0.321238   -0.235899   -0.606507
  C     -1.352072   -1.126908   -0.476732
  C     -2.856416   -0.122596   -0.088393
  C     -2.145625    1.110595   -0.221115
  C     -2.006075    1.783693   -1.530350
  Fe     1.393614    0.041990    0.029639
  Cl     1.789070    2.086835   -0.749767
  C     -1.578184    1.805377    0.954423
  Cl     2.667360   -1.584207   -0.720831
  Cl     1.266499    0.050057    2.255532
  H     -3.504063   -0.322843   -0.941875
  H     -2.410504    2.351895    1.428907
  H     -1.185140    1.112698    1.702131
  H     -0.800212    2.517758    0.674824
  H     -2.568012    2.729491   -1.469043
  H     -0.955716    2.049245   -1.697438
  H     -2.396718    1.196648   -2.362070
  C     -3.512212   -0.471076    1.237710
  H     -4.363233    0.194045    1.427300
  H     -3.896057   -1.493846    1.212126
  H     -2.827698   -0.391062    2.084431
  C     -1.156161   -2.115772    0.654477
  H     -2.000081   -2.801067    0.763836
  H     -0.265542   -2.703375    0.395455
  H     -0.946958   -1.618361    1.602513
  C     -1.671143   -1.788120   -1.806986
  H     -0.792571   -2.379312   -2.091820
  H     -2.540239   -2.449633   -1.739725
  H     -1.833799   -1.043633   -2.590184

ORBITAL ENERGIES
----------------
                 SPIN UP ORBITALS
  NO   OCC          E(Eh)            E(eV)
   0   1.0000    -261.546574     -7117.0441
   1   1.0000    -104.774258     -2851.0525
   2   1.0000    -104.774165     -2851.0500
   3   1.0000    -104.770327     -2850.9455
   4   1.0000     -32.214453      -876.5998
   5   1.0000     -27.690309      -753.4916
   6   1.0000     -27.690258      -753.4902
   7   1.0000     -27.689909      -753.4807
   8   1.0000     -20.544621      -559.0476
   9   1.0000     -11.392668      -310.0103
  10   1.0000     -11.366100      -309.2873
  11   1.0000     -11.286128      -307.1112
  12   1.0000     -11.279746      -306.9375
  13   1.0000     -11.274353      -306.7907
  14   1.0000     -11.263843      -306.5047
  15   1.0000     -11.246508      -306.0331
  16   1.0000     -11.240818      -305.8782
  17   1.0000     -10.500754      -285.7401
  18   1.0000     -10.500737      -285.7396
  19   1.0000     -10.496853      -285.6339
  20   1.0000      -7.967653      -216.8109
  21   1.0000      -7.967578      -216.8088
  22   1.0000      -7.966814      -216.7880
  23   1.0000      -7.966780      -216.7871
  24   1.0000      -7.966738      -216.7860
  25   1.0000      -7.966718      -216.7854
  26   1.0000      -7.963661      -216.7022
  27   1.0000      -7.962973      -216.6835
  28   1.0000      -7.962878      -216.6809
  29   1.0000      -4.569965      -124.3551
  30   1.0000      -3.182523       -86.6009
  31   1.0000      -3.182153       -86.5908
  32   1.0000      -3.181580       -86.5752
  33   1.0000      -1.374037       -37.3895
  34   1.0000      -1.185100       -32.2482
  35   1.0000      -1.086634       -29.5688
  36   1.0000      -1.045354       -28.4455
  37   1.0000      -1.041448       -28.3392
  38   1.0000      -1.039942       -28.2983
  39   1.0000      -1.037188       -28.2233
  40   1.0000      -1.012481       -27.5510
  41   1.0000      -0.974644       -26.5214
  42   1.0000      -0.935362       -25.4525
  43   1.0000      -0.910128       -24.7658
  44   1.0000      -0.899648       -24.4807
  45   1.0000      -0.899556       -24.4782
  46   1.0000      -0.891348       -24.2548
  47   1.0000      -0.891007       -24.2455
  48   1.0000      -0.787929       -21.4406
  49   1.0000      -0.764553       -20.8045
  50   1.0000      -0.702724       -19.1221
  51   1.0000      -0.692255       -18.8372
  52   1.0000      -0.674346       -18.3499
  53   1.0000      -0.644812       -17.5462
  54   1.0000      -0.637994       -17.3607
  55   1.0000      -0.629495       -17.1294
  56   1.0000      -0.601466       -16.3667
  57   1.0000      -0.597233       -16.2515
  58   1.0000      -0.593571       -16.1519
  59   1.0000      -0.583591       -15.8803
  60   1.0000      -0.577853       -15.7242
  61   1.0000      -0.559829       -15.2337
  62   1.0000      -0.557179       -15.1616
  63   1.0000      -0.542967       -14.7749
  64   1.0000      -0.534406       -14.5419
  65   1.0000      -0.529967       -14.4211
  66   1.0000      -0.506875       -13.7928
  67   1.0000      -0.473076       -12.8731
  68   1.0000      -0.461101       -12.5472
  69   1.0000      -0.447960       -12.1896
  70   1.0000      -0.426378       -11.6023
  71   1.0000      -0.425152       -11.5690
  72   1.0000      -0.421253       -11.4629
  73   1.0000      -0.414076       -11.2676
  74   1.0000      -0.412710       -11.2304
  75   1.0000      -0.410129       -11.1602
  76   1.0000      -0.400400       -10.8954
  77   0.0000       0.006798         0.1850
  78   0.0000       0.017805         0.4845
  79   0.0000       0.021109         0.5744
  80   0.0000       0.024296         0.6611
  81   0.0000       0.030236         0.8227

                 SPIN DOWN ORBITALS
  NO   OCC          E(Eh)            E(eV)
   0   1.0000    -261.543033     -7116.9478
   1   1.0000    -104.772976     -2851.0176
   2   1.0000    -104.772829     -2851.0136
   3   1.0000    -104.768898     -2850.9066
   4   1.0000     -32.052401      -872.1902
   5   1.0000     -27.530524      -749.1436
   6   1.0000     -27.530321      -749.1381
   7   1.0000     -27.529773      -749.1232
   8   1.0000     -20.538612      -558.8840
   9   1.0000     -11.392672      -310.0104
  10   1.0000     -11.365971      -309.2838
  11   1.0000     -11.285880      -307.1044
  12   1.0000     -11.279733      -306.9371
  13   1.0000     -11.274375      -306.7913
  14   1.0000     -11.263864      -306.5053
  15   1.0000     -11.246410      -306.0304
  16   1.0000     -11.240778      -305.8771
  17   1.0000     -10.499359      -285.7021
  18   1.0000     -10.499314      -285.7009
  19   1.0000     -10.495324      -285.5923
  20   1.0000      -7.965299      -216.7468
  21   1.0000      -7.965172      -216.7433
  22   1.0000      -7.964751      -216.7319
  23   1.0000      -7.964704      -216.7306
  24   1.0000      -7.964654      -216.7293
  25   1.0000      -7.964630      -216.7286
  26   1.0000      -7.961299      -216.6379
  27   1.0000      -7.960558      -216.6178
  28   1.0000      -7.960485      -216.6158
  29   1.0000      -4.127726      -112.3211
  30   1.0000      -2.649574       -72.0986
  31   1.0000      -2.649459       -72.0954
  32   1.0000      -2.648854       -72.0790
  33   1.0000      -1.358371       -36.9631
  34   1.0000      -1.183904       -32.2157
  35   1.0000      -1.083987       -29.4968
  36   1.0000      -1.039928       -28.2979
  37   1.0000      -1.031266       -28.0622
  38   1.0000      -1.020996       -27.7827
  39   1.0000      -1.017260       -27.6811
  40   1.0000      -1.011777       -27.5319
  41   1.0000      -0.973929       -26.5019
  42   1.0000      -0.933310       -25.3966
  43   1.0000      -0.795442       -21.6451
  44   1.0000      -0.769844       -20.9485
  45   1.0000      -0.702963       -19.1286
  46   1.0000      -0.691317       -18.8117
  47   1.0000      -0.675827       -18.3902
  48   1.0000      -0.647166       -17.6103
  49   1.0000      -0.635683       -17.2978
  50   1.0000      -0.629429       -17.1276
  51   1.0000      -0.600633       -16.3441
  52   1.0000      -0.597282       -16.2529
  53   1.0000      -0.593485       -16.1495
  54   1.0000      -0.582180       -15.8419
  55   1.0000      -0.577809       -15.7230
  56   1.0000      -0.559838       -15.2340
  57   1.0000      -0.556158       -15.1338
  58   1.0000      -0.542155       -14.7528
  59   1.0000      -0.532905       -14.5011
  60   1.0000      -0.524396       -14.2695
  61   1.0000      -0.500750       -13.6261
  62   1.0000      -0.470442       -12.8014
  63   1.0000      -0.463963       -12.6251
  64   1.0000      -0.457254       -12.4425
  65   1.0000      -0.435599       -11.8532
  66   1.0000      -0.431931       -11.7534
  67   1.0000      -0.431495       -11.7416
  68   1.0000      -0.424706       -11.5568
  69   1.0000      -0.410365       -11.1666
  70   1.0000      -0.398474       -10.8430
  71   1.0000      -0.393055       -10.6956
  72   0.0000       0.006796         0.1849
  73   0.0000       0.017660         0.4806
  74   0.0000       0.021092         0.5739
  75   0.0000       0.024153         0.6572
  76   0.0000       0.030269         0.8237

E(0)                                       ...  -3028.425880255
E(0)                                       ...  -3028.425880255
E(CORR)(strong-pairs)                      ...     -2.869462045
E(CORR)(weak-pairs)                        ...     -0.036121890
E(CORR)(corrected)                         ...     -2.905583935
E(TOT)                                     ...  -3031.331464190
E(CCSD(T))                                 ...  -3031.449777774
FINAL SINGLE POINT ENERGY     -3031.449777774069

DIPOLE MOMENT
-------------
                                X             Y             Z
Electronic contribution:     40.25457       4.19210       2.29270
Nuclear contribution   :    -45.10391      -3.86032      -2.74275
                        -----------------------------------------
Total Dipole Moment    :     -4.84935       0.33178      -0.45005
                        -----------------------------------------
Magnitude (a.u.)       :      4.88147
Magnitude (Debye)      :     12.40772

Rotational constants in cm-1:     0.019181     0.011701     0.010704
Rotational constants in MHz :   575.026200   350.794554   320.911894

                             ****ORCA TERMINATED NORMALLY****
TOTAL RUN TIME: 0 days 20 hours 29 minutes 36 seconds 592 msec
