                         Program Version 4.1.2  - RELEASE  -
|  1> ! aug-cc-pVTZ aug-cc-pVTZ/C DLPNO-CCSD(T1) TightSCF NormalPNO UNO MiniPrint AutoAux
|  2> %pal nproc 10 end
|  3> %maxcore 20000
|  4> %mdci
|  5>      density none
|  6> end
|  7>
|  8> * xyz 0 6
|  9>  O     -0.35058600     -0.12364600     -0.48424900
| 10>  C     -1.22203800     -1.10784500     -0.33471600
| 11>  C     -2.60641000     -0.40830200      0.67357700
| 12>  C     -2.80930800      0.76968900     -0.06096600
| 13>  C     -3.75256700      0.81426400     -1.21219700
| 14> Fe      1.46069500      0.16955500     -0.07073100
| 15> Cl      1.76786200      2.21136500     -0.83927900
| 16>  C     -2.03910400      1.98875700      0.21494400
| 17> Cl      2.57516000     -1.43636000     -1.07708700
| 18> Cl      1.64890000      0.08733800      2.13472100
| 19>  H     -3.36879800     -1.16940500      0.50233300
| 20>  H     -2.43852200      2.87234200     -0.28662300
| 21>  H     -1.88532800      2.17592000      1.28014500
| 22>  H     -1.03206000      1.77844900     -0.20072400
| 23>  H     -4.55897200      1.51643000     -0.95422000
| 24>  H     -3.26393900      1.23110200     -2.10220700
| 25>  H     -4.19860900     -0.15257500     -1.44748100
| 26>  C     -2.13749600     -0.29428600      2.11916800
| 27>  H     -2.81601100      0.35706900      2.68112200
| 28>  H     -2.14401300     -1.27190100      2.60342500
| 29>  H     -1.12667100      0.11334100      2.19450200
| 30>  C     -0.75079700     -2.27716200      0.53155900
| 31>  H     -1.55824100     -2.98265400      0.74607200
| 32>  H      0.01997300     -2.79415100     -0.05229500
| 33>  H     -0.28914100     -1.94109500      1.45916600
| 34>  C     -1.79389700     -1.59179300     -1.66521800
| 35>  H     -1.00103100     -2.16753000     -2.15477200
| 36>  H     -2.66340100     -2.24379400     -1.53869800
| 37>  H     -2.04158700     -0.76056100     -2.32566800
| 38> *
| 39>
| 40>
| 41>                          ****END OF INPUT****

CARTESIAN COORDINATES (ANGSTROEM)
---------------------------------
  O     -0.350586   -0.123646   -0.484249
  C     -1.222038   -1.107845   -0.334716
  C     -2.606410   -0.408302    0.673577
  C     -2.809308    0.769689   -0.060966
  C     -3.752567    0.814264   -1.212197
  Fe     1.460695    0.169555   -0.070731
  Cl     1.767862    2.211365   -0.839279
  C     -2.039104    1.988757    0.214944
  Cl     2.575160   -1.436360   -1.077087
  Cl     1.648900    0.087338    2.134721
  H     -3.368798   -1.169405    0.502333
  H     -2.438522    2.872342   -0.286623
  H     -1.885328    2.175920    1.280145
  H     -1.032060    1.778449   -0.200724
  H     -4.558972    1.516430   -0.954220
  H     -3.263939    1.231102   -2.102207
  H     -4.198609   -0.152575   -1.447481
  C     -2.137496   -0.294286    2.119168
  H     -2.816011    0.357069    2.681122
  H     -2.144013   -1.271901    2.603425
  H     -1.126671    0.113341    2.194502
  C     -0.750797   -2.277162    0.531559
  H     -1.558241   -2.982654    0.746072
  H      0.019973   -2.794151   -0.052295
  H     -0.289141   -1.941095    1.459166
  C     -1.793897   -1.591793   -1.665218
  H     -1.001031   -2.167530   -2.154772
  H     -2.663401   -2.243794   -1.538698
  H     -2.041587   -0.760561   -2.325668

ORBITAL ENERGIES
----------------
                 SPIN UP ORBITALS
  NO   OCC          E(Eh)            E(eV)
   0   1.0000    -261.546766     -7117.0493
   1   1.0000    -104.773205     -2851.0239
   2   1.0000    -104.771415     -2850.9751
   3   1.0000    -104.770483     -2850.9498
   4   1.0000     -32.214686      -876.6062
   5   1.0000     -27.690645      -753.5008
   6   1.0000     -27.690348      -753.4927
   7   1.0000     -27.690119      -753.4864
   8   1.0000     -20.548987      -559.1664
   9   1.0000     -11.374053      -309.5037
  10   1.0000     -11.371512      -309.4346
  11   1.0000     -11.293385      -307.3086
  12   1.0000     -11.283989      -307.0529
  13   1.0000     -11.266904      -306.5880
  14   1.0000     -11.251696      -306.1742
  15   1.0000     -11.250732      -306.1480
  16   1.0000     -11.242880      -305.9343
  17   1.0000     -10.499811      -285.7144
  18   1.0000     -10.497979      -285.6645
  19   1.0000     -10.497093      -285.6404
  20   1.0000      -7.966687      -216.7846
  21   1.0000      -7.965858      -216.7620
  22   1.0000      -7.965807      -216.7606
  23   1.0000      -7.964805      -216.7334
  24   1.0000      -7.964081      -216.7137
  25   1.0000      -7.963990      -216.7112
  26   1.0000      -7.963926      -216.7094
  27   1.0000      -7.963195      -216.6896
  28   1.0000      -7.963119      -216.6875
  29   1.0000      -4.570098      -124.3587
  30   1.0000      -3.182684       -86.6052
  31   1.0000      -3.182176       -86.5914
  32   1.0000      -3.181651       -86.5771
  33   1.0000      -1.389859       -37.8200
  34   1.0000      -1.188733       -32.3471
  35   1.0000      -1.082648       -29.4603
  36   1.0000      -1.045901       -28.4604
  37   1.0000      -1.044321       -28.4174
  38   1.0000      -1.039029       -28.2734
  39   1.0000      -1.037244       -28.2249
  40   1.0000      -1.009868       -27.4799
  41   1.0000      -0.975768       -26.5520
  42   1.0000      -0.931300       -25.3420
  43   1.0000      -0.912627       -24.8338
  44   1.0000      -0.899585       -24.4789
  45   1.0000      -0.899532       -24.4775
  46   1.0000      -0.890786       -24.2395
  47   1.0000      -0.890399       -24.2290
  48   1.0000      -0.790220       -21.5030
  49   1.0000      -0.769393       -20.9362
  50   1.0000      -0.704104       -19.1596
  51   1.0000      -0.693965       -18.8838
  52   1.0000      -0.670599       -18.2479
  53   1.0000      -0.657792       -17.8994
  54   1.0000      -0.651356       -17.7243
  55   1.0000      -0.629751       -17.1364
  56   1.0000      -0.601896       -16.3784
  57   1.0000      -0.598536       -16.2870
  58   1.0000      -0.593106       -16.1392
  59   1.0000      -0.580402       -15.7935
  60   1.0000      -0.574186       -15.6244
  61   1.0000      -0.563143       -15.3239
  62   1.0000      -0.557862       -15.1802
  63   1.0000      -0.540742       -14.7143
  64   1.0000      -0.533568       -14.5191
  65   1.0000      -0.521769       -14.1981
  66   1.0000      -0.508210       -13.8291
  67   1.0000      -0.470512       -12.8033
  68   1.0000      -0.460399       -12.5281
  69   1.0000      -0.447173       -12.1682
  70   1.0000      -0.426742       -11.6122
  71   1.0000      -0.423518       -11.5245
  72   1.0000      -0.419939       -11.4271
  73   1.0000      -0.412244       -11.2177
  74   1.0000      -0.410261       -11.1638
  75   1.0000      -0.409840       -11.1523
  76   1.0000      -0.399728       -10.8771
  77   0.0000       0.005001         0.1361
  78   0.0000       0.011640         0.3167
  79   0.0000       0.018727         0.5096
  80   0.0000       0.020118         0.5474
  81   0.0000       0.029039         0.7902

                 SPIN DOWN ORBITALS
  NO   OCC          E(Eh)            E(eV)
   0   1.0000    -261.543215     -7116.9527
   1   1.0000    -104.771827     -2850.9864
   2   1.0000    -104.770037     -2850.9376
   3   1.0000    -104.769049     -2850.9108
   4   1.0000     -32.052629      -872.1964
   5   1.0000     -27.530678      -749.1478
   6   1.0000     -27.530522      -749.1436
   7   1.0000     -27.530095      -749.1320
   8   1.0000     -20.543662      -559.0215
   9   1.0000     -11.373971      -309.5015
  10   1.0000     -11.371475      -309.4336
  11   1.0000     -11.293398      -307.3090
  12   1.0000     -11.283821      -307.0484
  13   1.0000     -11.266934      -306.5889
  14   1.0000     -11.251722      -306.1749
  15   1.0000     -11.250625      -306.1451
  16   1.0000     -11.242848      -305.9334
  17   1.0000     -10.498330      -285.6741
  18   1.0000     -10.496503      -285.6244
  19   1.0000     -10.495558      -285.5986
  20   1.0000      -7.964212      -216.7172
  21   1.0000      -7.963665      -216.7023
  22   1.0000      -7.963588      -216.7002
  23   1.0000      -7.962461      -216.6696
  24   1.0000      -7.961803      -216.6517
  25   1.0000      -7.961701      -216.6489
  26   1.0000      -7.961508      -216.6436
  27   1.0000      -7.960812      -216.6247
  28   1.0000      -7.960734      -216.6226
  29   1.0000      -4.127846      -112.3244
  30   1.0000      -2.649689       -72.1017
  31   1.0000      -2.649613       -72.0996
  32   1.0000      -2.648739       -72.0758
  33   1.0000      -1.376283       -37.4506
  34   1.0000      -1.187801       -32.3217
  35   1.0000      -1.080064       -29.3900
  36   1.0000      -1.044919       -28.4337
  37   1.0000      -1.029970       -28.0269
  38   1.0000      -1.018569       -27.7167
  39   1.0000      -1.016986       -27.6736
  40   1.0000      -1.009557       -27.4715
  41   1.0000      -0.974994       -26.5309
  42   1.0000      -0.930166       -25.3111
  43   1.0000      -0.799670       -21.7601
  44   1.0000      -0.773332       -21.0434
  45   1.0000      -0.704691       -19.1756
  46   1.0000      -0.693215       -18.8633
  47   1.0000      -0.670955       -18.2576
  48   1.0000      -0.659854       -17.9555
  49   1.0000      -0.649798       -17.6819
  50   1.0000      -0.629078       -17.1181
  51   1.0000      -0.602190       -16.3864
  52   1.0000      -0.598293       -16.2804
  53   1.0000      -0.591885       -16.1060
  54   1.0000      -0.580451       -15.7949
  55   1.0000      -0.573446       -15.6043
  56   1.0000      -0.562636       -15.3101
  57   1.0000      -0.557746       -15.1770
  58   1.0000      -0.539612       -14.6836
  59   1.0000      -0.533309       -14.5121
  60   1.0000      -0.516920       -14.0661
  61   1.0000      -0.500932       -13.6311
  62   1.0000      -0.468756       -12.7555
  63   1.0000      -0.463658       -12.6168
  64   1.0000      -0.455437       -12.3931
  65   1.0000      -0.434511       -11.8236
  66   1.0000      -0.431606       -11.7446
  67   1.0000      -0.429917       -11.6986
  68   1.0000      -0.424757       -11.5582
  69   1.0000      -0.409409       -11.1406
  70   1.0000      -0.396337       -10.7849
  71   1.0000      -0.392740       -10.6870
  72   0.0000       0.005008         0.1363
  73   0.0000       0.011441         0.3113
  74   0.0000       0.018729         0.5096
  75   0.0000       0.020094         0.5468
  76   0.0000       0.029038         0.7902

E(0)                                       ...  -3028.425004696
E(0)                                       ...  -3028.425004696
E(CORR)(strong-pairs)                      ...     -2.874963688
E(CORR)(weak-pairs)                        ...     -0.035864614
E(CORR)(corrected)                         ...     -2.910828303
E(TOT)                                     ...  -3031.335832999
E(CCSD(T))                                 ...  -3031.455713710
FINAL SINGLE POINT ENERGY     -3031.455713710061

DIPOLE MOMENT
-------------
                                X             Y             Z
Electronic contribution:     41.49226       6.74527      -0.53460
Nuclear contribution   :    -46.76288      -7.05632       0.34173
                        -----------------------------------------
Total Dipole Moment    :     -5.27061      -0.31105      -0.19287
                        -----------------------------------------
Magnitude (a.u.)       :      5.28331
Magnitude (Debye)      :     13.42910

Rotational constants in cm-1:     0.019448     0.010802     0.010245
Rotational constants in MHz :   583.046155   323.850163   307.138861

                             ****ORCA TERMINATED NORMALLY****
TOTAL RUN TIME: 0 days 23 hours 7 minutes 20 seconds 416 msec
