                         Program Version 4.1.2  - RELEASE  -
|  1> ! aug-cc-pVTZ aug-cc-pVTZ/C DLPNO-CCSD(T1) TightSCF NormalPNO UNO MiniPrint AutoAux
|  2> %pal nproc 10 end
|  3> %maxcore 20000
|  4> %mdci
|  5>      density none
|  6> end
|  7>
|  8> * xyz 0 6
|  9>  O      0.22704100      0.32575300     -0.85118500
| 10>  C      1.04149700      1.26877500     -0.66652200
| 11>  C      3.00032500      0.15512600      0.52733100
| 12>  C      2.61838700     -0.95080400     -0.14981600
| 13>  C      3.10967600     -1.23434700     -1.54139600
| 14> Fe     -1.46963400     -0.15094100      0.00754100
| 15> Cl     -2.06172400     -2.00972600     -0.95863500
| 16>  C      1.69985800     -1.99646100      0.40553100
| 17> Cl     -2.68934500      1.60457000     -0.46438700
| 18> Cl     -1.10996700     -0.34679200      2.16734400
| 19>  H      3.72513400      0.80882700      0.04274900
| 20>  H      2.23152100     -2.95468300      0.47838300
| 21>  H      1.29828900     -1.75315200      1.38846900
| 22>  H      0.85864400     -2.16540100     -0.27893900
| 23>  H      3.62389900     -2.20387200     -1.56237200
| 24>  H      2.26748700     -1.31812900     -2.24134300
| 25>  H      3.80754100     -0.47560800     -1.90548000
| 26>  C      2.78685500      0.40575500      1.99845900
| 27>  H      3.57376300     -0.09495900      2.57843500
| 28>  H      2.85053900      1.47096300      2.23796600
| 29>  H      1.82580300      0.03450600      2.36239200
| 30>  C      0.84673800      2.23022800      0.46634500
| 31>  H      1.73173800      2.84087100      0.64786800
| 32>  H      0.02471100      2.89144000      0.15336600
| 33>  H      0.52777800      1.72893400      1.37986600
| 34>  C      1.84188500      1.73303700     -1.84910900
| 35>  H      1.21604200      2.48404200     -2.35324700
| 36>  H      2.77559100      2.21673400     -1.55961300
| 37>  H      2.02195500      0.92318600     -2.55348000
| 38> *
| 39>
| 40>
| 41>                          ****END OF INPUT****

CARTESIAN COORDINATES (ANGSTROEM)
---------------------------------
  O      0.227041    0.325753   -0.851185
  C      1.041497    1.268775   -0.666522
  C      3.000325    0.155126    0.527331
  C      2.618387   -0.950804   -0.149816
  C      3.109676   -1.234347   -1.541396
  Fe    -1.469634   -0.150941    0.007541
  Cl    -2.061724   -2.009726   -0.958635
  C      1.699858   -1.996461    0.405531
  Cl    -2.689345    1.604570   -0.464387
  Cl    -1.109967   -0.346792    2.167344
  H      3.725134    0.808827    0.042749
  H      2.231521   -2.954683    0.478383
  H      1.298289   -1.753152    1.388469
  H      0.858644   -2.165401   -0.278939
  H      3.623899   -2.203872   -1.562372
  H      2.267487   -1.318129   -2.241343
  H      3.807541   -0.475608   -1.905480
  C      2.786855    0.405755    1.998459
  H      3.573763   -0.094959    2.578435
  H      2.850539    1.470963    2.237966
  H      1.825803    0.034506    2.362392
  C      0.846738    2.230228    0.466345
  H      1.731738    2.840871    0.647868
  H      0.024711    2.891440    0.153366
  H      0.527778    1.728934    1.379866
  C      1.841885    1.733037   -1.849109
  H      1.216042    2.484042   -2.353247
  H      2.775591    2.216734   -1.559613
  H      2.021955    0.923186   -2.553480

ORBITAL ENERGIES
----------------
                 SPIN UP ORBITALS
  NO   OCC          E(Eh)            E(eV)
   0   1.0000    -261.574062     -7117.7921
   1   1.0000    -104.792818     -2851.5575
   2   1.0000    -104.789441     -2851.4657
   3   1.0000    -104.787539     -2851.4139
   4   1.0000     -32.241791      -877.3437
   5   1.0000     -27.718227      -754.2513
   6   1.0000     -27.717158      -754.2222
   7   1.0000     -27.716966      -754.2170
   8   1.0000     -20.615026      -560.9634
   9   1.0000     -11.420923      -310.7791
  10   1.0000     -11.276473      -306.8484
  11   1.0000     -11.273337      -306.7631
  12   1.0000     -11.270877      -306.6962
  13   1.0000     -11.246609      -306.0358
  14   1.0000     -11.245857      -306.0153
  15   1.0000     -11.238006      -305.8017
  16   1.0000     -11.231486      -305.6243
  17   1.0000     -10.519527      -286.2509
  18   1.0000     -10.516127      -286.1584
  19   1.0000     -10.514175      -286.1053
  20   1.0000      -7.986365      -217.3200
  21   1.0000      -7.985600      -217.2992
  22   1.0000      -7.985553      -217.2979
  23   1.0000      -7.983003      -217.2286
  24   1.0000      -7.982223      -217.2073
  25   1.0000      -7.982168      -217.2058
  26   1.0000      -7.980967      -217.1731
  27   1.0000      -7.980302      -217.1551
  28   1.0000      -7.980252      -217.1537
  29   1.0000      -4.596698      -125.0825
  30   1.0000      -3.209805       -87.3432
  31   1.0000      -3.208142       -87.2980
  32   1.0000      -3.207980       -87.2936
  33   1.0000      -1.459499       -39.7150
  34   1.0000      -1.130587       -30.7648
  35   1.0000      -1.099415       -29.9166
  36   1.0000      -1.065694       -28.9990
  37   1.0000      -1.059887       -28.8410
  38   1.0000      -1.056964       -28.7614
  39   1.0000      -1.023108       -27.8402
  40   1.0000      -1.008564       -27.4444
  41   1.0000      -0.961399       -26.1610
  42   1.0000      -0.941276       -25.6134
  43   1.0000      -0.925642       -25.1880
  44   1.0000      -0.925538       -25.1852
  45   1.0000      -0.915019       -24.8989
  46   1.0000      -0.914333       -24.8803
  47   1.0000      -0.899074       -24.4650
  48   1.0000      -0.811734       -22.0884
  49   1.0000      -0.732789       -19.9402
  50   1.0000      -0.709661       -19.3108
  51   1.0000      -0.699843       -19.0437
  52   1.0000      -0.684709       -18.6319
  53   1.0000      -0.657872       -17.9016
  54   1.0000      -0.623893       -16.9770
  55   1.0000      -0.621454       -16.9106
  56   1.0000      -0.604819       -16.4580
  57   1.0000      -0.599108       -16.3025
  58   1.0000      -0.585454       -15.9310
  59   1.0000      -0.577726       -15.7207
  60   1.0000      -0.560907       -15.2631
  61   1.0000      -0.553234       -15.0543
  62   1.0000      -0.547430       -14.8963
  63   1.0000      -0.542838       -14.7714
  64   1.0000      -0.535676       -14.5765
  65   1.0000      -0.527723       -14.3601
  66   1.0000      -0.501636       -13.6502
  67   1.0000      -0.495827       -13.4921
  68   1.0000      -0.475957       -12.9514
  69   1.0000      -0.474835       -12.9209
  70   1.0000      -0.445505       -12.1228
  71   1.0000      -0.439620       -11.9627
  72   1.0000      -0.437770       -11.9123
  73   1.0000      -0.429124       -11.6771
  74   1.0000      -0.428132       -11.6501
  75   1.0000      -0.426851       -11.6152
  76   1.0000      -0.361631        -9.8405
  77   0.0000       0.012538         0.3412
  78   0.0000       0.023360         0.6357
  79   0.0000       0.024032         0.6539
  80   0.0000       0.030512         0.8303
  81   0.0000       0.039178         1.0661

                 SPIN DOWN ORBITALS
  NO   OCC          E(Eh)            E(eV)
   0   1.0000    -261.570486     -7117.6948
   1   1.0000    -104.791344     -2851.5174
   2   1.0000    -104.787893     -2851.4235
   3   1.0000    -104.785988     -2851.3717
   4   1.0000     -32.079789      -872.9354
   5   1.0000     -27.557701      -749.8832
   6   1.0000     -27.557642      -749.8815
   7   1.0000     -27.557517      -749.8782
   8   1.0000     -20.611420      -560.8653
   9   1.0000     -11.420841      -310.7769
  10   1.0000     -11.276363      -306.8454
  11   1.0000     -11.273343      -306.7633
  12   1.0000     -11.270868      -306.6959
  13   1.0000     -11.246561      -306.0345
  14   1.0000     -11.245856      -306.0153
  15   1.0000     -11.238009      -305.8018
  16   1.0000     -11.231501      -305.6247
  17   1.0000     -10.517951      -286.2080
  18   1.0000     -10.514473      -286.1134
  19   1.0000     -10.512527      -286.0604
  20   1.0000      -7.983866      -217.2520
  21   1.0000      -7.983150      -217.2325
  22   1.0000      -7.983108      -217.2314
  23   1.0000      -7.980357      -217.1566
  24   1.0000      -7.979671      -217.1379
  25   1.0000      -7.979581      -217.1354
  26   1.0000      -7.978516      -217.1064
  27   1.0000      -7.977636      -217.0825
  28   1.0000      -7.977553      -217.0803
  29   1.0000      -4.154577      -113.0518
  30   1.0000      -2.676131       -72.8212
  31   1.0000      -2.676124       -72.8210
  32   1.0000      -2.675618       -72.8073
  33   1.0000      -1.450604       -39.4729
  34   1.0000      -1.130253       -30.7557
  35   1.0000      -1.097006       -29.8511
  36   1.0000      -1.050179       -28.5768
  37   1.0000      -1.037667       -28.2363
  38   1.0000      -1.034402       -28.1475
  39   1.0000      -1.022484       -27.8232
  40   1.0000      -1.007967       -27.4282
  41   1.0000      -0.961295       -26.1582
  42   1.0000      -0.899255       -24.4700
  43   1.0000      -0.824788       -22.4436
  44   1.0000      -0.732862       -19.9422
  45   1.0000      -0.711847       -19.3703
  46   1.0000      -0.698950       -19.0194
  47   1.0000      -0.684036       -18.6136
  48   1.0000      -0.657795       -17.8995
  49   1.0000      -0.623852       -16.9759
  50   1.0000      -0.620909       -16.8958
  51   1.0000      -0.604518       -16.4498
  52   1.0000      -0.599010       -16.2999
  53   1.0000      -0.585182       -15.9236
  54   1.0000      -0.576401       -15.6847
  55   1.0000      -0.560154       -15.2426
  56   1.0000      -0.553063       -15.0496
  57   1.0000      -0.545715       -14.8497
  58   1.0000      -0.542724       -14.7683
  59   1.0000      -0.529007       -14.3950
  60   1.0000      -0.522491       -14.2177
  61   1.0000      -0.503148       -13.6913
  62   1.0000      -0.495736       -13.4897
  63   1.0000      -0.484076       -13.1724
  64   1.0000      -0.481533       -13.1032
  65   1.0000      -0.452958       -12.3256
  66   1.0000      -0.449786       -12.2393
  67   1.0000      -0.446915       -12.1612
  68   1.0000      -0.430708       -11.7202
  69   1.0000      -0.428038       -11.6475
  70   1.0000      -0.412453       -11.2234
  71   1.0000      -0.360909        -9.8208
  72   0.0000       0.012522         0.3407
  73   0.0000       0.023337         0.6350
  74   0.0000       0.023998         0.6530
  75   0.0000       0.030432         0.8281
  76   0.0000       0.039052         1.0627

E(0)                                       ...  -3028.459874375
E(0)                                       ...  -3028.459874375
E(CORR)(strong-pairs)                      ...     -2.868961164
E(CORR)(weak-pairs)                        ...     -0.035746274
E(CORR)(corrected)                         ...     -2.904707438
E(TOT)                                     ...  -3031.364581813
E(CCSD(T))                                 ...  -3031.482936025
FINAL SINGLE POINT ENERGY     -3031.482936025427

DIPOLE MOMENT
-------------
                                X             Y             Z
Electronic contribution:    -43.16744      -4.55316       1.58043
Nuclear contribution   :     46.60783       5.86994      -2.20853
                        -----------------------------------------
Total Dipole Moment    :      3.44039       1.31677      -0.62810
                        -----------------------------------------
Magnitude (a.u.)       :      3.73693
Magnitude (Debye)      :      9.49853

Rotational constants in cm-1:     0.018917     0.010847     0.010211
Rotational constants in MHz :   567.107060   325.190078   306.117324

                             ****ORCA TERMINATED NORMALLY****
TOTAL RUN TIME: 0 days 18 hours 23 minutes 51 seconds 907 msec
