                         Program Version 4.1.2  - RELEASE  -
|  1> ! aug-cc-pVTZ aug-cc-pVTZ/C DLPNO-CCSD(T1) TightSCF NormalPNO UNO MiniPrint AutoAux
|  2> %pal nproc 10 end
|  3> %maxcore 20000
|  4> %mdci
|  5>      density none
|  6> end
|  7>
|  8> * xyz 0 6
|  9>  O     -0.38971000     -0.21501800     -0.55957600
| 10>  C     -1.45404700     -1.18130000     -0.34449700
| 11>  C     -2.73576400     -0.14541600     -0.26295800
| 12>  C     -1.95194500      1.15416100     -0.25178300
| 13>  C     -1.84507100      1.95327300     -1.49384200
| 14> Fe      1.37923200      0.02947800      0.02143500
| 15> Cl      1.82606300      2.01894900     -0.84581200
| 16>  C     -1.58584100      1.80855900      1.02527100
| 17> Cl      2.51755500     -1.68797100     -0.72542100
| 18> Cl      1.35829800      0.15346200      2.23325300
| 19>  H     -3.27387500     -0.21478200     -1.21311400
| 20>  H     -2.46402400      2.39559700      1.34145400
| 21>  H     -1.35618000      1.09710600      1.81856000
| 22>  H     -0.74708300      2.49590300      0.89462300
| 23>  H     -2.63426200      2.72267800     -1.45536300
| 24>  H     -0.87945100      2.46561900     -1.54107900
| 25>  H     -1.99625200      1.34706800     -2.38789500
| 26>  C     -3.71597100     -0.34678200      0.88903900
| 27>  H     -4.50837500      0.41006400      0.86867400
| 28>  H     -4.19526600     -1.32581400      0.79462700
| 29>  H     -3.23014100     -0.30614800      1.86657600
| 30>  C     -1.22168700     -1.97491700      0.93013700
| 31>  H     -2.04278100     -2.67628700      1.10980500
| 32>  H     -0.29837100     -2.55436000      0.82120000
| 33>  H     -1.10231300     -1.33084400      1.80335500
| 34>  C     -1.53901800     -2.08150200     -1.56538000
| 35>  H     -0.60533900     -2.64528300     -1.66343500
| 36>  H     -2.37018200     -2.79020200     -1.47422600
| 37>  H     -1.67496500     -1.48850800     -2.47472900
| 38> *
| 39>
| 40>
| 41>                          ****END OF INPUT****

CARTESIAN COORDINATES (ANGSTROEM)
---------------------------------
  O     -0.389710   -0.215018   -0.559576
  C     -1.454047   -1.181300   -0.344497
  C     -2.735764   -0.145416   -0.262958
  C     -1.951945    1.154161   -0.251783
  C     -1.845071    1.953273   -1.493842
  Fe     1.379232    0.029478    0.021435
  Cl     1.826063    2.018949   -0.845812
  C     -1.585841    1.808559    1.025271
  Cl     2.517555   -1.687971   -0.725421
  Cl     1.358298    0.153462    2.233253
  H     -3.273875   -0.214782   -1.213114
  H     -2.464024    2.395597    1.341454
  H     -1.356180    1.097106    1.818560
  H     -0.747083    2.495903    0.894623
  H     -2.634262    2.722678   -1.455363
  H     -0.879451    2.465619   -1.541079
  H     -1.996252    1.347068   -2.387895
  C     -3.715971   -0.346782    0.889039
  H     -4.508375    0.410064    0.868674
  H     -4.195266   -1.325814    0.794627
  H     -3.230141   -0.306148    1.866576
  C     -1.221687   -1.974917    0.930137
  H     -2.042781   -2.676287    1.109805
  H     -0.298371   -2.554360    0.821200
  H     -1.102313   -1.330844    1.803355
  C     -1.539018   -2.081502   -1.565380
  H     -0.605339   -2.645283   -1.663435
  H     -2.370182   -2.790202   -1.474226
  H     -1.674965   -1.488508   -2.474729

ORBITAL ENERGIES
----------------
                 SPIN UP ORBITALS
  NO   OCC          E(Eh)            E(eV)
   0   1.0000    -261.547361     -7117.0655
   1   1.0000    -104.776047     -2851.1012
   2   1.0000    -104.774423     -2851.0570
   3   1.0000    -104.771595     -2850.9800
   4   1.0000     -32.215278      -876.6223
   5   1.0000     -27.691174      -753.5152
   6   1.0000     -27.691028      -753.5112
   7   1.0000     -27.690676      -753.5016
   8   1.0000     -20.556421      -559.3687
   9   1.0000     -11.408506      -310.4412
  10   1.0000     -11.334670      -308.4320
  11   1.0000     -11.293993      -307.3252
  12   1.0000     -11.280892      -306.9687
  13   1.0000     -11.280147      -306.9484
  14   1.0000     -11.265708      -306.5555
  15   1.0000     -11.235737      -305.7400
  16   1.0000     -11.234503      -305.7064
  17   1.0000     -10.502644      -285.7915
  18   1.0000     -10.501126      -285.7502
  19   1.0000     -10.498218      -285.6710
  20   1.0000      -7.969478      -216.8605
  21   1.0000      -7.968726      -216.8401
  22   1.0000      -7.968642      -216.8378
  23   1.0000      -7.968010      -216.8206
  24   1.0000      -7.967163      -216.7975
  25   1.0000      -7.967140      -216.7969
  26   1.0000      -7.965019      -216.7392
  27   1.0000      -7.964342      -216.7208
  28   1.0000      -7.964257      -216.7185
  29   1.0000      -4.570673      -124.3743
  30   1.0000      -3.183025       -86.6145
  31   1.0000      -3.182902       -86.6112
  32   1.0000      -3.182282       -86.5943
  33   1.0000      -1.352054       -36.7913
  34   1.0000      -1.173583       -31.9348
  35   1.0000      -1.093292       -29.7500
  36   1.0000      -1.047200       -28.4958
  37   1.0000      -1.041955       -28.3530
  38   1.0000      -1.039226       -28.2788
  39   1.0000      -1.035869       -28.1874
  40   1.0000      -1.015851       -27.6427
  41   1.0000      -0.964040       -26.2329
  42   1.0000      -0.933634       -25.4055
  43   1.0000      -0.902160       -24.5490
  44   1.0000      -0.900002       -24.4903
  45   1.0000      -0.899500       -24.4766
  46   1.0000      -0.891894       -24.2697
  47   1.0000      -0.891351       -24.2549
  48   1.0000      -0.801793       -21.8179
  49   1.0000      -0.758314       -20.6348
  50   1.0000      -0.700508       -19.0618
  51   1.0000      -0.688808       -18.7434
  52   1.0000      -0.670990       -18.2586
  53   1.0000      -0.635539       -17.2939
  54   1.0000      -0.633873       -17.2486
  55   1.0000      -0.620597       -16.8873
  56   1.0000      -0.603685       -16.4271
  57   1.0000      -0.595638       -16.2081
  58   1.0000      -0.593786       -16.1577
  59   1.0000      -0.582686       -15.8557
  60   1.0000      -0.575078       -15.6487
  61   1.0000      -0.558868       -15.2076
  62   1.0000      -0.544467       -14.8157
  63   1.0000      -0.536914       -14.6102
  64   1.0000      -0.527736       -14.3604
  65   1.0000      -0.518332       -14.1045
  66   1.0000      -0.504089       -13.7170
  67   1.0000      -0.473856       -12.8943
  68   1.0000      -0.466502       -12.6942
  69   1.0000      -0.451199       -12.2778
  70   1.0000      -0.440521       -11.9872
  71   1.0000      -0.426944       -11.6177
  72   1.0000      -0.422486       -11.4964
  73   1.0000      -0.417666       -11.3653
  74   1.0000      -0.414379       -11.2758
  75   1.0000      -0.412973       -11.2376
  76   1.0000      -0.411474       -11.1968
  77   0.0000       0.006531         0.1777
  78   0.0000       0.019282         0.5247
  79   0.0000       0.021663         0.5895
  80   0.0000       0.030469         0.8291
  81   0.0000       0.036131         0.9832

                 SPIN DOWN ORBITALS
  NO   OCC          E(Eh)            E(eV)
   0   1.0000    -261.543812     -7116.9689
   1   1.0000    -104.774729     -2851.0653
   2   1.0000    -104.773043     -2851.0194
   3   1.0000    -104.770138     -2850.9404
   4   1.0000     -32.053284      -872.2142
   5   1.0000     -27.531367      -749.1666
   6   1.0000     -27.531157      -749.1609
   7   1.0000     -27.530709      -749.1487
   8   1.0000     -20.550711      -559.2133
   9   1.0000     -11.408562      -310.4428
  10   1.0000     -11.334467      -308.4265
  11   1.0000     -11.293886      -307.3223
  12   1.0000     -11.280871      -306.9681
  13   1.0000     -11.280152      -306.9486
  14   1.0000     -11.265699      -306.5552
  15   1.0000     -11.235696      -305.7388
  16   1.0000     -11.234489      -305.7060
  17   1.0000     -10.501227      -285.7529
  18   1.0000     -10.499642      -285.7098
  19   1.0000     -10.496660      -285.6286
  20   1.0000      -7.967174      -216.7978
  21   1.0000      -7.966580      -216.7817
  22   1.0000      -7.966506      -216.7796
  23   1.0000      -7.965533      -216.7532
  24   1.0000      -7.964971      -216.7379
  25   1.0000      -7.964917      -216.7364
  26   1.0000      -7.962642      -216.6745
  27   1.0000      -7.961863      -216.6533
  28   1.0000      -7.961806      -216.6517
  29   1.0000      -4.128589      -112.3446
  30   1.0000      -2.650501       -72.1238
  31   1.0000      -2.650470       -72.1230
  32   1.0000      -2.649374       -72.0931
  33   1.0000      -1.337289       -36.3895
  34   1.0000      -1.171838       -31.8873
  35   1.0000      -1.090821       -29.6828
  36   1.0000      -1.034334       -28.1457
  37   1.0000      -1.032872       -28.1059
  38   1.0000      -1.022640       -27.8275
  39   1.0000      -1.018931       -27.7265
  40   1.0000      -1.014942       -27.6180
  41   1.0000      -0.963290       -26.2125
  42   1.0000      -0.929061       -25.2810
  43   1.0000      -0.804126       -21.8814
  44   1.0000      -0.762531       -20.7495
  45   1.0000      -0.700606       -19.0645
  46   1.0000      -0.688502       -18.7351
  47   1.0000      -0.672105       -18.2889
  48   1.0000      -0.636688       -17.3252
  49   1.0000      -0.633861       -17.2482
  50   1.0000      -0.619075       -16.8459
  51   1.0000      -0.603770       -16.4294
  52   1.0000      -0.594485       -16.1768
  53   1.0000      -0.593677       -16.1548
  54   1.0000      -0.581553       -15.8249
  55   1.0000      -0.574371       -15.6294
  56   1.0000      -0.558353       -15.1935
  57   1.0000      -0.540636       -14.7114
  58   1.0000      -0.536363       -14.5952
  59   1.0000      -0.525414       -14.2972
  60   1.0000      -0.513647       -13.9771
  61   1.0000      -0.501627       -13.6500
  62   1.0000      -0.470867       -12.8130
  63   1.0000      -0.466772       -12.7015
  64   1.0000      -0.459546       -12.5049
  65   1.0000      -0.445763       -12.1298
  66   1.0000      -0.437571       -11.9069
  67   1.0000      -0.433221       -11.7885
  68   1.0000      -0.432267       -11.7626
  69   1.0000      -0.412570       -11.2266
  70   1.0000      -0.405906       -11.0453
  71   1.0000      -0.399271       -10.8647
  72   0.0000       0.006503         0.1770
  73   0.0000       0.019135         0.5207
  74   0.0000       0.021643         0.5889
  75   0.0000       0.030496         0.8298
  76   0.0000       0.035544         0.9672

E(0)                                       ...  -3028.440661955
E(0)                                       ...  -3028.440661955
E(CORR)(strong-pairs)                      ...     -2.872106364
E(CORR)(weak-pairs)                        ...     -0.034996272
E(CORR)(corrected)                         ...     -2.907102636
E(TOT)                                     ...  -3031.347764591
E(CCSD(T))                                 ...  -3031.466136421
FINAL SINGLE POINT ENERGY     -3031.466136421077

DIPOLE MOMENT
-------------
                                X             Y             Z
Electronic contribution:     40.34943       3.71753       1.52962
Nuclear contribution   :    -45.11192      -3.09046      -1.85858
                        -----------------------------------------
Total Dipole Moment    :     -4.76249       0.62707      -0.32896
                        -----------------------------------------
Magnitude (a.u.)       :      4.81485
Magnitude (Debye)      :     12.23836

Rotational constants in cm-1:     0.019034     0.012000     0.010688
Rotational constants in MHz :   570.628582   359.750254   320.415233

                             ****ORCA TERMINATED NORMALLY****
TOTAL RUN TIME: 0 days 21 hours 13 minutes 45 seconds 10 msec
