                         Program Version 4.1.2  - RELEASE  -
|  1> ! aug-cc-pVTZ aug-cc-pVTZ/C DLPNO-CCSD(T1) TightSCF NormalPNO UNO MiniPrint AutoAux
|  2> %pal nproc 10 end
|  3> %maxcore 20000
|  4> %mdci
|  5>      density none
|  6> end
|  7>
|  8> * xyz 0 6
|  9>  O      0.20555800      0.33402800     -0.84422700
| 10>  C      1.05126600      1.25453300     -0.65462900
| 11>  C      2.90887900      0.25113700      0.58834300
| 12>  C      2.71730900     -0.90565400     -0.09303500
| 13>  C      3.36467000     -1.15535100     -1.42474700
| 14> Fe     -1.48637500     -0.16451100     -0.01324100
| 15> Cl     -2.02405400     -2.03744900     -0.98873300
| 16>  C      1.81424100     -2.00178800      0.38120700
| 17> Cl     -2.74160100      1.56535000     -0.48449800
| 18> Cl     -1.13859000     -0.37753700      2.14768400
| 19>  H      3.62320600      0.95775600      0.16726300
| 20>  H      2.34870400     -2.96008800      0.38989700
| 21>  H      1.39418200     -1.82741700      1.37131500
| 22>  H      0.98054900     -2.12088800     -0.32541700
| 23>  H      3.98361100     -2.06026400     -1.36888900
| 24>  H      2.60892600     -1.34826800     -2.19823700
| 25>  H      4.00449700     -0.32900200     -1.74461200
| 26>  C      2.58025300      0.45881400      2.04768300
| 27>  H      3.32546600     -0.05689600      2.66742200
| 28>  H      2.62075500      1.51615000      2.32048400
| 29>  H      1.59745100      0.07476400      2.32889200
| 30>  C      0.81086600      2.27396600      0.42131500
| 31>  H      1.69210600      2.88316500      0.62488700
| 32>  H      0.01816900      2.92731800      0.02757300
| 33>  H      0.43171800      1.82355900      1.33824500
| 34>  C      1.86283000      1.68082100     -1.84755200
| 35>  H      1.23087400      2.39482300     -2.39503000
| 36>  H      2.78539200      2.19254100     -1.57101200
| 37>  H      2.06593800      0.84273900     -2.51190500
| 38> *
| 39>
| 40>
| 41>                          ****END OF INPUT****

CARTESIAN COORDINATES (ANGSTROEM)
---------------------------------
  O      0.205558    0.334028   -0.844227
  C      1.051266    1.254533   -0.654629
  C      2.908879    0.251137    0.588343
  C      2.717309   -0.905654   -0.093035
  C      3.364670   -1.155351   -1.424747
  Fe    -1.486375   -0.164511   -0.013241
  Cl    -2.024054   -2.037449   -0.988733
  C      1.814241   -2.001788    0.381207
  Cl    -2.741601    1.565350   -0.484498
  Cl    -1.138590   -0.377537    2.147684
  H      3.623206    0.957756    0.167263
  H      2.348704   -2.960088    0.389897
  H      1.394182   -1.827417    1.371315
  H      0.980549   -2.120888   -0.325417
  H      3.983611   -2.060264   -1.368889
  H      2.608926   -1.348268   -2.198237
  H      4.004497   -0.329002   -1.744612
  C      2.580253    0.458814    2.047683
  H      3.325466   -0.056896    2.667422
  H      2.620755    1.516150    2.320484
  H      1.597451    0.074764    2.328892
  C      0.810866    2.273966    0.421315
  H      1.692106    2.883165    0.624887
  H      0.018169    2.927318    0.027573
  H      0.431718    1.823559    1.338245
  C      1.862830    1.680821   -1.847552
  H      1.230874    2.394823   -2.395030
  H      2.785392    2.192541   -1.571012
  H      2.065938    0.842739   -2.511905

ORBITAL ENERGIES
----------------
                 SPIN UP ORBITALS
  NO   OCC          E(Eh)            E(eV)
   0   1.0000    -261.571293     -7117.7167
   1   1.0000    -104.791323     -2851.5169
   2   1.0000    -104.787599     -2851.4155
   3   1.0000    -104.785416     -2851.3561
   4   1.0000     -32.239059      -877.2694
   5   1.0000     -27.715459      -754.1760
   6   1.0000     -27.714453      -754.1486
   7   1.0000     -27.714249      -754.1431
   8   1.0000     -20.610772      -560.8476
   9   1.0000     -11.419361      -310.7366
  10   1.0000     -11.281268      -306.9789
  11   1.0000     -11.274930      -306.8064
  12   1.0000     -11.270219      -306.6783
  13   1.0000     -11.250603      -306.1445
  14   1.0000     -11.250451      -306.1403
  15   1.0000     -11.237868      -305.7979
  16   1.0000     -11.235298      -305.7280
  17   1.0000     -10.518036      -286.2103
  18   1.0000     -10.514278      -286.1080
  19   1.0000     -10.512045      -286.0473
  20   1.0000      -7.984877      -217.2795
  21   1.0000      -7.984103      -217.2585
  22   1.0000      -7.984063      -217.2574
  23   1.0000      -7.981140      -217.1779
  24   1.0000      -7.980379      -217.1571
  25   1.0000      -7.980325      -217.1557
  26   1.0000      -7.978846      -217.1154
  27   1.0000      -7.978174      -217.0972
  28   1.0000      -7.978114      -217.0955
  29   1.0000      -4.594055      -125.0106
  30   1.0000      -3.207165       -87.2714
  31   1.0000      -3.205539       -87.2271
  32   1.0000      -3.205348       -87.2219
  33   1.0000      -1.453894       -39.5625
  34   1.0000      -1.135366       -30.8949
  35   1.0000      -1.096867       -29.8473
  36   1.0000      -1.063872       -28.9494
  37   1.0000      -1.057939       -28.7880
  38   1.0000      -1.054671       -28.6991
  39   1.0000      -1.024691       -27.8833
  40   1.0000      -1.007025       -27.4025
  41   1.0000      -0.965631       -26.2762
  42   1.0000      -0.939322       -25.5603
  43   1.0000      -0.923083       -25.1184
  44   1.0000      -0.922944       -25.1146
  45   1.0000      -0.912638       -24.8342
  46   1.0000      -0.911879       -24.8135
  47   1.0000      -0.901549       -24.5324
  48   1.0000      -0.809467       -22.0267
  49   1.0000      -0.737366       -20.0647
  50   1.0000      -0.706199       -19.2167
  51   1.0000      -0.696423       -18.9506
  52   1.0000      -0.682929       -18.5834
  53   1.0000      -0.660900       -17.9840
  54   1.0000      -0.627116       -17.0647
  55   1.0000      -0.621302       -16.9065
  56   1.0000      -0.605704       -16.4820
  57   1.0000      -0.598215       -16.2783
  58   1.0000      -0.584531       -15.9059
  59   1.0000      -0.576556       -15.6889
  60   1.0000      -0.561157       -15.2699
  61   1.0000      -0.557215       -15.1626
  62   1.0000      -0.546260       -14.8645
  63   1.0000      -0.545679       -14.8487
  64   1.0000      -0.534873       -14.5546
  65   1.0000      -0.529243       -14.4014
  66   1.0000      -0.501101       -13.6356
  67   1.0000      -0.497789       -13.5455
  68   1.0000      -0.474552       -12.9132
  69   1.0000      -0.472597       -12.8600
  70   1.0000      -0.443700       -12.0737
  71   1.0000      -0.437976       -11.9179
  72   1.0000      -0.435953       -11.8629
  73   1.0000      -0.427532       -11.6337
  74   1.0000      -0.426286       -11.5998
  75   1.0000      -0.424935       -11.5631
  76   1.0000      -0.364536        -9.9195
  77   0.0000       0.012215         0.3324
  78   0.0000       0.022789         0.6201
  79   0.0000       0.023743         0.6461
  80   0.0000       0.030168         0.8209
  81   0.0000       0.038862         1.0575

                 SPIN DOWN ORBITALS
  NO   OCC          E(Eh)            E(eV)
   0   1.0000    -261.567718     -7117.6195
   1   1.0000    -104.789853     -2851.4769
   2   1.0000    -104.786057     -2851.3736
   3   1.0000    -104.783875     -2851.3142
   4   1.0000     -32.077042      -872.8607
   5   1.0000     -27.554955      -749.8084
   6   1.0000     -27.554898      -749.8069
   7   1.0000     -27.554757      -749.8031
   8   1.0000     -20.607039      -560.7460
   9   1.0000     -11.419269      -310.7341
  10   1.0000     -11.281216      -306.9775
  11   1.0000     -11.274820      -306.8035
  12   1.0000     -11.270206      -306.6779
  13   1.0000     -11.250610      -306.1447
  14   1.0000     -11.250455      -306.1404
  15   1.0000     -11.237865      -305.7978
  16   1.0000     -11.235318      -305.7286
  17   1.0000     -10.516464      -286.1675
  18   1.0000     -10.512631      -286.0632
  19   1.0000     -10.510407      -286.0027
  20   1.0000      -7.982372      -217.2114
  21   1.0000      -7.981674      -217.1924
  22   1.0000      -7.981631      -217.1912
  23   1.0000      -7.978531      -217.1069
  24   1.0000      -7.977824      -217.0876
  25   1.0000      -7.977737      -217.0853
  26   1.0000      -7.976388      -217.0485
  27   1.0000      -7.975535      -217.0253
  28   1.0000      -7.975448      -217.0230
  29   1.0000      -4.151898      -112.9789
  30   1.0000      -2.673495       -72.7495
  31   1.0000      -2.673446       -72.7482
  32   1.0000      -2.672945       -72.7345
  33   1.0000      -1.444640       -39.3106
  34   1.0000      -1.135002       -30.8850
  35   1.0000      -1.094293       -29.7772
  36   1.0000      -1.048365       -28.5275
  37   1.0000      -1.035909       -28.1885
  38   1.0000      -1.032282       -28.0898
  39   1.0000      -1.024106       -27.8673
  40   1.0000      -1.006391       -27.3853
  41   1.0000      -0.965557       -26.2741
  42   1.0000      -0.901767       -24.5383
  43   1.0000      -0.823336       -22.4041
  44   1.0000      -0.737451       -20.0671
  45   1.0000      -0.708561       -19.2809
  46   1.0000      -0.695453       -18.9242
  47   1.0000      -0.682280       -18.5658
  48   1.0000      -0.660816       -17.9817
  49   1.0000      -0.627086       -17.0639
  50   1.0000      -0.620815       -16.8932
  51   1.0000      -0.605338       -16.4721
  52   1.0000      -0.598078       -16.2745
  53   1.0000      -0.584214       -15.8973
  54   1.0000      -0.574969       -15.6457
  55   1.0000      -0.560759       -15.2590
  56   1.0000      -0.557038       -15.1578
  57   1.0000      -0.546034       -14.8584
  58   1.0000      -0.544238       -14.8095
  59   1.0000      -0.530739       -14.4421
  60   1.0000      -0.521186       -14.1822
  61   1.0000      -0.501581       -13.6487
  62   1.0000      -0.498721       -13.5709
  63   1.0000      -0.482266       -13.1231
  64   1.0000      -0.479343       -13.0436
  65   1.0000      -0.451673       -12.2906
  66   1.0000      -0.447945       -12.1892
  67   1.0000      -0.445223       -12.1151
  68   1.0000      -0.429327       -11.6826
  69   1.0000      -0.425837       -11.5876
  70   1.0000      -0.410823       -11.1791
  71   1.0000      -0.363659        -9.8957
  72   0.0000       0.012199         0.3319
  73   0.0000       0.022764         0.6194
  74   0.0000       0.023710         0.6452
  75   0.0000       0.030044         0.8175
  76   0.0000       0.038661         1.0520

E(0)                                       ...  -3028.455716529
E(0)                                       ...  -3028.455716529
E(CORR)(strong-pairs)                      ...     -2.869194411
E(CORR)(weak-pairs)                        ...     -0.036105211
E(CORR)(corrected)                         ...     -2.905299621
E(TOT)                                     ...  -3031.361016151
E(CCSD(T))                                 ...  -3031.479599163
FINAL SINGLE POINT ENERGY     -3031.479599162774

DIPOLE MOMENT
-------------
                                X             Y             Z
Electronic contribution:    -43.44976      -5.23772       1.15181
Nuclear contribution   :     47.06709       6.51367      -1.74080
                        -----------------------------------------
Total Dipole Moment    :      3.61733       1.27595      -0.58899
                        -----------------------------------------
Magnitude (a.u.)       :      3.88072
Magnitude (Debye)      :      9.86401

Rotational constants in cm-1:     0.019024     0.010708     0.010077
Rotational constants in MHz :   570.313036   321.031892   302.099732

                             ****ORCA TERMINATED NORMALLY****
TOTAL RUN TIME: 0 days 17 hours 25 minutes 25 seconds 223 msec
