                         Program Version 4.1.2  - RELEASE  -
|  1> ! aug-cc-pVTZ aug-cc-pVTZ/C DLPNO-CCSD(T1) TightSCF NormalPNO UNO MiniPrint AutoAux
|  2> %pal nproc 10 end
|  3> %maxcore 20000
|  4> %mdci
|  5>      density none
|  6> end
|  7>
|  8> * xyz 0 6
|  9>  O     -0.33571500     -0.10643500     -0.42696400
| 10>  C     -1.22931400     -1.07909100     -0.26308800
| 11>  C     -2.56278000     -0.39482600      0.73373100
| 12>  C     -2.93112800      0.72097800     -0.05044400
| 13>  C     -3.99979200      0.62606000     -1.08026000
| 14> Fe      1.48897000      0.17378200     -0.08446200
| 15> Cl      1.78008300      2.21729200     -0.85409400
| 16>  C     -2.17552400      1.97076400      0.03982700
| 17> Cl      2.54040500     -1.43598600     -1.15394600
| 18> Cl      1.78061200      0.06622900      2.10770400
| 19>  H     -3.29591800     -1.20251700      0.69174400
| 20>  H     -2.59371100      2.78619800     -0.55215200
| 21>  H     -1.97716900      2.28649100      1.06774100
| 22>  H     -1.17380800      1.69138300     -0.36508300
| 23>  H     -4.83171300      1.26757500     -0.75139200
| 24>  H     -3.66357100      1.03860500     -2.03953700
| 25>  H     -4.37993300     -0.38690800     -1.21826400
| 26>  C     -2.01250600     -0.12821300      2.13428000
| 27>  H     -2.67778500      0.55094700      2.67792200
| 28>  H     -1.95349300     -1.05716400      2.70310000
| 29>  H     -1.01333200      0.31157800      2.10467300
| 30>  C     -0.74127800     -2.25253400      0.59550700
| 31>  H     -1.54792300     -2.95252800      0.83105000
| 32>  H      0.01473300     -2.77534900     -0.00131600
| 33>  H     -0.25950700     -1.91384700      1.51220500
| 34>  C     -1.79436900     -1.56738000     -1.59726700
| 35>  H     -0.99698300     -2.12762800     -2.09617100
| 36>  H     -2.65493400     -2.23180200     -1.47055400
| 37>  H     -2.06097400     -0.73454200     -2.25021700
| 38> *
| 39>
| 40>
| 41>                          ****END OF INPUT****

CARTESIAN COORDINATES (ANGSTROEM)
---------------------------------
  O     -0.335715   -0.106435   -0.426964
  C     -1.229314   -1.079091   -0.263088
  C     -2.562780   -0.394826    0.733731
  C     -2.931128    0.720978   -0.050444
  C     -3.999792    0.626060   -1.080260
  Fe     1.488970    0.173782   -0.084462
  Cl     1.780083    2.217292   -0.854094
  C     -2.175524    1.970764    0.039827
  Cl     2.540405   -1.435986   -1.153946
  Cl     1.780612    0.066229    2.107704
  H     -3.295918   -1.202517    0.691744
  H     -2.593711    2.786198   -0.552152
  H     -1.977169    2.286491    1.067741
  H     -1.173808    1.691383   -0.365083
  H     -4.831713    1.267575   -0.751392
  H     -3.663571    1.038605   -2.039537
  H     -4.379933   -0.386908   -1.218264
  C     -2.012506   -0.128213    2.134280
  H     -2.677785    0.550947    2.677922
  H     -1.953493   -1.057164    2.703100
  H     -1.013332    0.311578    2.104673
  C     -0.741278   -2.252534    0.595507
  H     -1.547923   -2.952528    0.831050
  H      0.014733   -2.775349   -0.001316
  H     -0.259507   -1.913847    1.512205
  C     -1.794369   -1.567380   -1.597267
  H     -0.996983   -2.127628   -2.096171
  H     -2.654934   -2.231802   -1.470554
  H     -2.060974   -0.734542   -2.250217

ORBITAL ENERGIES
----------------
                 SPIN UP ORBITALS
  NO   OCC          E(Eh)            E(eV)
   0   1.0000    -261.543623     -7116.9638
   1   1.0000    -104.770477     -2850.9496
   2   1.0000    -104.768942     -2850.9079
   3   1.0000    -104.767713     -2850.8744
   4   1.0000     -32.211544      -876.5207
   5   1.0000     -27.687496      -753.4151
   6   1.0000     -27.687202      -753.4071
   7   1.0000     -27.686993      -753.4014
   8   1.0000     -20.545401      -559.0688
   9   1.0000     -11.383578      -309.7629
  10   1.0000     -11.364000      -309.2302
  11   1.0000     -11.299552      -307.4764
  12   1.0000     -11.287448      -307.1471
  13   1.0000     -11.272043      -306.7279
  14   1.0000     -11.252901      -306.2070
  15   1.0000     -11.248923      -306.0987
  16   1.0000     -11.239990      -305.8557
  17   1.0000     -10.497089      -285.6403
  18   1.0000     -10.495516      -285.5975
  19   1.0000     -10.494326      -285.5651
  20   1.0000      -7.963960      -216.7104
  21   1.0000      -7.963139      -216.6880
  22   1.0000      -7.963087      -216.6866
  23   1.0000      -7.962342      -216.6663
  24   1.0000      -7.961623      -216.6468
  25   1.0000      -7.961526      -216.6441
  26   1.0000      -7.961168      -216.6344
  27   1.0000      -7.960425      -216.6142
  28   1.0000      -7.960346      -216.6120
  29   1.0000      -4.566978      -124.2738
  30   1.0000      -3.179564       -86.5203
  31   1.0000      -3.179063       -86.5067
  32   1.0000      -3.178549       -86.4927
  33   1.0000      -1.382961       -37.6323
  34   1.0000      -1.194796       -32.5121
  35   1.0000      -1.083409       -29.4811
  36   1.0000      -1.046420       -28.4745
  37   1.0000      -1.041616       -28.3438
  38   1.0000      -1.036340       -28.2002
  39   1.0000      -1.034483       -28.1497
  40   1.0000      -1.015539       -27.6342
  41   1.0000      -0.972911       -26.4742
  42   1.0000      -0.931755       -25.3543
  43   1.0000      -0.909941       -24.7608
  44   1.0000      -0.896495       -24.3949
  45   1.0000      -0.896452       -24.3937
  46   1.0000      -0.887734       -24.1565
  47   1.0000      -0.887383       -24.1469
  48   1.0000      -0.793842       -21.6015
  49   1.0000      -0.769839       -20.9484
  50   1.0000      -0.707906       -19.2631
  51   1.0000      -0.695416       -18.9232
  52   1.0000      -0.672305       -18.2944
  53   1.0000      -0.655151       -17.8276
  54   1.0000      -0.650923       -17.7125
  55   1.0000      -0.633095       -17.2274
  56   1.0000      -0.604813       -16.4578
  57   1.0000      -0.601053       -16.3555
  58   1.0000      -0.591081       -16.0841
  59   1.0000      -0.583325       -15.8731
  60   1.0000      -0.573949       -15.6179
  61   1.0000      -0.563051       -15.3214
  62   1.0000      -0.557121       -15.1600
  63   1.0000      -0.537918       -14.6375
  64   1.0000      -0.536222       -14.5913
  65   1.0000      -0.518549       -14.1104
  66   1.0000      -0.504891       -13.7388
  67   1.0000      -0.467455       -12.7201
  68   1.0000      -0.458442       -12.4748
  69   1.0000      -0.443690       -12.0734
  70   1.0000      -0.426455       -11.6044
  71   1.0000      -0.421231       -11.4623
  72   1.0000      -0.417316       -11.3558
  73   1.0000      -0.409843       -11.1524
  74   1.0000      -0.407755       -11.0956
  75   1.0000      -0.407152       -11.0792
  76   1.0000      -0.403495       -10.9797
  77   0.0000       0.003095         0.0842
  78   0.0000       0.005671         0.1543
  79   0.0000       0.017925         0.4878
  80   0.0000       0.018935         0.5153
  81   0.0000       0.027975         0.7612

                 SPIN DOWN ORBITALS
  NO   OCC          E(Eh)            E(eV)
   0   1.0000    -261.540072     -7116.8672
   1   1.0000    -104.769100     -2850.9122
   2   1.0000    -104.767571     -2850.8705
   3   1.0000    -104.766285     -2850.8355
   4   1.0000     -32.049474      -872.1105
   5   1.0000     -27.527526      -749.0621
   6   1.0000     -27.527379      -749.0581
   7   1.0000     -27.526933      -749.0459
   8   1.0000     -20.539997      -558.9217
   9   1.0000     -11.383492      -309.7606
  10   1.0000     -11.363936      -309.2284
  11   1.0000     -11.299566      -307.4768
  12   1.0000     -11.287300      -307.1430
  13   1.0000     -11.272062      -306.7284
  14   1.0000     -11.252930      -306.2078
  15   1.0000     -11.248819      -306.0959
  16   1.0000     -11.239960      -305.8549
  17   1.0000     -10.495609      -285.6000
  18   1.0000     -10.494047      -285.5575
  19   1.0000     -10.492795      -285.5235
  20   1.0000      -7.961500      -216.6434
  21   1.0000      -7.960942      -216.6282
  22   1.0000      -7.960866      -216.6262
  23   1.0000      -7.960010      -216.6029
  24   1.0000      -7.959357      -216.5851
  25   1.0000      -7.959251      -216.5822
  26   1.0000      -7.958737      -216.5682
  27   1.0000      -7.958063      -216.5499
  28   1.0000      -7.957983      -216.5477
  29   1.0000      -4.124701      -112.2388
  30   1.0000      -2.646542       -72.0161
  31   1.0000      -2.646481       -72.0144
  32   1.0000      -2.645605       -71.9906
  33   1.0000      -1.369162       -37.2568
  34   1.0000      -1.193840       -32.4860
  35   1.0000      -1.080919       -29.4133
  36   1.0000      -1.045454       -28.4483
  37   1.0000      -1.027244       -27.9527
  38   1.0000      -1.016192       -27.6520
  39   1.0000      -1.014785       -27.6137
  40   1.0000      -1.014239       -27.5988
  41   1.0000      -0.972214       -26.4553
  42   1.0000      -0.931101       -25.3366
  43   1.0000      -0.801613       -21.8130
  44   1.0000      -0.775405       -21.0998
  45   1.0000      -0.708479       -19.2787
  46   1.0000      -0.694654       -18.9025
  47   1.0000      -0.672408       -18.2971
  48   1.0000      -0.657755       -17.8984
  49   1.0000      -0.649280       -17.6678
  50   1.0000      -0.632426       -17.2092
  51   1.0000      -0.604970       -16.4621
  52   1.0000      -0.600894       -16.3511
  53   1.0000      -0.589988       -16.0544
  54   1.0000      -0.583098       -15.8669
  55   1.0000      -0.573106       -15.5950
  56   1.0000      -0.562688       -15.3115
  57   1.0000      -0.557110       -15.1597
  58   1.0000      -0.537442       -14.6245
  59   1.0000      -0.535196       -14.5634
  60   1.0000      -0.513792       -13.9810
  61   1.0000      -0.498085       -13.5536
  62   1.0000      -0.465639       -12.6707
  63   1.0000      -0.461133       -12.5481
  64   1.0000      -0.451625       -12.2893
  65   1.0000      -0.431993       -11.7551
  66   1.0000      -0.429886       -11.6978
  67   1.0000      -0.427589       -11.6353
  68   1.0000      -0.426129       -11.5956
  69   1.0000      -0.406834       -11.0705
  70   1.0000      -0.394836       -10.7440
  71   1.0000      -0.393610       -10.7107
  72   0.0000       0.003115         0.0848
  73   0.0000       0.005565         0.1514
  74   0.0000       0.017922         0.4877
  75   0.0000       0.018915         0.5147
  76   0.0000       0.027982         0.7614

E(0)                                       ...  -3028.426170544
E(0)                                       ...  -3028.426170544
E(CORR)(strong-pairs)                      ...     -2.874782225
E(CORR)(weak-pairs)                        ...     -0.035428381
E(CORR)(corrected)                         ...     -2.910210606
E(TOT)                                     ...  -3031.336381150
E(CCSD(T))                                 ...  -3031.456130140
FINAL SINGLE POINT ENERGY     -3031.456130139565

DIPOLE MOMENT
-------------
                                X             Y             Z
Electronic contribution:     42.08743       6.82175      -1.07567
Nuclear contribution   :    -47.69154      -7.06133       0.98047
                        -----------------------------------------
Total Dipole Moment    :     -5.60411      -0.23959      -0.09520
                        -----------------------------------------
Magnitude (a.u.)       :      5.61004
Magnitude (Debye)      :     14.25959

Rotational constants in cm-1:     0.019777     0.010487     0.009998
Rotational constants in MHz :   592.899351   314.406081   299.734093

                             ****ORCA TERMINATED NORMALLY****
TOTAL RUN TIME: 0 days 20 hours 31 minutes 58 seconds 667 msec
