                         Program Version 4.1.2  - RELEASE  -
|  1> ! aug-cc-pVTZ aug-cc-pVTZ/C DLPNO-CCSD(T1) TightSCF NormalPNO UNO MiniPrint AutoAux
|  2> %pal nproc 10 end
|  3> %maxcore 20000
|  4> %mdci
|  5>      density none
|  6> end
|  7>
|  8> * xyz 0 6
|  9>  O      0.19643900      0.35403400     -0.86525400
| 10>  C      1.02206000      1.28557100     -0.67161200
| 11>  C      2.97013500      0.20517200      0.56945400
| 12>  C      2.69187200     -0.92320900     -0.12265900
| 13>  C      3.26741500     -1.17416400     -1.48804000
| 14> Fe     -1.48515400     -0.16369200     -0.00278800
| 15> Cl     -2.03873700     -2.02533500     -0.98606300
| 16>  C      1.78236100     -2.00439800      0.37764400
| 17> Cl     -2.74174300      1.57233500     -0.44489800
| 18> Cl     -1.10453400     -0.38442600      2.15023200
| 19>  H      3.68399300      0.89678100      0.12260500
| 20>  H      2.31697300     -2.96270700      0.40941300
| 21>  H      1.36844200     -1.80761400      1.36609100
| 22>  H      0.94640400     -2.14302600     -0.32156300
| 23>  H      3.84507900     -2.10759100     -1.48148400
| 24>  H      2.46891200     -1.31294900     -2.22952000
| 25>  H      3.93038200     -0.37076100     -1.82004200
| 26>  C      2.68349800      0.43019500      2.03320700
| 27>  H      3.45272100     -0.06506700      2.64074200
| 28>  H      2.71693200      1.49235400      2.29009100
| 29>  H      1.71419100      0.03701500      2.34793700
| 30>  C      0.81159900      2.25985700      0.44793200
| 31>  H      1.69628300      2.86670500      0.64288200
| 32>  H      0.00055900      2.92259800      0.11062200
| 33>  H      0.46957300      1.76980200      1.35928600
| 34>  C      1.84424500      1.72939200     -1.84747000
| 35>  H      1.22864600      2.47112400     -2.37716100
| 36>  H      2.77352700      2.21690600     -1.55070900
| 37>  H      2.03598100      0.90590900     -2.53302100
| 38> *
| 39>
| 40>
| 41>                          ****END OF INPUT****

CARTESIAN COORDINATES (ANGSTROEM)
---------------------------------
  O      0.196439    0.354034   -0.865254
  C      1.022060    1.285571   -0.671612
  C      2.970135    0.205172    0.569454
  C      2.691872   -0.923209   -0.122659
  C      3.267415   -1.174164   -1.488040
  Fe    -1.485154   -0.163692   -0.002788
  Cl    -2.038737   -2.025335   -0.986063
  C      1.782361   -2.004398    0.377644
  Cl    -2.741743    1.572335   -0.444898
  Cl    -1.104534   -0.384426    2.150232
  H      3.683993    0.896781    0.122605
  H      2.316973   -2.962707    0.409413
  H      1.368442   -1.807614    1.366091
  H      0.946404   -2.143026   -0.321563
  H      3.845079   -2.107591   -1.481484
  H      2.468912   -1.312949   -2.229520
  H      3.930382   -0.370761   -1.820042
  C      2.683498    0.430195    2.033207
  H      3.452721   -0.065067    2.640742
  H      2.716932    1.492354    2.290091
  H      1.714191    0.037015    2.347937
  C      0.811599    2.259857    0.447932
  H      1.696283    2.866705    0.642882
  H      0.000559    2.922598    0.110622
  H      0.469573    1.769802    1.359286
  C      1.844245    1.729392   -1.847470
  H      1.228646    2.471124   -2.377161
  H      2.773527    2.216906   -1.550709
  H      2.035981    0.905909   -2.533021

ORBITAL ENERGIES
----------------
                 SPIN UP ORBITALS
  NO   OCC          E(Eh)            E(eV)
   0   1.0000    -261.573655     -7117.7810
   1   1.0000    -104.792815     -2851.5575
   2   1.0000    -104.789246     -2851.4603
   3   1.0000    -104.787102     -2851.4020
   4   1.0000     -32.241394      -877.3329
   5   1.0000     -27.717836      -754.2406
   6   1.0000     -27.716762      -754.2114
   7   1.0000     -27.716557      -754.2059
   8   1.0000     -20.616141      -560.9937
   9   1.0000     -11.420826      -310.7765
  10   1.0000     -11.276492      -306.8489
  11   1.0000     -11.273734      -306.7739
  12   1.0000     -11.271436      -306.7114
  13   1.0000     -11.247066      -306.0482
  14   1.0000     -11.246771      -306.0402
  15   1.0000     -11.236984      -305.7739
  16   1.0000     -11.232133      -305.6419
  17   1.0000     -10.519530      -286.2510
  18   1.0000     -10.515930      -286.1530
  19   1.0000     -10.513737      -286.0933
  20   1.0000      -7.986366      -217.3201
  21   1.0000      -7.985603      -217.2993
  22   1.0000      -7.985558      -217.2981
  23   1.0000      -7.982799      -217.2230
  24   1.0000      -7.982030      -217.2021
  25   1.0000      -7.981976      -217.2006
  26   1.0000      -7.980532      -217.1613
  27   1.0000      -7.979868      -217.1432
  28   1.0000      -7.979813      -217.1417
  29   1.0000      -4.596322      -125.0723
  30   1.0000      -3.209452       -87.3336
  31   1.0000      -3.207766       -87.2878
  32   1.0000      -3.207585       -87.2828
  33   1.0000      -1.459476       -39.7143
  34   1.0000      -1.130576       -30.7645
  35   1.0000      -1.098966       -29.9044
  36   1.0000      -1.065611       -28.9967
  37   1.0000      -1.059712       -28.8362
  38   1.0000      -1.056546       -28.7501
  39   1.0000      -1.023035       -27.8382
  40   1.0000      -1.008514       -27.4430
  41   1.0000      -0.961761       -26.1709
  42   1.0000      -0.941203       -25.6114
  43   1.0000      -0.925288       -25.1784
  44   1.0000      -0.925152       -25.1747
  45   1.0000      -0.914661       -24.8892
  46   1.0000      -0.913952       -24.8699
  47   1.0000      -0.898689       -24.4546
  48   1.0000      -0.811994       -22.0955
  49   1.0000      -0.733240       -19.9525
  50   1.0000      -0.709575       -19.3085
  51   1.0000      -0.699626       -19.0378
  52   1.0000      -0.683571       -18.6009
  53   1.0000      -0.657847       -17.9009
  54   1.0000      -0.623908       -16.9774
  55   1.0000      -0.621133       -16.9019
  56   1.0000      -0.605345       -16.4723
  57   1.0000      -0.599113       -16.3027
  58   1.0000      -0.585361       -15.9285
  59   1.0000      -0.577617       -15.7178
  60   1.0000      -0.560958       -15.2644
  61   1.0000      -0.554105       -15.0780
  62   1.0000      -0.546244       -14.8640
  63   1.0000      -0.543147       -14.7798
  64   1.0000      -0.536044       -14.5865
  65   1.0000      -0.527527       -14.3547
  66   1.0000      -0.501809       -13.6549
  67   1.0000      -0.495874       -13.4934
  68   1.0000      -0.475922       -12.9505
  69   1.0000      -0.474661       -12.9162
  70   1.0000      -0.445425       -12.1206
  71   1.0000      -0.439432       -11.9575
  72   1.0000      -0.437491       -11.9047
  73   1.0000      -0.428981       -11.6732
  74   1.0000      -0.427886       -11.6434
  75   1.0000      -0.426526       -11.6064
  76   1.0000      -0.361917        -9.8483
  77   0.0000       0.012444         0.3386
  78   0.0000       0.023252         0.6327
  79   0.0000       0.023993         0.6529
  80   0.0000       0.030441         0.8283
  81   0.0000       0.039102         1.0640

                 SPIN DOWN ORBITALS
  NO   OCC          E(Eh)            E(eV)
   0   1.0000    -261.570076     -7117.6836
   1   1.0000    -104.791337     -2851.5172
   2   1.0000    -104.787695     -2851.4182
   3   1.0000    -104.785548     -2851.3597
   4   1.0000     -32.079389      -872.9246
   5   1.0000     -27.557305      -749.8724
   6   1.0000     -27.557238      -749.8706
   7   1.0000     -27.557118      -749.8673
   8   1.0000     -20.612525      -560.8953
   9   1.0000     -11.420744      -310.7742
  10   1.0000     -11.276382      -306.8460
  11   1.0000     -11.273727      -306.7737
  12   1.0000     -11.271425      -306.7111
  13   1.0000     -11.247040      -306.0475
  14   1.0000     -11.246773      -306.0402
  15   1.0000     -11.236984      -305.7739
  16   1.0000     -11.232147      -305.6423
  17   1.0000     -10.517951      -286.2080
  18   1.0000     -10.514275      -286.1080
  19   1.0000     -10.512086      -286.0484
  20   1.0000      -7.983865      -217.2520
  21   1.0000      -7.983146      -217.2325
  22   1.0000      -7.983107      -217.2314
  23   1.0000      -7.980167      -217.1514
  24   1.0000      -7.979465      -217.1323
  25   1.0000      -7.979377      -217.1299
  26   1.0000      -7.978072      -217.0944
  27   1.0000      -7.977197      -217.0706
  28   1.0000      -7.977112      -217.0683
  29   1.0000      -4.154203      -113.0416
  30   1.0000      -2.675773       -72.8115
  31   1.0000      -2.675739       -72.8106
  32   1.0000      -2.675259       -72.7975
  33   1.0000      -1.450572       -39.4721
  34   1.0000      -1.130250       -30.7557
  35   1.0000      -1.096510       -29.8376
  36   1.0000      -1.050018       -28.5724
  37   1.0000      -1.037493       -28.2316
  38   1.0000      -1.033974       -28.1359
  39   1.0000      -1.022380       -27.8204
  40   1.0000      -1.007960       -27.4280
  41   1.0000      -0.961680       -26.1686
  42   1.0000      -0.898847       -24.4589
  43   1.0000      -0.825432       -22.4611
  44   1.0000      -0.733316       -19.9546
  45   1.0000      -0.711724       -19.3670
  46   1.0000      -0.698723       -19.0132
  47   1.0000      -0.682934       -18.5836
  48   1.0000      -0.657776       -17.8990
  49   1.0000      -0.623879       -16.9766
  50   1.0000      -0.620605       -16.8875
  51   1.0000      -0.605052       -16.4643
  52   1.0000      -0.598988       -16.2993
  53   1.0000      -0.585048       -15.9200
  54   1.0000      -0.576095       -15.6764
  55   1.0000      -0.560346       -15.2478
  56   1.0000      -0.553890       -15.0721
  57   1.0000      -0.544888       -14.8272
  58   1.0000      -0.542957       -14.7746
  59   1.0000      -0.528679       -14.3861
  60   1.0000      -0.522769       -14.2253
  61   1.0000      -0.503452       -13.6996
  62   1.0000      -0.495890       -13.4939
  63   1.0000      -0.483968       -13.1694
  64   1.0000      -0.481139       -13.0924
  65   1.0000      -0.453053       -12.3282
  66   1.0000      -0.449527       -12.2322
  67   1.0000      -0.446695       -12.1552
  68   1.0000      -0.430567       -11.7163
  69   1.0000      -0.427625       -11.6363
  70   1.0000      -0.412225       -11.2172
  71   1.0000      -0.361231        -9.8296
  72   0.0000       0.012427         0.3382
  73   0.0000       0.023228         0.6321
  74   0.0000       0.023957         0.6519
  75   0.0000       0.030348         0.8258
  76   0.0000       0.038967         1.0603

E(0)                                       ...  -3028.461067426
E(0)                                       ...  -3028.461067426
E(CORR)(strong-pairs)                      ...     -2.868197869
E(CORR)(weak-pairs)                        ...     -0.035807903
E(CORR)(corrected)                         ...     -2.904005772
E(TOT)                                     ...  -3031.365073198
E(CCSD(T))                                 ...  -3031.483334084
FINAL SINGLE POINT ENERGY     -3031.483334084468

DIPOLE MOMENT
-------------
                                X             Y             Z
Electronic contribution:    -43.51902      -5.03380       1.36293
Nuclear contribution   :     46.97529       6.39728      -1.98086
                        -----------------------------------------
Total Dipole Moment    :      3.45627       1.36348      -0.61793
                        -----------------------------------------
Magnitude (a.u.)       :      3.76652
Magnitude (Debye)      :      9.57374

Rotational constants in cm-1:     0.018934     0.010715     0.010080
Rotational constants in MHz :   567.613111   321.237813   302.199265

                             ****ORCA TERMINATED NORMALLY****
TOTAL RUN TIME: 0 days 17 hours 1 minutes 1 seconds 57 msec
