                         Program Version 4.1.2  - RELEASE  -
|  1> ! aug-cc-pVTZ aug-cc-pVTZ/C DLPNO-CCSD(T1) TightSCF NormalPNO UNO MiniPrint AutoAux
|  2> %pal nproc 10 end
|  3> %maxcore 20000
|  4> %mdci
|  5>      density none
|  6> end
|  7>
|  8> * xyz 0 6
|  9>  O     -0.31749300     -0.29882400     -0.63502200
| 10>  C     -1.39506500     -1.18432700     -0.46244900
| 11>  C     -2.76421700     -0.15497800     -0.10417100
| 12>  C     -2.07278200      1.13346000     -0.23812500
| 13>  C     -1.95777200      1.80025700     -1.54786400
| 14> Fe      1.37324900      0.03331800      0.02206100
| 15> Cl      1.71231800      2.09307800     -0.76411200
| 16>  C     -1.57552900      1.85695700      0.94466600
| 17> Cl      2.74106700     -1.53587500     -0.67345400
| 18> Cl      1.20532600      0.08383400      2.25064100
| 19>  H     -3.45183800     -0.29699700     -0.94145700
| 20>  H     -2.45900000      2.29579300      1.43889800
| 21>  H     -1.11373100      1.18363900      1.67381400
| 22>  H     -0.87457400      2.65068600      0.68292100
| 23>  H     -2.57284500      2.71443400     -1.50281000
| 24>  H     -0.92067200      2.12780800     -1.69605000
| 25>  H     -2.29534400      1.18190500     -2.37948200
| 26>  C     -3.45507200     -0.43718200      1.22496800
| 27>  H     -4.27472800      0.27048600      1.39610000
| 28>  H     -3.88670000     -1.44114800      1.21102900
| 29>  H     -2.77244400     -0.37954300      2.07534100
| 30>  C     -1.14955600     -2.16477300      0.67005400
| 31>  H     -1.98830400     -2.85295800      0.80875700
| 32>  H     -0.26405200     -2.75307600      0.39961700
| 33>  H     -0.92649900     -1.65772000      1.61010800
| 34>  C     -1.68702200     -1.88650900     -1.78021000
| 35>  H     -0.80976300     -2.48577100     -2.04792300
| 36>  H     -2.55810000     -2.54594000     -1.70274600
| 37>  H     -1.85193600     -1.16233500     -2.58301500
| 38> *
| 39>
| 40>
| 41>                          ****END OF INPUT****

CARTESIAN COORDINATES (ANGSTROEM)
---------------------------------
  O     -0.317493   -0.298824   -0.635022
  C     -1.395065   -1.184327   -0.462449
  C     -2.764217   -0.154978   -0.104171
  C     -2.072782    1.133460   -0.238125
  C     -1.957772    1.800257   -1.547864
  Fe     1.373249    0.033318    0.022061
  Cl     1.712318    2.093078   -0.764112
  C     -1.575529    1.856957    0.944666
  Cl     2.741067   -1.535875   -0.673454
  Cl     1.205326    0.083834    2.250641
  H     -3.451838   -0.296997   -0.941457
  H     -2.459000    2.295793    1.438898
  H     -1.113731    1.183639    1.673814
  H     -0.874574    2.650686    0.682921
  H     -2.572845    2.714434   -1.502810
  H     -0.920672    2.127808   -1.696050
  H     -2.295344    1.181905   -2.379482
  C     -3.455072   -0.437182    1.224968
  H     -4.274728    0.270486    1.396100
  H     -3.886700   -1.441148    1.211029
  H     -2.772444   -0.379543    2.075341
  C     -1.149556   -2.164773    0.670054
  H     -1.988304   -2.852958    0.808757
  H     -0.264052   -2.753076    0.399617
  H     -0.926499   -1.657720    1.610108
  C     -1.687022   -1.886509   -1.780210
  H     -0.809763   -2.485771   -2.047923
  H     -2.558100   -2.545940   -1.702746
  H     -1.851936   -1.162335   -2.583015

ORBITAL ENERGIES
----------------
                 SPIN UP ORBITALS
  NO   OCC          E(Eh)            E(eV)
   0   1.0000    -261.544111     -7116.9771
   1   1.0000    -104.773620     -2851.0351
   2   1.0000    -104.773392     -2851.0289
   3   1.0000    -104.768474     -2850.8951
   4   1.0000     -32.211969      -876.5322
   5   1.0000     -27.687917      -753.4265
   6   1.0000     -27.687725      -753.4213
   7   1.0000     -27.687390      -753.4122
   8   1.0000     -20.540800      -558.9436
   9   1.0000     -11.408312      -310.4359
  10   1.0000     -11.348687      -308.8135
  11   1.0000     -11.292604      -307.2874
  12   1.0000     -11.284741      -307.0734
  13   1.0000     -11.279793      -306.9388
  14   1.0000     -11.264970      -306.5354
  15   1.0000     -11.240388      -305.8665
  16   1.0000     -11.234506      -305.7065
  17   1.0000     -10.500118      -285.7227
  18   1.0000     -10.499995      -285.7194
  19   1.0000     -10.495016      -285.5839
  20   1.0000      -7.966969      -216.7922
  21   1.0000      -7.966895      -216.7902
  22   1.0000      -7.966185      -216.7709
  23   1.0000      -7.966089      -216.7683
  24   1.0000      -7.966004      -216.7660
  25   1.0000      -7.965973      -216.7651
  26   1.0000      -7.961807      -216.6518
  27   1.0000      -7.961142      -216.6337
  28   1.0000      -7.961048      -216.6311
  29   1.0000      -4.567472      -124.2872
  30   1.0000      -3.179972       -86.5314
  31   1.0000      -3.179660       -86.5229
  32   1.0000      -3.179165       -86.5095
  33   1.0000      -1.355797       -36.8931
  34   1.0000      -1.187674       -32.3183
  35   1.0000      -1.089463       -29.6458
  36   1.0000      -1.044166       -28.4132
  37   1.0000      -1.040102       -28.3026
  38   1.0000      -1.038940       -28.2710
  39   1.0000      -1.035588       -28.1798
  40   1.0000      -1.018590       -27.7173
  41   1.0000      -0.967626       -26.3304
  42   1.0000      -0.934218       -25.4214
  43   1.0000      -0.905041       -24.6274
  44   1.0000      -0.897128       -24.4121
  45   1.0000      -0.897003       -24.4087
  46   1.0000      -0.889360       -24.2007
  47   1.0000      -0.888789       -24.1852
  48   1.0000      -0.794858       -21.6292
  49   1.0000      -0.761259       -20.7149
  50   1.0000      -0.705385       -19.1945
  51   1.0000      -0.690380       -18.7862
  52   1.0000      -0.675102       -18.3705
  53   1.0000      -0.638323       -17.3697
  54   1.0000      -0.632916       -17.2225
  55   1.0000      -0.628816       -17.1109
  56   1.0000      -0.602105       -16.3841
  57   1.0000      -0.600989       -16.3537
  58   1.0000      -0.595804       -16.2126
  59   1.0000      -0.582509       -15.8509
  60   1.0000      -0.578781       -15.7494
  61   1.0000      -0.557544       -15.1715
  62   1.0000      -0.552125       -15.0241
  63   1.0000      -0.539960       -14.6931
  64   1.0000      -0.529429       -14.4065
  65   1.0000      -0.524695       -14.2777
  66   1.0000      -0.503974       -13.7138
  67   1.0000      -0.470342       -12.7986
  68   1.0000      -0.461439       -12.5564
  69   1.0000      -0.446358       -12.1460
  70   1.0000      -0.428116       -11.6496
  71   1.0000      -0.424851       -11.5608
  72   1.0000      -0.420120       -11.4320
  73   1.0000      -0.413683       -11.2569
  74   1.0000      -0.411871       -11.2076
  75   1.0000      -0.409229       -11.1357
  76   1.0000      -0.408724       -11.1220
  77   0.0000       0.005252         0.1429
  78   0.0000       0.014954         0.4069
  79   0.0000       0.020718         0.5638
  80   0.0000       0.021330         0.5804
  81   0.0000       0.030255         0.8233

                 SPIN DOWN ORBITALS
  NO   OCC          E(Eh)            E(eV)
   0   1.0000    -261.540572     -7116.8808
   1   1.0000    -104.772364     -2851.0010
   2   1.0000    -104.772080     -2850.9933
   3   1.0000    -104.767046     -2850.8563
   4   1.0000     -32.049934      -872.1230
   5   1.0000     -27.528097      -749.0776
   6   1.0000     -27.527861      -749.0712
   7   1.0000     -27.527265      -749.0550
   8   1.0000     -20.534429      -558.7702
   9   1.0000     -11.408331      -310.4365
  10   1.0000     -11.348476      -308.8077
  11   1.0000     -11.292436      -307.2828
  12   1.0000     -11.284725      -307.0730
  13   1.0000     -11.279813      -306.9393
  14   1.0000     -11.264980      -306.5357
  15   1.0000     -11.240303      -305.8642
  16   1.0000     -11.234475      -305.7056
  17   1.0000     -10.498765      -285.6859
  18   1.0000     -10.498579      -285.6809
  19   1.0000     -10.493489      -285.5423
  20   1.0000      -7.964690      -216.7302
  21   1.0000      -7.964421      -216.7229
  22   1.0000      -7.964194      -216.7167
  23   1.0000      -7.964097      -216.7141
  24   1.0000      -7.963994      -216.7113
  25   1.0000      -7.963920      -216.7093
  26   1.0000      -7.959486      -216.5886
  27   1.0000      -7.958708      -216.5674
  28   1.0000      -7.958640      -216.5656
  29   1.0000      -4.125303      -112.2552
  30   1.0000      -2.647226       -72.0347
  31   1.0000      -2.647093       -72.0311
  32   1.0000      -2.646377       -72.0116
  33   1.0000      -1.339031       -36.4369
  34   1.0000      -1.186368       -32.2827
  35   1.0000      -1.086852       -29.5748
  36   1.0000      -1.037987       -28.2451
  37   1.0000      -1.030569       -28.0432
  38   1.0000      -1.021676       -27.8012
  39   1.0000      -1.017235       -27.6804
  40   1.0000      -1.015108       -27.6225
  41   1.0000      -0.966881       -26.3102
  42   1.0000      -0.932125       -25.3644
  43   1.0000      -0.799108       -21.7448
  44   1.0000      -0.767729       -20.8910
  45   1.0000      -0.705730       -19.2039
  46   1.0000      -0.689791       -18.7702
  47   1.0000      -0.676065       -18.3967
  48   1.0000      -0.640877       -17.4391
  49   1.0000      -0.632819       -17.2199
  50   1.0000      -0.626726       -17.0541
  51   1.0000      -0.602277       -16.3888
  52   1.0000      -0.600083       -16.3291
  53   1.0000      -0.595415       -16.2021
  54   1.0000      -0.581834       -15.8325
  55   1.0000      -0.577633       -15.7182
  56   1.0000      -0.557378       -15.1670
  57   1.0000      -0.550280       -14.9739
  58   1.0000      -0.539406       -14.6780
  59   1.0000      -0.527501       -14.3540
  60   1.0000      -0.518708       -14.1148
  61   1.0000      -0.498881       -13.5752
  62   1.0000      -0.468405       -12.7459
  63   1.0000      -0.462986       -12.5985
  64   1.0000      -0.454369       -12.3640
  65   1.0000      -0.435127       -11.8404
  66   1.0000      -0.434231       -11.8160
  67   1.0000      -0.430134       -11.7045
  68   1.0000      -0.428491       -11.6598
  69   1.0000      -0.409428       -11.1411
  70   1.0000      -0.398443       -10.8422
  71   1.0000      -0.397588       -10.8189
  72   0.0000       0.005225         0.1422
  73   0.0000       0.014628         0.3980
  74   0.0000       0.020691         0.5630
  75   0.0000       0.021277         0.5790
  76   0.0000       0.030288         0.8242

E(0)                                       ...  -3028.430345265
E(0)                                       ...  -3028.430345265
E(CORR)(strong-pairs)                      ...     -2.868603382
E(CORR)(weak-pairs)                        ...     -0.035808460
E(CORR)(corrected)                         ...     -2.904411841
E(TOT)                                     ...  -3031.334757107
E(CCSD(T))                                 ...  -3031.452395249
FINAL SINGLE POINT ENERGY     -3031.452395249378

DIPOLE MOMENT
-------------
                                X             Y             Z
Electronic contribution:     39.73977       4.59114       2.28593
Nuclear contribution   :    -44.68395      -4.04686      -2.71190
                        -----------------------------------------
Total Dipole Moment    :     -4.94417       0.54428      -0.42597
                        -----------------------------------------
Magnitude (a.u.)       :      4.99225
Magnitude (Debye)      :     12.68929

Rotational constants in cm-1:     0.019014     0.011897     0.010774
Rotational constants in MHz :   570.032404   356.667504   322.983679

                             ****ORCA TERMINATED NORMALLY****
TOTAL RUN TIME: 0 days 20 hours 46 minutes 53 seconds 656 msec
