                         Program Version 4.1.2  - RELEASE  -
|  1> ! aug-cc-pVTZ aug-cc-pVTZ/C DLPNO-CCSD(T1) TightSCF NormalPNO UNO MiniPrint AutoAux
|  2> %pal nproc 10 end
|  3> %maxcore 20000
|  4> %mdci
|  5>      density none
|  6> end
|  7>
|  8> * xyz 0 6
|  9>  O     -0.36427900     -0.10642000     -0.50282500
| 10>  C     -1.30435100     -1.07422300     -0.43428600
| 11>  C     -2.99106200     -0.04064900     -0.13979000
| 12>  C     -2.13955200      1.07806600     -0.24219600
| 13>  C     -1.94078900      1.76848800     -1.54569700
| 14> Fe      1.41771000      0.04806500      0.04771200
| 15> Cl      1.95126400      2.01884100     -0.79616400
| 16>  C     -1.59816600      1.76559200      0.96242400
| 17> Cl      2.43883600     -1.72494500     -0.76612500
| 18> Cl      1.38872300      0.06546700      2.26406700
| 19>  H     -3.54575900     -0.27234400     -1.04710600
| 20>  H     -2.39481800      2.43082900      1.33146900
| 21>  H     -1.34514100      1.07776200      1.77006000
| 22>  H     -0.72293600      2.37094800      0.72153200
| 23>  H     -2.58925000      2.65889200     -1.52604000
| 24>  H     -0.90827500      2.10571500     -1.66273400
| 25>  H     -2.24271900      1.15706100     -2.39783300
| 26>  C     -3.70430200     -0.41399400      1.13954300
| 27>  H     -4.59000600      0.21945500      1.27681200
| 28>  H     -4.05110300     -1.45060000      1.10070100
| 29>  H     -3.07751700     -0.30221000      2.02662400
| 30>  C     -1.19541100     -1.99426800      0.75344100
| 31>  H     -2.03780100     -2.68510900      0.82650400
| 32>  H     -0.27938100     -2.58176900      0.59729900
| 33>  H     -1.06572400     -1.44528200      1.68695600
| 34>  C     -1.55696900     -1.75512700     -1.75782100
| 35>  H     -0.64062200     -2.31210500     -1.99657600
| 36>  H     -2.39758400     -2.45251000     -1.71105000
| 37>  H     -1.71395400     -1.02953100     -2.55846800
| 38> *
| 39>
| 40>
| 41>                          ****END OF INPUT****

CARTESIAN COORDINATES (ANGSTROEM)
---------------------------------
  O     -0.364279   -0.106420   -0.502825
  C     -1.304351   -1.074223   -0.434286
  C     -2.991062   -0.040649   -0.139790
  C     -2.139552    1.078066   -0.242196
  C     -1.940789    1.768488   -1.545697
  Fe     1.417710    0.048065    0.047712
  Cl     1.951264    2.018841   -0.796164
  C     -1.598166    1.765592    0.962424
  Cl     2.438836   -1.724945   -0.766125
  Cl     1.388723    0.065467    2.264067
  H     -3.545759   -0.272344   -1.047106
  H     -2.394818    2.430829    1.331469
  H     -1.345141    1.077762    1.770060
  H     -0.722936    2.370948    0.721532
  H     -2.589250    2.658892   -1.526040
  H     -0.908275    2.105715   -1.662734
  H     -2.242719    1.157061   -2.397833
  C     -3.704302   -0.413994    1.139543
  H     -4.590006    0.219455    1.276812
  H     -4.051103   -1.450600    1.100701
  H     -3.077517   -0.302210    2.026624
  C     -1.195411   -1.994268    0.753441
  H     -2.037801   -2.685109    0.826504
  H     -0.279381   -2.581769    0.597299
  H     -1.065724   -1.445282    1.686956
  C     -1.556969   -1.755127   -1.757821
  H     -0.640622   -2.312105   -1.996576
  H     -2.397584   -2.452510   -1.711050
  H     -1.713954   -1.029531   -2.558468

ORBITAL ENERGIES
----------------
                 SPIN UP ORBITALS
  NO   OCC          E(Eh)            E(eV)
   0   1.0000    -261.552436     -7117.2036
   1   1.0000    -104.777603     -2851.1435
   2   1.0000    -104.776973     -2851.1264
   3   1.0000    -104.776514     -2851.1139
   4   1.0000     -32.220324      -876.7596
   5   1.0000     -27.696282      -753.6542
   6   1.0000     -27.695999      -753.6464
   7   1.0000     -27.695771      -753.6402
   8   1.0000     -20.556261      -559.3643
   9   1.0000     -11.387686      -309.8747
  10   1.0000     -11.370528      -309.4078
  11   1.0000     -11.275725      -306.8281
  12   1.0000     -11.268659      -306.6358
  13   1.0000     -11.265466      -306.5489
  14   1.0000     -11.260145      -306.4041
  15   1.0000     -11.254809      -306.2589
  16   1.0000     -11.250827      -306.1506
  17   1.0000     -10.504109      -285.8313
  18   1.0000     -10.503561      -285.8164
  19   1.0000     -10.503053      -285.8026
  20   1.0000      -7.970919      -216.8997
  21   1.0000      -7.970450      -216.8870
  22   1.0000      -7.970206      -216.8803
  23   1.0000      -7.970120      -216.8780
  24   1.0000      -7.969877      -216.8714
  25   1.0000      -7.969614      -216.8642
  26   1.0000      -7.969560      -216.8628
  27   1.0000      -7.969156      -216.8518
  28   1.0000      -7.969075      -216.8496
  29   1.0000      -4.575772      -124.5131
  30   1.0000      -3.188445       -86.7620
  31   1.0000      -3.187841       -86.7456
  32   1.0000      -3.187270       -86.7300
  33   1.0000      -1.395088       -37.9623
  34   1.0000      -1.170545       -31.8522
  35   1.0000      -1.087423       -29.5903
  36   1.0000      -1.049535       -28.5593
  37   1.0000      -1.043753       -28.4020
  38   1.0000      -1.042789       -28.3757
  39   1.0000      -1.039771       -28.2936
  40   1.0000      -1.001974       -27.2651
  41   1.0000      -0.983732       -26.7687
  42   1.0000      -0.932030       -25.3618
  43   1.0000      -0.914184       -24.8762
  44   1.0000      -0.905418       -24.6377
  45   1.0000      -0.905310       -24.6347
  46   1.0000      -0.896658       -24.3993
  47   1.0000      -0.896064       -24.3831
  48   1.0000      -0.785821       -21.3833
  49   1.0000      -0.762135       -20.7387
  50   1.0000      -0.695798       -18.9336
  51   1.0000      -0.693855       -18.8807
  52   1.0000      -0.675754       -18.3882
  53   1.0000      -0.653551       -17.7840
  54   1.0000      -0.642044       -17.4709
  55   1.0000      -0.623646       -16.9703
  56   1.0000      -0.599971       -16.3260
  57   1.0000      -0.591813       -16.1040
  58   1.0000      -0.587982       -15.9998
  59   1.0000      -0.584097       -15.8941
  60   1.0000      -0.572870       -15.5886
  61   1.0000      -0.565138       -15.3782
  62   1.0000      -0.555015       -15.1027
  63   1.0000      -0.548149       -14.9159
  64   1.0000      -0.538897       -14.6641
  65   1.0000      -0.530976       -14.4486
  66   1.0000      -0.510463       -13.8904
  67   1.0000      -0.481646       -13.1063
  68   1.0000      -0.464842       -12.6490
  69   1.0000      -0.453116       -12.3299
  70   1.0000      -0.432625       -11.7723
  71   1.0000      -0.427559       -11.6345
  72   1.0000      -0.424793       -11.5592
  73   1.0000      -0.418370       -11.3844
  74   1.0000      -0.415852       -11.3159
  75   1.0000      -0.415093       -11.2953
  76   1.0000      -0.380027       -10.3411
  77   0.0000       0.009506         0.2587
  78   0.0000       0.020316         0.5528
  79   0.0000       0.022453         0.6110
  80   0.0000       0.030460         0.8289
  81   0.0000       0.037907         1.0315

                 SPIN DOWN ORBITALS
  NO   OCC          E(Eh)            E(eV)
   0   1.0000    -261.548887     -7117.1071
   1   1.0000    -104.776255     -2851.1069
   2   1.0000    -104.775585     -2851.0886
   3   1.0000    -104.775084     -2851.0750
   4   1.0000     -32.058320      -872.3512
   5   1.0000     -27.536350      -749.3022
   6   1.0000     -27.536211      -749.2984
   7   1.0000     -27.535789      -749.2869
   8   1.0000     -20.550900      -559.2184
   9   1.0000     -11.387702      -309.8751
  10   1.0000     -11.370553      -309.4085
  11   1.0000     -11.275278      -306.8159
  12   1.0000     -11.268641      -306.6353
  13   1.0000     -11.265479      -306.5493
  14   1.0000     -11.260190      -306.4054
  15   1.0000     -11.254721      -306.2565
  16   1.0000     -11.250787      -306.1495
  17   1.0000     -10.502666      -285.7921
  18   1.0000     -10.502070      -285.7758
  19   1.0000     -10.501523      -285.7610
  20   1.0000      -7.968637      -216.8376
  21   1.0000      -7.967974      -216.8196
  22   1.0000      -7.967956      -216.8191
  23   1.0000      -7.967884      -216.8172
  24   1.0000      -7.967470      -216.8059
  25   1.0000      -7.967402      -216.8040
  26   1.0000      -7.967327      -216.8020
  27   1.0000      -7.966774      -216.7870
  28   1.0000      -7.966701      -216.7849
  29   1.0000      -4.133607      -112.4812
  30   1.0000      -2.655390       -72.2568
  31   1.0000      -2.655280       -72.2539
  32   1.0000      -2.654749       -72.2394
  33   1.0000      -1.381364       -37.5888
  34   1.0000      -1.169207       -31.8157
  35   1.0000      -1.084700       -29.5162
  36   1.0000      -1.038929       -28.2707
  37   1.0000      -1.034949       -28.1624
  38   1.0000      -1.023621       -27.8542
  39   1.0000      -1.022694       -27.8289
  40   1.0000      -1.001577       -27.2543
  41   1.0000      -0.983244       -26.7554
  42   1.0000      -0.927605       -25.2414
  43   1.0000      -0.796858       -21.6836
  44   1.0000      -0.763474       -20.7752
  45   1.0000      -0.695374       -18.9221
  46   1.0000      -0.694116       -18.8879
  47   1.0000      -0.677367       -18.4321
  48   1.0000      -0.653441       -17.7810
  49   1.0000      -0.641307       -17.4508
  50   1.0000      -0.623726       -16.9724
  51   1.0000      -0.598962       -16.2986
  52   1.0000      -0.591636       -16.0992
  53   1.0000      -0.587819       -15.9954
  54   1.0000      -0.583617       -15.8810
  55   1.0000      -0.572694       -15.5838
  56   1.0000      -0.565143       -15.3783
  57   1.0000      -0.554234       -15.0815
  58   1.0000      -0.547534       -14.8992
  59   1.0000      -0.534253       -14.5378
  60   1.0000      -0.529673       -14.4131
  61   1.0000      -0.505270       -13.7491
  62   1.0000      -0.477716       -12.9993
  63   1.0000      -0.468683       -12.7535
  64   1.0000      -0.463874       -12.6226
  65   1.0000      -0.439057       -11.9473
  66   1.0000      -0.436517       -11.8782
  67   1.0000      -0.434571       -11.8253
  68   1.0000      -0.423382       -11.5208
  69   1.0000      -0.413912       -11.2631
  70   1.0000      -0.402045       -10.9402
  71   1.0000      -0.378375       -10.2961
  72   0.0000       0.009506         0.2587
  73   0.0000       0.020243         0.5509
  74   0.0000       0.022434         0.6105
  75   0.0000       0.030499         0.8299
  76   0.0000       0.037869         1.0305

E(0)                                       ...  -3028.416232239
E(0)                                       ...  -3028.416232239
E(CORR)(strong-pairs)                      ...     -2.872821743
E(CORR)(weak-pairs)                        ...     -0.035685895
E(CORR)(corrected)                         ...     -2.908507638
E(TOT)                                     ...  -3031.324739877
E(CCSD(T))                                 ...  -3031.444340094
FINAL SINGLE POINT ENERGY     -3031.444340093559

DIPOLE MOMENT
-------------
                                X             Y             Z
Electronic contribution:     41.10257       3.09659       2.16866
Nuclear contribution   :    -45.57497      -3.09341      -2.65580
                        -----------------------------------------
Total Dipole Moment    :     -4.47240       0.00318      -0.48714
                        -----------------------------------------
Magnitude (a.u.)       :      4.49885
Magnitude (Debye)      :     11.43517

Rotational constants in cm-1:     0.019366     0.011546     0.010649
Rotational constants in MHz :   580.592345   346.154323   319.248731

                             ****ORCA TERMINATED NORMALLY****
TOTAL RUN TIME: 0 days 21 hours 6 minutes 21 seconds 700 msec
