                         Program Version 4.1.2  - RELEASE  -
|  1> ! aug-cc-pVTZ aug-cc-pVTZ/C DLPNO-CCSD(T1) TightSCF NormalPNO UNO MiniPrint AutoAux
|  2> %pal nproc 10 end
|  3> %maxcore 20000
|  4> %mdci
|  5>      density none
|  6> end
|  7>
|  8> * xyz 0 6
|  9>  O     -0.33533700     -0.09647100     -0.41615700
| 10>  C     -1.24238200     -1.06987800     -0.25527200
| 11>  C     -2.53904800     -0.41187200      0.71847500
| 12>  C     -2.93506400      0.71992400     -0.04544400
| 13>  C     -4.02517700      0.62964800     -1.05088100
| 14> Fe      1.48818700      0.17349200     -0.08424200
| 15> Cl      1.77193500      2.22820600     -0.83249300
| 16>  C     -2.17469200      1.96093700      0.03880500
| 17> Cl      2.53980500     -1.42144500     -1.17678700
| 18> Cl      1.79081900      0.04479000      2.10673000
| 19>  H     -3.28309900     -1.21086300      0.68403000
| 20>  H     -2.58631200      2.78359500     -0.54711800
| 21>  H     -1.94587400      2.26890900      1.06264500
| 22>  H     -1.18066100      1.65407100     -0.37777600
| 23>  H     -4.85949900      1.24793500     -0.68430000
| 24>  H     -3.72097600      1.07284700     -2.00700100
| 25>  H     -4.39100300     -0.38639700     -1.20348500
| 26>  C     -2.00392700     -0.14300200      2.12791600
| 27>  H     -2.67934800      0.52814100      2.66851900
| 28>  H     -1.94283500     -1.07454100      2.69229900
| 29>  H     -1.00728400      0.30268300      2.10717600
| 30>  C     -0.73657200     -2.25843000      0.57669300
| 31>  H     -1.53838400     -2.96623700      0.80676900
| 32>  H      0.01772200     -2.76680800     -0.03366500
| 33>  H     -0.25132500     -1.93287400      1.49653900
| 34>  C     -1.79119400     -1.54677400     -1.60317700
| 35>  H     -0.98489800     -2.08799700     -2.10771700
| 36>  H     -2.64458400     -2.22372000     -1.49187200
| 37>  H     -2.06700400     -0.70748200     -2.24483300
| 38> *
| 39>
| 40>
| 41>                          ****END OF INPUT****

CARTESIAN COORDINATES (ANGSTROEM)
---------------------------------
  O     -0.335337   -0.096471   -0.416157
  C     -1.242382   -1.069878   -0.255272
  C     -2.539048   -0.411872    0.718475
  C     -2.935064    0.719924   -0.045444
  C     -4.025177    0.629648   -1.050881
  Fe     1.488187    0.173492   -0.084242
  Cl     1.771935    2.228206   -0.832493
  C     -2.174692    1.960937    0.038805
  Cl     2.539805   -1.421445   -1.176787
  Cl     1.790819    0.044790    2.106730
  H     -3.283099   -1.210863    0.684030
  H     -2.586312    2.783595   -0.547118
  H     -1.945874    2.268909    1.062645
  H     -1.180661    1.654071   -0.377776
  H     -4.859499    1.247935   -0.684300
  H     -3.720976    1.072847   -2.007001
  H     -4.391003   -0.386397   -1.203485
  C     -2.003927   -0.143002    2.127916
  H     -2.679348    0.528141    2.668519
  H     -1.942835   -1.074541    2.692299
  H     -1.007284    0.302683    2.107176
  C     -0.736572   -2.258430    0.576693
  H     -1.538384   -2.966237    0.806769
  H      0.017722   -2.766808   -0.033665
  H     -0.251325   -1.932874    1.496539
  C     -1.791194   -1.546774   -1.603177
  H     -0.984898   -2.087997   -2.107717
  H     -2.644584   -2.223720   -1.491872
  H     -2.067004   -0.707482   -2.244833

ORBITAL ENERGIES
----------------
                 SPIN UP ORBITALS
  NO   OCC          E(Eh)            E(eV)
   0   1.0000    -261.541397     -7116.9032
   1   1.0000    -104.768927     -2850.9075
   2   1.0000    -104.767633     -2850.8722
   3   1.0000    -104.766126     -2850.8312
   4   1.0000     -32.209324      -876.4603
   5   1.0000     -27.685238      -753.3536
   6   1.0000     -27.685009      -753.3474
   7   1.0000     -27.684787      -753.3414
   8   1.0000     -20.540992      -558.9488
   9   1.0000     -11.391864      -309.9884
  10   1.0000     -11.356333      -309.0215
  11   1.0000     -11.303588      -307.5863
  12   1.0000     -11.289700      -307.2084
  13   1.0000     -11.274921      -306.8062
  14   1.0000     -11.253962      -306.2359
  15   1.0000     -11.246737      -306.0393
  16   1.0000     -11.236977      -305.7737
  17   1.0000     -10.495534      -285.5980
  18   1.0000     -10.494202      -285.5618
  19   1.0000     -10.492735      -285.5218
  20   1.0000      -7.962407      -216.6681
  21   1.0000      -7.961584      -216.6457
  22   1.0000      -7.961528      -216.6442
  23   1.0000      -7.961030      -216.6306
  24   1.0000      -7.960306      -216.6109
  25   1.0000      -7.960208      -216.6083
  26   1.0000      -7.959573      -216.5910
  27   1.0000      -7.958834      -216.5709
  28   1.0000      -7.958756      -216.5688
  29   1.0000      -4.564783      -124.2140
  30   1.0000      -3.177326       -86.4594
  31   1.0000      -3.176910       -86.4481
  32   1.0000      -3.176377       -86.4336
  33   1.0000      -1.376634       -37.4601
  34   1.0000      -1.199396       -32.6372
  35   1.0000      -1.085698       -29.5433
  36   1.0000      -1.046550       -28.4781
  37   1.0000      -1.039965       -28.2989
  38   1.0000      -1.034724       -28.1563
  39   1.0000      -1.032848       -28.1052
  40   1.0000      -1.018882       -27.7252
  41   1.0000      -0.970258       -26.4021
  42   1.0000      -0.932703       -25.3801
  43   1.0000      -0.907464       -24.6933
  44   1.0000      -0.894341       -24.3363
  45   1.0000      -0.894287       -24.3348
  46   1.0000      -0.885733       -24.1020
  47   1.0000      -0.885392       -24.0927
  48   1.0000      -0.797583       -21.7033
  49   1.0000      -0.769480       -20.9386
  50   1.0000      -0.711416       -19.3586
  51   1.0000      -0.697014       -18.9667
  52   1.0000      -0.674888       -18.3646
  53   1.0000      -0.651758       -17.7352
  54   1.0000      -0.649518       -17.6743
  55   1.0000      -0.634598       -17.2683
  56   1.0000      -0.607660       -16.5353
  57   1.0000      -0.601322       -16.3628
  58   1.0000      -0.590725       -16.0744
  59   1.0000      -0.584566       -15.9069
  60   1.0000      -0.573359       -15.6019
  61   1.0000      -0.563001       -15.3200
  62   1.0000      -0.555668       -15.1205
  63   1.0000      -0.538178       -14.6446
  64   1.0000      -0.534115       -14.5340
  65   1.0000      -0.516340       -14.0503
  66   1.0000      -0.502711       -13.6795
  67   1.0000      -0.465331       -12.6623
  68   1.0000      -0.457945       -12.4613
  69   1.0000      -0.441416       -12.0115
  70   1.0000      -0.427473       -11.6321
  71   1.0000      -0.419773       -11.4226
  72   1.0000      -0.415716       -11.3122
  73   1.0000      -0.408825       -11.1247
  74   1.0000      -0.406427       -11.0595
  75   1.0000      -0.405722       -11.0402
  76   1.0000      -0.405384       -11.0310
  77   0.0000       0.001276         0.0347
  78   0.0000       0.002408         0.0655
  79   0.0000       0.017454         0.4749
  80   0.0000       0.018302         0.4980
  81   0.0000       0.027520         0.7489

                 SPIN DOWN ORBITALS
  NO   OCC          E(Eh)            E(eV)
   0   1.0000    -261.537848     -7116.8066
   1   1.0000    -104.767560     -2850.8703
   2   1.0000    -104.766274     -2850.8352
   3   1.0000    -104.764705     -2850.7926
   4   1.0000     -32.047256      -872.0502
   5   1.0000     -27.525322      -749.0021
   6   1.0000     -27.525164      -748.9978
   7   1.0000     -27.524696      -748.9850
   8   1.0000     -20.535416      -558.7971
   9   1.0000     -11.391818      -309.9871
  10   1.0000     -11.356236      -309.0189
  11   1.0000     -11.303597      -307.5865
  12   1.0000     -11.289552      -307.2043
  13   1.0000     -11.274933      -306.8065
  14   1.0000     -11.253990      -306.2366
  15   1.0000     -11.246636      -306.0365
  16   1.0000     -11.236943      -305.7728
  17   1.0000     -10.494063      -285.5580
  18   1.0000     -10.492746      -285.5221
  19   1.0000     -10.491212      -285.4804
  20   1.0000      -7.959955      -216.6014
  21   1.0000      -7.959406      -216.5864
  22   1.0000      -7.959330      -216.5844
  23   1.0000      -7.958706      -216.5674
  24   1.0000      -7.958070      -216.5501
  25   1.0000      -7.957963      -216.5472
  26   1.0000      -7.957159      -216.5253
  27   1.0000      -7.956482      -216.5069
  28   1.0000      -7.956405      -216.5048
  29   1.0000      -4.122520      -112.1795
  30   1.0000      -2.644387       -71.9574
  31   1.0000      -2.644319       -71.9556
  32   1.0000      -2.643419       -71.9311
  33   1.0000      -1.362419       -37.0733
  34   1.0000      -1.198439       -32.6112
  35   1.0000      -1.083240       -29.4765
  36   1.0000      -1.045557       -28.4510
  37   1.0000      -1.025704       -27.9108
  38   1.0000      -1.018291       -27.7091
  39   1.0000      -1.014323       -27.6011
  40   1.0000      -1.012750       -27.5583
  41   1.0000      -0.969567       -26.3833
  42   1.0000      -0.932179       -25.3659
  43   1.0000      -0.803837       -21.8735
  44   1.0000      -0.776133       -21.1196
  45   1.0000      -0.712024       -19.3752
  46   1.0000      -0.696292       -18.9471
  47   1.0000      -0.675018       -18.3682
  48   1.0000      -0.654264       -17.8034
  49   1.0000      -0.648084       -17.6353
  50   1.0000      -0.633804       -17.2467
  51   1.0000      -0.607736       -16.5373
  52   1.0000      -0.601244       -16.3607
  53   1.0000      -0.590014       -16.0551
  54   1.0000      -0.583886       -15.8884
  55   1.0000      -0.572284       -15.5726
  56   1.0000      -0.562708       -15.3121
  57   1.0000      -0.555636       -15.1196
  58   1.0000      -0.538106       -14.6426
  59   1.0000      -0.532449       -14.4887
  60   1.0000      -0.511655       -13.9228
  61   1.0000      -0.496327       -13.5057
  62   1.0000      -0.463699       -12.6179
  63   1.0000      -0.459875       -12.5138
  64   1.0000      -0.448563       -12.2060
  65   1.0000      -0.432219       -11.7613
  66   1.0000      -0.429890       -11.6979
  67   1.0000      -0.426671       -11.6103
  68   1.0000      -0.425743       -11.5851
  69   1.0000      -0.405331       -11.0296
  70   1.0000      -0.395566       -10.7639
  71   1.0000      -0.392341       -10.6761
  72   0.0000       0.001228         0.0334
  73   0.0000       0.002337         0.0636
  74   0.0000       0.017449         0.4748
  75   0.0000       0.018285         0.4976
  76   0.0000       0.027533         0.7492

E(0)                                       ...  -3028.425955364
E(0)                                       ...  -3028.425955364
E(CORR)(strong-pairs)                      ...     -2.874111747
E(CORR)(weak-pairs)                        ...     -0.035618821
E(CORR)(corrected)                         ...     -2.909730568
E(TOT)                                     ...  -3031.335685933
E(CCSD(T))                                 ...  -3031.455008010
FINAL SINGLE POINT ENERGY     -3031.455008009954

DIPOLE MOMENT
-------------
                                X             Y             Z
Electronic contribution:     41.92939       6.96116      -1.03845
Nuclear contribution   :    -47.69003      -7.11308       0.96019
                        -----------------------------------------
Total Dipole Moment    :     -5.76064      -0.15192      -0.07825
                        -----------------------------------------
Magnitude (a.u.)       :      5.76317
Magnitude (Debye)      :     14.64881

Rotational constants in cm-1:     0.019838     0.010488     0.009996
Rotational constants in MHz :   594.714480   314.421390   299.672987

                             ****ORCA TERMINATED NORMALLY****
TOTAL RUN TIME: 0 days 20 hours 10 minutes 55 seconds 502 msec
