                         Program Version 4.1.2  - RELEASE  -
|  1> ! aug-cc-pVTZ aug-cc-pVTZ/C DLPNO-CCSD(T1) TightSCF NormalPNO UNO MiniPrint AutoAux
|  2> %pal nproc 10 end
|  3> %maxcore 20000
|  4> %mdci
|  5>      density none
|  6> end
|  7>
|  8> * xyz 0 6
|  9>  O     -0.33131200     -0.12738700     -0.58309700
| 10>  C     -1.27655400     -1.03928900     -0.50872400
| 11>  C     -3.01451500     -0.06694900     -0.02237100
| 12>  C     -2.25381700      1.07513700     -0.19850800
| 13>  C     -2.13704300      1.74470400     -1.52420300
| 14> Fe      1.43218200      0.05674200      0.04376100
| 15> Cl      1.98343100      2.03468700     -0.75378200
| 16>  C     -1.58130700      1.76817100      0.93724300
| 17> Cl      2.49667500     -1.68998400     -0.76577800
| 18> Cl      1.35172000      0.02563400      2.25703700
| 19>  H     -3.61961500     -0.36587500     -0.87534300
| 20>  H     -2.31655600      2.45874600      1.37839000
| 21>  H     -1.25501900      1.08935000      1.72598900
| 22>  H     -0.72527000      2.35548900      0.59844200
| 23>  H     -2.57847200      2.74704200     -1.42875000
| 24>  H     -1.08288300      1.88237400     -1.78505400
| 25>  H     -2.66171300      1.21549600     -2.32173200
| 26>  C     -3.56568700     -0.50034400      1.31656800
| 27>  H     -4.46808600      0.08160100      1.54366900
| 28>  H     -3.85707800     -1.55374700      1.30380200
| 29>  H     -2.86304300     -0.35158800      2.13881900
| 30>  C     -1.14933800     -2.03551800      0.61850700
| 31>  H     -2.00350500     -2.71033200      0.68874200
| 32>  H     -0.25746500     -2.63121400      0.37680500
| 33>  H     -0.95864700     -1.55015100      1.57612200
| 34>  C     -1.67067100     -1.62518000     -1.84793000
| 35>  H     -0.80440400     -2.21161000     -2.18226700
| 36>  H     -2.53876600     -2.28497800     -1.77845500
| 37>  H     -1.84316200     -0.84690800     -2.59280900
| 38> *
| 39>
| 40>
| 41>                          ****END OF INPUT****

CARTESIAN COORDINATES (ANGSTROEM)
---------------------------------
  O     -0.331312   -0.127387   -0.583097
  C     -1.276554   -1.039289   -0.508724
  C     -3.014515   -0.066949   -0.022371
  C     -2.253817    1.075137   -0.198508
  C     -2.137043    1.744704   -1.524203
  Fe     1.432182    0.056742    0.043761
  Cl     1.983431    2.034687   -0.753782
  C     -1.581307    1.768171    0.937243
  Cl     2.496675   -1.689984   -0.765778
  Cl     1.351720    0.025634    2.257037
  H     -3.619615   -0.365875   -0.875343
  H     -2.316556    2.458746    1.378390
  H     -1.255019    1.089350    1.725989
  H     -0.725270    2.355489    0.598442
  H     -2.578472    2.747042   -1.428750
  H     -1.082883    1.882374   -1.785054
  H     -2.661713    1.215496   -2.321732
  C     -3.565687   -0.500344    1.316568
  H     -4.468086    0.081601    1.543669
  H     -3.857078   -1.553747    1.303802
  H     -2.863043   -0.351588    2.138819
  C     -1.149338   -2.035518    0.618507
  H     -2.003505   -2.710332    0.688742
  H     -0.257465   -2.631214    0.376805
  H     -0.958647   -1.550151    1.576122
  C     -1.670671   -1.625180   -1.847930
  H     -0.804404   -2.211610   -2.182267
  H     -2.538766   -2.284978   -1.778455
  H     -1.843162   -0.846908   -2.592809

ORBITAL ENERGIES
----------------
                 SPIN UP ORBITALS
  NO   OCC          E(Eh)            E(eV)
   0   1.0000    -261.555051     -7117.2748
   1   1.0000    -104.779114     -2851.1846
   2   1.0000    -104.777902     -2851.1517
   3   1.0000    -104.776972     -2851.1263
   4   1.0000     -32.222930      -876.8305
   5   1.0000     -27.698968      -753.7272
   6   1.0000     -27.698552      -753.7159
   7   1.0000     -27.698348      -753.7104
   8   1.0000     -20.561355      -559.5029
   9   1.0000     -11.397813      -310.1502
  10   1.0000     -11.347721      -308.7872
  11   1.0000     -11.273737      -306.7740
  12   1.0000     -11.264733      -306.5290
  13   1.0000     -11.260183      -306.4051
  14   1.0000     -11.259186      -306.3780
  15   1.0000     -11.258863      -306.3692
  16   1.0000     -11.254869      -306.2605
  17   1.0000     -10.505730      -285.8755
  18   1.0000     -10.504433      -285.8401
  19   1.0000     -10.503532      -285.8156
  20   1.0000      -7.972611      -216.9458
  21   1.0000      -7.971779      -216.9231
  22   1.0000      -7.971735      -216.9219
  23   1.0000      -7.971246      -216.9086
  24   1.0000      -7.970537      -216.8893
  25   1.0000      -7.970450      -216.8870
  26   1.0000      -7.970376      -216.8850
  27   1.0000      -7.969635      -216.8648
  28   1.0000      -7.969547      -216.8624
  29   1.0000      -4.578329      -124.5827
  30   1.0000      -3.191112       -86.8346
  31   1.0000      -3.190278       -86.8119
  32   1.0000      -3.189809       -86.7991
  33   1.0000      -1.409795       -38.3625
  34   1.0000      -1.169023       -31.8107
  35   1.0000      -1.087613       -29.5955
  36   1.0000      -1.050976       -28.5985
  37   1.0000      -1.045562       -28.4512
  38   1.0000      -1.043687       -28.4002
  39   1.0000      -1.039699       -28.2917
  40   1.0000      -0.997908       -27.1544
  41   1.0000      -0.986005       -26.8306
  42   1.0000      -0.931463       -25.3464
  43   1.0000      -0.918939       -25.0056
  44   1.0000      -0.907897       -24.7051
  45   1.0000      -0.907792       -24.7023
  46   1.0000      -0.898576       -24.4515
  47   1.0000      -0.898342       -24.4451
  48   1.0000      -0.789002       -21.4698
  49   1.0000      -0.760073       -20.6826
  50   1.0000      -0.696067       -18.9409
  51   1.0000      -0.692371       -18.8404
  52   1.0000      -0.679813       -18.4987
  53   1.0000      -0.660978       -17.9861
  54   1.0000      -0.644627       -17.5412
  55   1.0000      -0.622660       -16.9435
  56   1.0000      -0.601551       -16.3690
  57   1.0000      -0.594726       -16.1833
  58   1.0000      -0.586336       -15.9550
  59   1.0000      -0.579312       -15.7639
  60   1.0000      -0.573903       -15.6167
  61   1.0000      -0.565791       -15.3959
  62   1.0000      -0.554566       -15.0905
  63   1.0000      -0.550768       -14.9872
  64   1.0000      -0.541056       -14.7229
  65   1.0000      -0.525800       -14.3077
  66   1.0000      -0.514130       -13.9902
  67   1.0000      -0.481635       -13.1060
  68   1.0000      -0.465659       -12.6712
  69   1.0000      -0.455602       -12.3976
  70   1.0000      -0.432674       -11.7737
  71   1.0000      -0.428304       -11.6547
  72   1.0000      -0.426429       -11.6037
  73   1.0000      -0.418658       -11.3923
  74   1.0000      -0.416888       -11.3441
  75   1.0000      -0.415931       -11.3180
  76   1.0000      -0.381807       -10.3895
  77   0.0000       0.009902         0.2695
  78   0.0000       0.020527         0.5586
  79   0.0000       0.022239         0.6052
  80   0.0000       0.030179         0.8212
  81   0.0000       0.038034         1.0350

                 SPIN DOWN ORBITALS
  NO   OCC          E(Eh)            E(eV)
   0   1.0000    -261.551503     -7117.1782
   1   1.0000    -104.777720     -2851.1467
   2   1.0000    -104.776522     -2851.1141
   3   1.0000    -104.775523     -2851.0869
   4   1.0000     -32.060881      -872.4209
   5   1.0000     -27.538898      -749.3715
   6   1.0000     -27.538779      -749.3683
   7   1.0000     -27.538384      -749.3575
   8   1.0000     -20.556303      -559.3654
   9   1.0000     -11.397749      -310.1485
  10   1.0000     -11.347677      -308.7860
  11   1.0000     -11.273448      -306.7661
  12   1.0000     -11.264729      -306.5289
  13   1.0000     -11.260081      -306.4024
  14   1.0000     -11.259217      -306.3789
  15   1.0000     -11.258889      -306.3700
  16   1.0000     -11.254835      -306.2596
  17   1.0000     -10.504233      -285.8347
  18   1.0000     -10.502957      -285.8000
  19   1.0000     -10.501981      -285.7734
  20   1.0000      -7.970119      -216.8780
  21   1.0000      -7.969555      -216.8626
  22   1.0000      -7.969482      -216.8606
  23   1.0000      -7.968930      -216.8456
  24   1.0000      -7.968238      -216.8268
  25   1.0000      -7.968143      -216.8242
  26   1.0000      -7.967907      -216.8178
  27   1.0000      -7.967236      -216.7995
  28   1.0000      -7.967150      -216.7972
  29   1.0000      -4.136048      -112.5476
  30   1.0000      -2.657772       -72.3217
  31   1.0000      -2.657707       -72.3199
  32   1.0000      -2.657157       -72.3049
  33   1.0000      -1.396911       -38.0119
  34   1.0000      -1.167940       -31.7813
  35   1.0000      -1.084887       -29.5213
  36   1.0000      -1.038962       -28.2716
  37   1.0000      -1.036429       -28.2027
  38   1.0000      -1.024880       -27.8884
  39   1.0000      -1.023272       -27.8447
  40   1.0000      -0.997325       -27.1386
  41   1.0000      -0.985692       -26.8220
  42   1.0000      -0.927261       -25.2321
  43   1.0000      -0.802669       -21.8417
  44   1.0000      -0.760552       -20.6957
  45   1.0000      -0.695421       -18.9234
  46   1.0000      -0.693342       -18.8668
  47   1.0000      -0.681388       -18.5415
  48   1.0000      -0.660069       -17.9614
  49   1.0000      -0.644460       -17.5366
  50   1.0000      -0.622615       -16.9422
  51   1.0000      -0.600644       -16.3444
  52   1.0000      -0.594538       -16.1782
  53   1.0000      -0.586276       -15.9534
  54   1.0000      -0.579105       -15.7582
  55   1.0000      -0.573658       -15.6100
  56   1.0000      -0.565694       -15.3933
  57   1.0000      -0.553914       -15.0728
  58   1.0000      -0.550478       -14.9793
  59   1.0000      -0.535884       -14.5822
  60   1.0000      -0.525472       -14.2988
  61   1.0000      -0.506962       -13.7951
  62   1.0000      -0.478811       -13.0291
  63   1.0000      -0.469552       -12.7772
  64   1.0000      -0.466241       -12.6871
  65   1.0000      -0.440429       -11.9847
  66   1.0000      -0.437380       -11.9017
  67   1.0000      -0.435772       -11.8580
  68   1.0000      -0.423526       -11.5247
  69   1.0000      -0.415687       -11.3114
  70   1.0000      -0.402610       -10.9556
  71   1.0000      -0.379277       -10.3207
  72   0.0000       0.009902         0.2695
  73   0.0000       0.020490         0.5576
  74   0.0000       0.022218         0.6046
  75   0.0000       0.030209         0.8220
  76   0.0000       0.037805         1.0287

E(0)                                       ...  -3028.423586364
E(0)                                       ...  -3028.423586364
E(CORR)(strong-pairs)                      ...     -2.872728673
E(CORR)(weak-pairs)                        ...     -0.035657763
E(CORR)(corrected)                         ...     -2.908386437
E(TOT)                                     ...  -3031.331972801
E(CCSD(T))                                 ...  -3031.451622777
FINAL SINGLE POINT ENERGY     -3031.451622776857

DIPOLE MOMENT
-------------
                                X             Y             Z
Electronic contribution:     41.48181       3.10167       2.26493
Nuclear contribution   :    -45.92354      -3.30032      -2.76083
                        -----------------------------------------
Total Dipole Moment    :     -4.44174      -0.19865      -0.49590
                        -----------------------------------------
Magnitude (a.u.)       :      4.47374
Magnitude (Debye)      :     11.37135

Rotational constants in cm-1:     0.019403     0.011358     0.010567
Rotational constants in MHz :   581.685417   340.499381   316.803136

                             ****ORCA TERMINATED NORMALLY****
TOTAL RUN TIME: 0 days 21 hours 18 minutes 26 seconds 236 msec
