                         Program Version 4.1.2  - RELEASE  -
|  1> ! aug-cc-pVTZ aug-cc-pVTZ/C DLPNO-CCSD(T1) TightSCF NormalPNO UNO MiniPrint AutoAux
|  2> %pal nproc 10 end
|  3> %maxcore 20000
|  4> %mdci
|  5>      density none
|  6> end
|  7>
|  8> * xyz 0 6
|  9>  O     -0.44318500     -0.15094700     -0.47618300
| 10>  C     -1.40131600     -1.23229700     -0.35151100
| 11>  C     -2.84445500     -0.08521500     -0.19642500
| 12>  C     -1.92095100      1.10831100     -0.29461300
| 13>  C     -1.82897500      1.82522100     -1.59710300
| 14> Fe      1.37089300      0.04927300      0.04777200
| 15> Cl      1.87039600      1.99752000     -0.85748000
| 16>  C     -1.55005100      1.87709400      0.92610100
| 17> Cl      2.39620800     -1.72052400     -0.73987100
| 18> Cl      1.38251100      0.15149200      2.25322500
| 19>  H     -3.43300200     -0.19612500     -1.10933600
| 20>  H     -2.40787000      2.52017400      1.17587300
| 21>  H     -1.34801000      1.23438900      1.78311700
| 22>  H     -0.68468400      2.51738700      0.74203100
| 23>  H     -2.63731200      2.57314800     -1.61350800
| 24>  H     -0.87391000      2.34712500     -1.69358700
| 25>  H     -1.97377800      1.15061400     -2.44284800
| 26>  C     -3.68792600     -0.25444300      1.05011100
| 27>  H     -4.44929700      0.53205100      1.12753800
| 28>  H     -4.21275600     -1.21402300      1.01280700
| 29>  H     -3.09285600     -0.23600900      1.96639400
| 30>  C     -1.18307000     -2.05952100      0.88883300
| 31>  H     -1.99540700     -2.78153600      1.01916900
| 32>  H     -0.24488300     -2.61917500      0.78430800
| 33>  H     -1.09990400     -1.44060600      1.78406500
| 34>  C     -1.46365200     -2.02343200     -1.63392400
| 35>  H     -0.49671400     -2.51629400     -1.79367700
| 36>  H     -2.24376400     -2.79020600     -1.58215100
| 37>  H     -1.65616200     -1.37305000     -2.49146000
| 38> *
| 39>
| 40>
| 41>                          ****END OF INPUT****

CARTESIAN COORDINATES (ANGSTROEM)
---------------------------------
  O     -0.443185   -0.150947   -0.476183
  C     -1.401316   -1.232297   -0.351511
  C     -2.844455   -0.085215   -0.196425
  C     -1.920951    1.108311   -0.294613
  C     -1.828975    1.825221   -1.597103
  Fe     1.370893    0.049273    0.047772
  Cl     1.870396    1.997520   -0.857480
  C     -1.550051    1.877094    0.926101
  Cl     2.396208   -1.720524   -0.739871
  Cl     1.382511    0.151492    2.253225
  H     -3.433002   -0.196125   -1.109336
  H     -2.407870    2.520174    1.175873
  H     -1.348010    1.234389    1.783117
  H     -0.684684    2.517387    0.742031
  H     -2.637312    2.573148   -1.613508
  H     -0.873910    2.347125   -1.693587
  H     -1.973778    1.150614   -2.442848
  C     -3.687926   -0.254443    1.050111
  H     -4.449297    0.532051    1.127538
  H     -4.212756   -1.214023    1.012807
  H     -3.092856   -0.236009    1.966394
  C     -1.183070   -2.059521    0.888833
  H     -1.995407   -2.781536    1.019169
  H     -0.244883   -2.619175    0.784308
  H     -1.099904   -1.440606    1.784065
  C     -1.463652   -2.023432   -1.633924
  H     -0.496714   -2.516294   -1.793677
  H     -2.243764   -2.790206   -1.582151
  H     -1.656162   -1.373050   -2.491460

ORBITAL ENERGIES
----------------
                 SPIN UP ORBITALS
  NO   OCC          E(Eh)            E(eV)
   0   1.0000    -261.555095     -7117.2760
   1   1.0000    -104.781147     -2851.2400
   2   1.0000    -104.778695     -2851.1733
   3   1.0000    -104.778341     -2851.1636
   4   1.0000     -32.223005      -876.8325
   5   1.0000     -27.699031      -753.7289
   6   1.0000     -27.698620      -753.7178
   7   1.0000     -27.698392      -753.7116
   8   1.0000     -20.574632      -559.8642
   9   1.0000     -11.394158      -310.0508
  10   1.0000     -11.351444      -308.8885
  11   1.0000     -11.290252      -307.2234
  12   1.0000     -11.271402      -306.7104
  13   1.0000     -11.269634      -306.6623
  14   1.0000     -11.258854      -306.3690
  15   1.0000     -11.240857      -305.8793
  16   1.0000     -11.239066      -305.8305
  17   1.0000     -10.507762      -285.9308
  18   1.0000     -10.505360      -285.8654
  19   1.0000     -10.504978      -285.8550
  20   1.0000      -7.974579      -216.9993
  21   1.0000      -7.973853      -216.9796
  22   1.0000      -7.973790      -216.9779
  23   1.0000      -7.972241      -216.9357
  24   1.0000      -7.971778      -216.9231
  25   1.0000      -7.971417      -216.9133
  26   1.0000      -7.971377      -216.9122
  27   1.0000      -7.971089      -216.9044
  28   1.0000      -7.971030      -216.9028
  29   1.0000      -4.578319      -124.5824
  30   1.0000      -3.190824       -86.8267
  31   1.0000      -3.190379       -86.8146
  32   1.0000      -3.189829       -86.7997
  33   1.0000      -1.367865       -37.2215
  34   1.0000      -1.157347       -31.4930
  35   1.0000      -1.083221       -29.4759
  36   1.0000      -1.053038       -28.6546
  37   1.0000      -1.046990       -28.4901
  38   1.0000      -1.045905       -28.4605
  39   1.0000      -1.037429       -28.2299
  40   1.0000      -1.004055       -27.3217
  41   1.0000      -0.969043       -26.3690
  42   1.0000      -0.927243       -25.2316
  43   1.0000      -0.907739       -24.7008
  44   1.0000      -0.907692       -24.6995
  45   1.0000      -0.903447       -24.5840
  46   1.0000      -0.898903       -24.4604
  47   1.0000      -0.898226       -24.4420
  48   1.0000      -0.791543       -21.5390
  49   1.0000      -0.757205       -20.6046
  50   1.0000      -0.691170       -18.8077
  51   1.0000      -0.684137       -18.6163
  52   1.0000      -0.667203       -18.1555
  53   1.0000      -0.639866       -17.4117
  54   1.0000      -0.624427       -16.9915
  55   1.0000      -0.623408       -16.9638
  56   1.0000      -0.596126       -16.2214
  57   1.0000      -0.594182       -16.1685
  58   1.0000      -0.587014       -15.9735
  59   1.0000      -0.580815       -15.8048
  60   1.0000      -0.569210       -15.4890
  61   1.0000      -0.560009       -15.2386
  62   1.0000      -0.544759       -14.8236
  63   1.0000      -0.537242       -14.6191
  64   1.0000      -0.532554       -14.4915
  65   1.0000      -0.523702       -14.2507
  66   1.0000      -0.508111       -13.8264
  67   1.0000      -0.485117       -13.2007
  68   1.0000      -0.467438       -12.7196
  69   1.0000      -0.457388       -12.4462
  70   1.0000      -0.437545       -11.9062
  71   1.0000      -0.430386       -11.7114
  72   1.0000      -0.427157       -11.6235
  73   1.0000      -0.420920       -11.4538
  74   1.0000      -0.418099       -11.3771
  75   1.0000      -0.417159       -11.3515
  76   1.0000      -0.399196       -10.8627
  77   0.0000       0.009678         0.2633
  78   0.0000       0.021227         0.5776
  79   0.0000       0.023434         0.6377
  80   0.0000       0.031228         0.8498
  81   0.0000       0.038067         1.0359

                 SPIN DOWN ORBITALS
  NO   OCC          E(Eh)            E(eV)
   0   1.0000    -261.551541     -7117.1793
   1   1.0000    -104.779769     -2851.2025
   2   1.0000    -104.777274     -2851.1346
   3   1.0000    -104.776870     -2851.1236
   4   1.0000     -32.061060      -872.4258
   5   1.0000     -27.539052      -749.3757
   6   1.0000     -27.538920      -749.3721
   7   1.0000     -27.538564      -749.3624
   8   1.0000     -20.569626      -559.7280
   9   1.0000     -11.394194      -310.0518
  10   1.0000     -11.351360      -308.8862
  11   1.0000     -11.290054      -307.2180
  12   1.0000     -11.271383      -306.7099
  13   1.0000     -11.269644      -306.6626
  14   1.0000     -11.258854      -306.3690
  15   1.0000     -11.240821      -305.8783
  16   1.0000     -11.239055      -305.8302
  17   1.0000     -10.506286      -285.8906
  18   1.0000     -10.503835      -285.8239
  19   1.0000     -10.503406      -285.8122
  20   1.0000      -7.972250      -216.9359
  21   1.0000      -7.971567      -216.9174
  22   1.0000      -7.971505      -216.9157
  23   1.0000      -7.969734      -216.8675
  24   1.0000      -7.969381      -216.8579
  25   1.0000      -7.969127      -216.8510
  26   1.0000      -7.969060      -216.8491
  27   1.0000      -7.968593      -216.8364
  28   1.0000      -7.968543      -216.8351
  29   1.0000      -4.136283      -112.5540
  30   1.0000      -2.658193       -72.3331
  31   1.0000      -2.657979       -72.3273
  32   1.0000      -2.657136       -72.3043
  33   1.0000      -1.354691       -36.8630
  34   1.0000      -1.155912       -31.4540
  35   1.0000      -1.080639       -29.4057
  36   1.0000      -1.038207       -28.2511
  37   1.0000      -1.036411       -28.2022
  38   1.0000      -1.026765       -27.9397
  39   1.0000      -1.024958       -27.8905
  40   1.0000      -1.003800       -27.3148
  41   1.0000      -0.968525       -26.3549
  42   1.0000      -0.916741       -24.9458
  43   1.0000      -0.794476       -21.6188
  44   1.0000      -0.760776       -20.7018
  45   1.0000      -0.691265       -18.8103
  46   1.0000      -0.683969       -18.6118
  47   1.0000      -0.667555       -18.1651
  48   1.0000      -0.640541       -17.4300
  49   1.0000      -0.624126       -16.9833
  50   1.0000      -0.622291       -16.9334
  51   1.0000      -0.595658       -16.2087
  52   1.0000      -0.593694       -16.1552
  53   1.0000      -0.587011       -15.9734
  54   1.0000      -0.578812       -15.7503
  55   1.0000      -0.569061       -15.4849
  56   1.0000      -0.559889       -15.2353
  57   1.0000      -0.541876       -14.7452
  58   1.0000      -0.536813       -14.6074
  59   1.0000      -0.531064       -14.4510
  60   1.0000      -0.518316       -14.1041
  61   1.0000      -0.507024       -13.7968
  62   1.0000      -0.481051       -13.0901
  63   1.0000      -0.471798       -12.8383
  64   1.0000      -0.467834       -12.7304
  65   1.0000      -0.441978       -12.0268
  66   1.0000      -0.439375       -11.9560
  67   1.0000      -0.437172       -11.8960
  68   1.0000      -0.427189       -11.6244
  69   1.0000      -0.416725       -11.3397
  70   1.0000      -0.404106       -10.9963
  71   1.0000      -0.399393       -10.8680
  72   0.0000       0.009660         0.2629
  73   0.0000       0.021149         0.5755
  74   0.0000       0.023413         0.6371
  75   0.0000       0.031277         0.8511
  76   0.0000       0.038070         1.0359

E(0)                                       ...  -3028.426664893
E(0)                                       ...  -3028.426664893
E(CORR)(strong-pairs)                      ...     -2.876730572
E(CORR)(weak-pairs)                        ...     -0.035847839
E(CORR)(corrected)                         ...     -2.912578412
E(TOT)                                     ...  -3031.339243305
E(CCSD(T))                                 ...  -3031.458988797
FINAL SINGLE POINT ENERGY     -3031.458988796611

DIPOLE MOMENT
-------------
                                X             Y             Z
Electronic contribution:     40.20221       3.31385       1.94023
Nuclear contribution   :    -44.49993      -2.98314      -2.37017
                        -----------------------------------------
Total Dipole Moment    :     -4.29772       0.33070      -0.42994
                        -----------------------------------------
Magnitude (a.u.)       :      4.33181
Magnitude (Debye)      :     11.01059

Rotational constants in cm-1:     0.018822     0.012060     0.010837
Rotational constants in MHz :   564.257654   361.551098   324.891284

                             ****ORCA TERMINATED NORMALLY****
TOTAL RUN TIME: 0 days 20 hours 50 minutes 5 seconds 345 msec
