                         Program Version 4.1.2  - RELEASE  -
|  1> ! aug-cc-pVTZ aug-cc-pVTZ/C DLPNO-CCSD(T1) TightSCF NormalPNO UNO MiniPrint AutoAux
|  2> %pal nproc 10 end
|  3> %maxcore 20000
|  4> %mdci
|  5>      density none
|  6> end
|  7>
|  8> * xyz 0 6
|  9>  O     -0.25004100     -0.35868600     -0.63778100
| 10>  C     -1.33074200     -1.13128100     -0.29814500
| 11>  C     -2.28778400     -0.36198600      0.72765300
| 12>  C     -2.92401400      0.72015300     -0.01454200
| 13>  C     -4.32279800      0.60739800     -0.48096000
| 14> Fe      1.47132800      0.12176300     -0.09607800
| 15> Cl      2.79831500     -0.25434300     -1.80250000
| 16>  C     -2.11097100      1.84942500     -0.42057600
| 17> Cl      2.07021300     -0.98894000      1.71848000
| 18> Cl      1.26919600      2.29327200      0.39323600
| 19>  H     -3.04793100     -1.09456500      1.01748200
| 20>  H     -2.61306800      2.57953300     -1.05536500
| 21>  H     -1.57517800      2.33032800      0.40675400
| 22>  H     -1.24609200      1.35512700     -0.94183900
| 23>  H     -4.92737700      1.24197200      0.19003900
| 24>  H     -4.45279600      1.02108700     -1.48683800
| 25>  H     -4.71532300     -0.40919900     -0.42150800
| 26>  C     -1.51328300      0.11545300      1.97327200
| 27>  H     -2.18055700      0.67053900      2.63992400
| 28>  H     -1.12296900     -0.74080500      2.52360700
| 29>  H     -0.67288900      0.75676500      1.70908900
| 30>  C     -0.90486200     -2.43531100      0.41220800
| 31>  H     -1.77679700     -3.03250700      0.69742600
| 32>  H     -0.30222100     -3.01044100     -0.29671200
| 33>  H     -0.28578200     -2.24208900      1.28714100
| 34>  C     -2.08896500     -1.49592900     -1.59097200
| 35>  H     -1.43485800     -2.11738000     -2.20750500
| 36>  H     -3.00828900     -2.05647500     -1.38654100
| 37>  H     -2.33285300     -0.60559800     -2.17919900
| 38> *
| 39>
| 40>
| 41>                          ****END OF INPUT****

CARTESIAN COORDINATES (ANGSTROEM)
---------------------------------
  O     -0.250041   -0.358686   -0.637781
  C     -1.330742   -1.131281   -0.298145
  C     -2.287784   -0.361986    0.727653
  C     -2.924014    0.720153   -0.014542
  C     -4.322798    0.607398   -0.480960
  Fe     1.471328    0.121763   -0.096078
  Cl     2.798315   -0.254343   -1.802500
  C     -2.110971    1.849425   -0.420576
  Cl     2.070213   -0.988940    1.718480
  Cl     1.269196    2.293272    0.393236
  H     -3.047931   -1.094565    1.017482
  H     -2.613068    2.579533   -1.055365
  H     -1.575178    2.330328    0.406754
  H     -1.246092    1.355127   -0.941839
  H     -4.927377    1.241972    0.190039
  H     -4.452796    1.021087   -1.486838
  H     -4.715323   -0.409199   -0.421508
  C     -1.513283    0.115453    1.973272
  H     -2.180557    0.670539    2.639924
  H     -1.122969   -0.740805    2.523607
  H     -0.672889    0.756765    1.709089
  C     -0.904862   -2.435311    0.412208
  H     -1.776797   -3.032507    0.697426
  H     -0.302221   -3.010441   -0.296712
  H     -0.285782   -2.242089    1.287141
  C     -2.088965   -1.495929   -1.590972
  H     -1.434858   -2.117380   -2.207505
  H     -3.008289   -2.056475   -1.386541
  H     -2.332853   -0.605598   -2.179199

ORBITAL ENERGIES
----------------
                 SPIN UP ORBITALS
  NO   OCC          E(Eh)            E(eV)
   0   1.0000    -261.536918     -7116.7813
   1   1.0000    -104.767549     -2850.8699
   2   1.0000    -104.764606     -2850.7899
   3   1.0000    -104.757597     -2850.5991
   4   1.0000     -32.204703      -876.3345
   5   1.0000     -27.680573      -753.2267
   6   1.0000     -27.680495      -753.2246
   7   1.0000     -27.680184      -753.2161
   8   1.0000     -20.530720      -558.6693
   9   1.0000     -11.414946      -310.6165
  10   1.0000     -11.335165      -308.4455
  11   1.0000     -11.316981      -307.9507
  12   1.0000     -11.293925      -307.3233
  13   1.0000     -11.283000      -307.0260
  14   1.0000     -11.256132      -306.2949
  15   1.0000     -11.246279      -306.0268
  16   1.0000     -11.230017      -305.5843
  17   1.0000     -10.494174      -285.5610
  18   1.0000     -10.491336      -285.4838
  19   1.0000     -10.484189      -285.2893
  20   1.0000      -7.961081      -216.6320
  21   1.0000      -7.960215      -216.6085
  22   1.0000      -7.960133      -216.6062
  23   1.0000      -7.958183      -216.5532
  24   1.0000      -7.957386      -216.5315
  25   1.0000      -7.957380      -216.5313
  26   1.0000      -7.951028      -216.3585
  27   1.0000      -7.950322      -216.3393
  28   1.0000      -7.950195      -216.3358
  29   1.0000      -4.560036      -124.0849
  30   1.0000      -3.172514       -86.3285
  31   1.0000      -3.172082       -86.3167
  32   1.0000      -3.171842       -86.3102
  33   1.0000      -1.354514       -36.8582
  34   1.0000      -1.211380       -32.9633
  35   1.0000      -1.095034       -29.7974
  36   1.0000      -1.049357       -28.5545
  37   1.0000      -1.036715       -28.2104
  38   1.0000      -1.032512       -28.0961
  39   1.0000      -1.028812       -27.9954
  40   1.0000      -1.025667       -27.9098
  41   1.0000      -0.963992       -26.2316
  42   1.0000      -0.932882       -25.3850
  43   1.0000      -0.901605       -24.5339
  44   1.0000      -0.889945       -24.2166
  45   1.0000      -0.888886       -24.1878
  46   1.0000      -0.881865       -23.9968
  47   1.0000      -0.880543       -23.9608
  48   1.0000      -0.815890       -22.2015
  49   1.0000      -0.768304       -20.9066
  50   1.0000      -0.720833       -19.6149
  51   1.0000      -0.699024       -19.0214
  52   1.0000      -0.681150       -18.5350
  53   1.0000      -0.653082       -17.7713
  54   1.0000      -0.643826       -17.5194
  55   1.0000      -0.637757       -17.3542
  56   1.0000      -0.618393       -16.8273
  57   1.0000      -0.599653       -16.3174
  58   1.0000      -0.593815       -16.1585
  59   1.0000      -0.580146       -15.7866
  60   1.0000      -0.574551       -15.6343
  61   1.0000      -0.562416       -15.3041
  62   1.0000      -0.549615       -14.9558
  63   1.0000      -0.539006       -14.6671
  64   1.0000      -0.527320       -14.3491
  65   1.0000      -0.522190       -14.2095
  66   1.0000      -0.498070       -13.5532
  67   1.0000      -0.461266       -12.5517
  68   1.0000      -0.457188       -12.4407
  69   1.0000      -0.438273       -11.9260
  70   1.0000      -0.427054       -11.6207
  71   1.0000      -0.417912       -11.3720
  72   1.0000      -0.411196       -11.1892
  73   1.0000      -0.408874       -11.1260
  74   1.0000      -0.404068       -10.9953
  75   1.0000      -0.401350       -10.9213
  76   1.0000      -0.398655       -10.8479
  77   0.0000      -0.012316        -0.3351
  78   0.0000      -0.001534        -0.0417
  79   0.0000       0.015772         0.4292
  80   0.0000       0.016593         0.4515
  81   0.0000       0.025976         0.7069

                 SPIN DOWN ORBITALS
  NO   OCC          E(Eh)            E(eV)
   0   1.0000    -261.533392     -7116.6854
   1   1.0000    -104.766270     -2850.8351
   2   1.0000    -104.763211     -2850.7519
   3   1.0000    -104.756161     -2850.5601
   4   1.0000     -32.042620      -871.9240
   5   1.0000     -27.520768      -748.8782
   6   1.0000     -27.520605      -748.8737
   7   1.0000     -27.519977      -748.8566
   8   1.0000     -20.524730      -558.5063
   9   1.0000     -11.414969      -310.6171
  10   1.0000     -11.334961      -308.4400
  11   1.0000     -11.316979      -307.9507
  12   1.0000     -11.293835      -307.3209
  13   1.0000     -11.282996      -307.0259
  14   1.0000     -11.256168      -306.2959
  15   1.0000     -11.246171      -306.0239
  16   1.0000     -11.229960      -305.5828
  17   1.0000     -10.492792      -285.5234
  18   1.0000     -10.489837      -285.4430
  19   1.0000     -10.482653      -285.2475
  20   1.0000      -7.958644      -216.5657
  21   1.0000      -7.958253      -216.5551
  22   1.0000      -7.958165      -216.5527
  23   1.0000      -7.955761      -216.4873
  24   1.0000      -7.955121      -216.4699
  25   1.0000      -7.955093      -216.4691
  26   1.0000      -7.948611      -216.2927
  27   1.0000      -7.947912      -216.2737
  28   1.0000      -7.947815      -216.2711
  29   1.0000      -4.117720      -112.0489
  30   1.0000      -2.639887       -71.8350
  31   1.0000      -2.639508       -71.8247
  32   1.0000      -2.638334       -71.7927
  33   1.0000      -1.339408       -36.4471
  34   1.0000      -1.210340       -32.9350
  35   1.0000      -1.092386       -29.7253
  36   1.0000      -1.048499       -28.5311
  37   1.0000      -1.027749       -27.9665
  38   1.0000      -1.022879       -27.8339
  39   1.0000      -1.012722       -27.5576
  40   1.0000      -1.005093       -27.3500
  41   1.0000      -0.963372       -26.2147
  42   1.0000      -0.932708       -25.3803
  43   1.0000      -0.819744       -22.3064
  44   1.0000      -0.775602       -21.1052
  45   1.0000      -0.721546       -19.6343
  46   1.0000      -0.699339       -19.0300
  47   1.0000      -0.681205       -18.5365
  48   1.0000      -0.653417       -17.7804
  49   1.0000      -0.645630       -17.5685
  50   1.0000      -0.635951       -17.3051
  51   1.0000      -0.618392       -16.8273
  52   1.0000      -0.599608       -16.3162
  53   1.0000      -0.593589       -16.1524
  54   1.0000      -0.579326       -15.7643
  55   1.0000      -0.573093       -15.5947
  56   1.0000      -0.561614       -15.2823
  57   1.0000      -0.549667       -14.9572
  58   1.0000      -0.539244       -14.6736
  59   1.0000      -0.524495       -14.2722
  60   1.0000      -0.517816       -14.0905
  61   1.0000      -0.492063       -13.3897
  62   1.0000      -0.459801       -12.5118
  63   1.0000      -0.455592       -12.3973
  64   1.0000      -0.443546       -12.0695
  65   1.0000      -0.434194       -11.8150
  66   1.0000      -0.427410       -11.6304
  67   1.0000      -0.423189       -11.5156
  68   1.0000      -0.422026       -11.4839
  69   1.0000      -0.400910       -10.9093
  70   1.0000      -0.393212       -10.6998
  71   1.0000      -0.387954       -10.5568
  72   0.0000      -0.012563        -0.3419
  73   0.0000      -0.001536        -0.0418
  74   0.0000       0.015765         0.4290
  75   0.0000       0.016573         0.4510
  76   0.0000       0.025993         0.7073

E(0)                                       ...  -3028.421936197
E(0)                                       ...  -3028.421936197
E(CORR)(strong-pairs)                      ...     -2.873494420
E(CORR)(weak-pairs)                        ...     -0.035213861
E(CORR)(corrected)                         ...     -2.908708281
E(TOT)                                     ...  -3031.330644478
E(CCSD(T))                                 ...  -3031.449125363
FINAL SINGLE POINT ENERGY     -3031.449125363346

DIPOLE MOMENT
-------------
                                X             Y             Z
Electronic contribution:     41.95079       7.12833      -0.33675
Nuclear contribution   :    -48.28171      -7.06018       0.39612
                        -----------------------------------------
Total Dipole Moment    :     -6.33092       0.06816       0.05936
                        -----------------------------------------
Magnitude (a.u.)       :      6.33157
Magnitude (Debye)      :     16.09356

Rotational constants in cm-1:     0.020940     0.010354     0.009837
Rotational constants in MHz :   627.755295   310.392484   294.892669

                             ****ORCA TERMINATED NORMALLY****
TOTAL RUN TIME: 0 days 21 hours 6 minutes 38 seconds 959 msec
