                         Program Version 4.1.2  - RELEASE  -
|  1> ! aug-cc-pVTZ aug-cc-pVTZ/C DLPNO-CCSD(T1) TightSCF NormalPNO UNO MiniPrint AutoAux
|  2> %pal nproc 10 end
|  3> %maxcore 20000
|  4> %mdci
|  5>      density none
|  6> end
|  7>
|  8> * xyz 0 6
|  9>  O     -0.36531500     -0.13722200     -0.51565600
| 10>  C     -1.32406200     -1.11245600     -0.42888800
| 11>  C     -2.94435600     -0.06687100     -0.13924600
| 12>  C     -2.11257300      1.08720100     -0.25036800
| 13>  C     -1.93712700      1.77132100     -1.55730600
| 14> Fe      1.40543000      0.04815500      0.04415200
| 15> Cl      1.89851200      2.03506700     -0.79784500
| 16>  C     -1.58978000      1.78994000      0.94944000
| 17> Cl      2.48537300     -1.69707300     -0.74981500
| 18> Cl      1.36028700      0.08344500      2.26293200
| 19>  H     -3.52392200     -0.27514300     -1.03752100
| 20>  H     -2.40565300      2.43532300      1.31377000
| 21>  H     -1.32408200      1.10964300      1.75946100
| 22>  H     -0.72994100      2.41690000      0.70792900
| 23>  H     -2.61596200      2.63967500     -1.54534600
| 24>  H     -0.91607800      2.14302800     -1.67384000
| 25>  H     -2.21590700      1.14099500     -2.40321400
| 26>  C     -3.66619300     -0.40485800      1.14755600
| 27>  H     -4.52907300      0.25798800      1.28962100
| 28>  H     -4.04604500     -1.42983000      1.11226900
| 29>  H     -3.02899300     -0.31457800      2.02973600
| 30>  C     -1.17978900     -2.03103500      0.75714600
| 31>  H     -2.01585800     -2.72877400      0.84530200
| 32>  H     -0.26178700     -2.61178100      0.59008300
| 33>  H     -1.04351200     -1.47965700      1.68845800
| 34>  C     -1.55676600     -1.80936200     -1.74859600
| 35>  H     -0.63519100     -2.35878700     -1.98279900
| 36>  H     -2.39092200     -2.51502800     -1.69924800
| 37>  H     -1.72280500     -1.09196300     -2.55542400
| 38> *
| 39>
| 40>
| 41>                          ****END OF INPUT****

CARTESIAN COORDINATES (ANGSTROEM)
---------------------------------
  O     -0.365315   -0.137222   -0.515656
  C     -1.324062   -1.112456   -0.428888
  C     -2.944356   -0.066871   -0.139246
  C     -2.112573    1.087201   -0.250368
  C     -1.937127    1.771321   -1.557306
  Fe     1.405430    0.048155    0.044152
  Cl     1.898512    2.035067   -0.797845
  C     -1.589780    1.789940    0.949440
  Cl     2.485373   -1.697073   -0.749815
  Cl     1.360287    0.083445    2.262932
  H     -3.523922   -0.275143   -1.037521
  H     -2.405653    2.435323    1.313770
  H     -1.324082    1.109643    1.759461
  H     -0.729941    2.416900    0.707929
  H     -2.615962    2.639675   -1.545346
  H     -0.916078    2.143028   -1.673840
  H     -2.215907    1.140995   -2.403214
  C     -3.666193   -0.404858    1.147556
  H     -4.529073    0.257988    1.289621
  H     -4.046045   -1.429830    1.112269
  H     -3.028993   -0.314578    2.029736
  C     -1.179789   -2.031035    0.757146
  H     -2.015858   -2.728774    0.845302
  H     -0.261787   -2.611781    0.590083
  H     -1.043512   -1.479657    1.688458
  C     -1.556766   -1.809362   -1.748596
  H     -0.635191   -2.358787   -1.982799
  H     -2.390922   -2.515028   -1.699248
  H     -1.722805   -1.091963   -2.555424

ORBITAL ENERGIES
----------------
                 SPIN UP ORBITALS
  NO   OCC          E(Eh)            E(eV)
   0   1.0000    -261.550385     -7117.1478
   1   1.0000    -104.776758     -2851.1205
   2   1.0000    -104.775749     -2851.0931
   3   1.0000    -104.774819     -2851.0678
   4   1.0000     -32.218280      -876.7040
   5   1.0000     -27.694184      -753.5971
   6   1.0000     -27.694005      -753.5922
   7   1.0000     -27.693735      -753.5848
   8   1.0000     -20.553321      -559.2843
   9   1.0000     -11.383115      -309.7503
  10   1.0000     -11.377894      -309.6082
  11   1.0000     -11.279525      -306.9315
  12   1.0000     -11.273043      -306.7551
  13   1.0000     -11.269462      -306.6576
  14   1.0000     -11.260973      -306.4266
  15   1.0000     -11.250700      -306.1471
  16   1.0000     -11.246525      -306.0335
  17   1.0000     -10.503261      -285.8083
  18   1.0000     -10.502336      -285.7831
  19   1.0000     -10.501358      -285.7565
  20   1.0000      -7.970079      -216.8769
  21   1.0000      -7.969351      -216.8571
  22   1.0000      -7.969267      -216.8548
  23   1.0000      -7.969228      -216.8537
  24   1.0000      -7.968383      -216.8307
  25   1.0000      -7.968331      -216.8293
  26   1.0000      -7.968172      -216.8250
  27   1.0000      -7.967466      -216.8058
  28   1.0000      -7.967385      -216.8036
  29   1.0000      -4.573744      -124.4579
  30   1.0000      -3.186341       -86.7048
  31   1.0000      -3.185878       -86.6921
  32   1.0000      -3.185273       -86.6757
  33   1.0000      -1.383684       -37.6520
  34   1.0000      -1.173557       -31.9341
  35   1.0000      -1.085972       -29.5508
  36   1.0000      -1.048232       -28.5238
  37   1.0000      -1.042452       -28.3666
  38   1.0000      -1.041269       -28.3344
  39   1.0000      -1.040617       -28.3166
  40   1.0000      -1.006055       -27.3762
  41   1.0000      -0.979663       -26.6580
  42   1.0000      -0.932025       -25.3617
  43   1.0000      -0.911561       -24.8048
  44   1.0000      -0.903388       -24.5824
  45   1.0000      -0.903236       -24.5783
  46   1.0000      -0.894830       -24.3496
  47   1.0000      -0.894299       -24.3351
  48   1.0000      -0.785021       -21.3615
  49   1.0000      -0.763128       -20.7658
  50   1.0000      -0.696416       -18.9504
  51   1.0000      -0.692799       -18.8520
  52   1.0000      -0.673227       -18.3194
  53   1.0000      -0.648548       -17.6479
  54   1.0000      -0.640093       -17.4178
  55   1.0000      -0.625358       -17.0168
  56   1.0000      -0.599645       -16.3172
  57   1.0000      -0.592809       -16.1312
  58   1.0000      -0.589928       -16.0527
  59   1.0000      -0.584146       -15.8954
  60   1.0000      -0.573806       -15.6140
  61   1.0000      -0.563013       -15.3204
  62   1.0000      -0.555026       -15.1030
  63   1.0000      -0.545387       -14.8407
  64   1.0000      -0.536435       -14.5971
  65   1.0000      -0.532344       -14.4858
  66   1.0000      -0.508922       -13.8485
  67   1.0000      -0.479726       -13.0540
  68   1.0000      -0.463547       -12.6138
  69   1.0000      -0.451603       -12.2887
  70   1.0000      -0.431141       -11.7319
  71   1.0000      -0.426591       -11.6081
  72   1.0000      -0.423534       -11.5249
  73   1.0000      -0.417256       -11.3541
  74   1.0000      -0.414767       -11.2864
  75   1.0000      -0.413698       -11.2573
  76   1.0000      -0.385339       -10.4856
  77   0.0000       0.008732         0.2376
  78   0.0000       0.019887         0.5412
  79   0.0000       0.022193         0.6039
  80   0.0000       0.030502         0.8300
  81   0.0000       0.036533         0.9941

                 SPIN DOWN ORBITALS
  NO   OCC          E(Eh)            E(eV)
   0   1.0000    -261.546837     -7117.0513
   1   1.0000    -104.775431     -2851.0844
   2   1.0000    -104.774373     -2851.0556
   3   1.0000    -104.773390     -2851.0289
   4   1.0000     -32.056276      -872.2956
   5   1.0000     -27.534329      -749.2472
   6   1.0000     -27.534167      -749.2428
   7   1.0000     -27.533717      -749.2305
   8   1.0000     -20.547756      -559.1329
   9   1.0000     -11.383146      -309.7512
  10   1.0000     -11.377880      -309.6079
  11   1.0000     -11.279131      -306.9208
  12   1.0000     -11.273024      -306.7546
  13   1.0000     -11.269474      -306.6580
  14   1.0000     -11.261009      -306.4276
  15   1.0000     -11.250617      -306.1449
  16   1.0000     -11.246487      -306.0325
  17   1.0000     -10.501839      -285.7696
  18   1.0000     -10.500857      -285.7428
  19   1.0000     -10.499829      -285.7149
  20   1.0000      -7.967804      -216.8150
  21   1.0000      -7.967170      -216.7977
  22   1.0000      -7.967083      -216.7954
  23   1.0000      -7.966738      -216.7860
  24   1.0000      -7.966203      -216.7714
  25   1.0000      -7.966130      -216.7694
  26   1.0000      -7.965789      -216.7601
  27   1.0000      -7.965071      -216.7406
  28   1.0000      -7.965002      -216.7387
  29   1.0000      -4.131591      -112.4263
  30   1.0000      -2.653396       -72.2026
  31   1.0000      -2.653303       -72.2000
  32   1.0000      -2.652701       -72.1837
  33   1.0000      -1.369309       -37.2608
  34   1.0000      -1.172244       -31.8984
  35   1.0000      -1.083200       -29.4754
  36   1.0000      -1.039680       -28.2911
  37   1.0000      -1.033718       -28.1289
  38   1.0000      -1.022699       -27.8291
  39   1.0000      -1.021187       -27.7879
  40   1.0000      -1.005691       -27.3662
  41   1.0000      -0.979084       -26.6422
  42   1.0000      -0.928158       -25.2565
  43   1.0000      -0.794038       -21.6069
  44   1.0000      -0.765738       -20.8368
  45   1.0000      -0.696575       -18.9548
  46   1.0000      -0.692171       -18.8349
  47   1.0000      -0.674749       -18.3608
  48   1.0000      -0.649511       -17.6741
  49   1.0000      -0.638488       -17.3741
  50   1.0000      -0.625460       -17.0196
  51   1.0000      -0.598678       -16.2909
  52   1.0000      -0.592844       -16.1321
  53   1.0000      -0.589836       -16.0503
  54   1.0000      -0.583007       -15.8644
  55   1.0000      -0.573692       -15.6110
  56   1.0000      -0.563070       -15.3219
  57   1.0000      -0.554062       -15.0768
  58   1.0000      -0.544588       -14.8190
  59   1.0000      -0.534501       -14.5445
  60   1.0000      -0.528082       -14.3699
  61   1.0000      -0.503866       -13.7109
  62   1.0000      -0.475848       -12.9485
  63   1.0000      -0.467324       -12.7165
  64   1.0000      -0.462172       -12.5763
  65   1.0000      -0.437936       -11.9168
  66   1.0000      -0.435114       -11.8400
  67   1.0000      -0.433428       -11.7942
  68   1.0000      -0.422950       -11.5091
  69   1.0000      -0.412678       -11.2295
  70   1.0000      -0.401006       -10.9119
  71   1.0000      -0.383266       -10.4292
  72   0.0000       0.008726         0.2375
  73   0.0000       0.019793         0.5386
  74   0.0000       0.022174         0.6034
  75   0.0000       0.030540         0.8310
  76   0.0000       0.035980         0.9791

E(0)                                       ...  -3028.418190927
E(0)                                       ...  -3028.418190927
E(CORR)(strong-pairs)                      ...     -2.871885983
E(CORR)(weak-pairs)                        ...     -0.035814995
E(CORR)(corrected)                         ...     -2.907700978
E(TOT)                                     ...  -3031.325891906
E(CCSD(T))                                 ...  -3031.445123396
FINAL SINGLE POINT ENERGY     -3031.445123396210

DIPOLE MOMENT
-------------
                                X             Y             Z
Electronic contribution:     40.72377       3.47252       2.17577
Nuclear contribution   :    -45.29227      -3.32546      -2.66043
                        -----------------------------------------
Total Dipole Moment    :     -4.56850       0.14706      -0.48466
                        -----------------------------------------
Magnitude (a.u.)       :      4.59649
Magnitude (Debye)      :     11.68334

Rotational constants in cm-1:     0.019227     0.011658     0.010691
Rotational constants in MHz :   576.415452   349.508960   320.500026

                             ****ORCA TERMINATED NORMALLY****
TOTAL RUN TIME: 0 days 21 hours 9 minutes 20 seconds 603 msec
