                         Program Version 4.1.2  - RELEASE  -
|  1> ! aug-cc-pVTZ aug-cc-pVTZ/C DLPNO-CCSD(T1) TightSCF NormalPNO UNO MiniPrint AutoAux
|  2> %pal nproc 10 end
|  3> %maxcore 20000
|  4> %mdci
|  5>      density none
|  6> end
|  7>
|  8> * xyz 0 6
|  9>  O     -0.34108600     -0.16765300     -0.60551100
| 10>  C     -1.25167800     -1.13348400     -0.44474100
| 11>  C     -2.60404900     -0.42612700      0.50958500
| 12>  C     -2.60816900      0.86627600     -0.06344900
| 13>  C     -3.37242200      1.15660500     -1.30522400
| 14> Fe      1.41467400      0.14457600     -0.05008600
| 15> Cl      1.76209100      2.18394800     -0.83347000
| 16>  C     -1.79742000      1.96587900      0.47300400
| 17> Cl      2.68129800     -1.45244300     -0.86895200
| 18> Cl      1.36302300      0.15507000      2.17314100
| 19>  H     -3.43933900     -1.04016400      0.16889200
| 20>  H     -2.20669200      2.94712600      0.21892300
| 21>  H     -1.58206300      1.88739300      1.53835000
| 22>  H     -0.82473500      1.88423200     -0.05086300
| 23>  H     -4.08139500      1.96802700     -1.09019400
| 24>  H     -2.69432400      1.54436100     -2.07776800
| 25>  H     -3.92543600      0.29915200     -1.68799200
| 26>  C     -2.33776400     -0.54368800      2.00822600
| 27>  H     -3.06388000      0.05982100      2.56388700
| 28>  H     -2.45391400     -1.57913800      2.33260200
| 29>  H     -1.33273300     -0.21389500      2.27918400
| 30>  C     -0.78094000     -2.32765500      0.38608500
| 31>  H     -1.58364000     -3.04928700      0.56225000
| 32>  H      0.00600200     -2.81557800     -0.20065200
| 33>  H     -0.34131300     -2.02057400      1.33473000
| 34>  C     -1.82207200     -1.59244000     -1.78830200
| 35>  H     -1.02651800     -2.15122600     -2.29217900
| 36>  H     -2.68807700     -2.25151400     -1.67400800
| 37>  H     -2.07668800     -0.75045000     -2.43217300
| 38> *
| 39>
| 40>
| 41>                          ****END OF INPUT****

CARTESIAN COORDINATES (ANGSTROEM)
---------------------------------
  O     -0.341086   -0.167653   -0.605511
  C     -1.251678   -1.133484   -0.444741
  C     -2.604049   -0.426127    0.509585
  C     -2.608169    0.866276   -0.063449
  C     -3.372422    1.156605   -1.305224
  Fe     1.414674    0.144576   -0.050086
  Cl     1.762091    2.183948   -0.833470
  C     -1.797420    1.965879    0.473004
  Cl     2.681298   -1.452443   -0.868952
  Cl     1.363023    0.155070    2.173141
  H     -3.439339   -1.040164    0.168892
  H     -2.206692    2.947126    0.218923
  H     -1.582063    1.887393    1.538350
  H     -0.824735    1.884232   -0.050863
  H     -4.081395    1.968027   -1.090194
  H     -2.694324    1.544361   -2.077768
  H     -3.925436    0.299152   -1.687992
  C     -2.337764   -0.543688    2.008226
  H     -3.063880    0.059821    2.563887
  H     -2.453914   -1.579138    2.332602
  H     -1.332733   -0.213895    2.279184
  C     -0.780940   -2.327655    0.386085
  H     -1.583640   -3.049287    0.562250
  H      0.006002   -2.815578   -0.200652
  H     -0.341313   -2.020574    1.334730
  C     -1.822072   -1.592440   -1.788302
  H     -1.026518   -2.151226   -2.292179
  H     -2.688077   -2.251514   -1.674008
  H     -2.076688   -0.750450   -2.432173

ORBITAL ENERGIES
----------------
                 SPIN UP ORBITALS
  NO   OCC          E(Eh)            E(eV)
   0   1.0000    -261.545152     -7117.0054
   1   1.0000    -104.773316     -2851.0269
   2   1.0000    -104.771485     -2850.9771
   3   1.0000    -104.769763     -2850.9302
   4   1.0000     -32.213079      -876.5625
   5   1.0000     -27.688927      -753.4540
   6   1.0000     -27.688855      -753.4521
   7   1.0000     -27.688517      -753.4429
   8   1.0000     -20.541344      -558.9584
   9   1.0000     -11.387373      -309.8662
  10   1.0000     -11.362632      -309.1929
  11   1.0000     -11.295480      -307.3656
  12   1.0000     -11.285097      -307.0831
  13   1.0000     -11.270086      -306.6746
  14   1.0000     -11.252306      -306.1908
  15   1.0000     -11.246672      -306.0375
  16   1.0000     -11.238459      -305.8140
  17   1.0000     -10.499915      -285.7172
  18   1.0000     -10.498019      -285.6656
  19   1.0000     -10.496359      -285.6204
  20   1.0000      -7.966814      -216.7880
  21   1.0000      -7.965948      -216.7645
  22   1.0000      -7.965892      -216.7629
  23   1.0000      -7.964851      -216.7346
  24   1.0000      -7.964104      -216.7143
  25   1.0000      -7.964012      -216.7118
  26   1.0000      -7.963161      -216.6886
  27   1.0000      -7.962469      -216.6698
  28   1.0000      -7.962394      -216.6678
  29   1.0000      -4.568537      -124.3162
  30   1.0000      -3.181021       -86.5600
  31   1.0000      -3.180695       -86.5511
  32   1.0000      -3.180160       -86.5366
  33   1.0000      -1.379793       -37.5461
  34   1.0000      -1.192147       -32.4400
  35   1.0000      -1.084844       -29.5201
  36   1.0000      -1.044827       -28.4312
  37   1.0000      -1.043548       -28.3964
  38   1.0000      -1.038604       -28.2619
  39   1.0000      -1.036545       -28.2058
  40   1.0000      -1.012859       -27.5613
  41   1.0000      -0.972349       -26.4590
  42   1.0000      -0.932952       -25.3869
  43   1.0000      -0.909985       -24.7620
  44   1.0000      -0.898075       -24.4379
  45   1.0000      -0.897994       -24.4357
  46   1.0000      -0.889721       -24.2105
  47   1.0000      -0.889390       -24.2015
  48   1.0000      -0.792283       -21.5591
  49   1.0000      -0.767426       -20.8827
  50   1.0000      -0.707724       -19.2581
  51   1.0000      -0.693552       -18.8725
  52   1.0000      -0.673978       -18.3399
  53   1.0000      -0.650570       -17.7029
  54   1.0000      -0.646253       -17.5854
  55   1.0000      -0.629060       -17.1176
  56   1.0000      -0.601659       -16.3720
  57   1.0000      -0.598269       -16.2797
  58   1.0000      -0.593381       -16.1467
  59   1.0000      -0.583383       -15.8747
  60   1.0000      -0.574312       -15.6278
  61   1.0000      -0.560781       -15.2596
  62   1.0000      -0.557084       -15.1590
  63   1.0000      -0.540298       -14.7022
  64   1.0000      -0.529510       -14.4087
  65   1.0000      -0.523849       -14.2547
  66   1.0000      -0.507272       -13.8036
  67   1.0000      -0.468200       -12.7404
  68   1.0000      -0.460547       -12.5321
  69   1.0000      -0.446122       -12.1396
  70   1.0000      -0.425908       -11.5896
  71   1.0000      -0.423300       -11.5186
  72   1.0000      -0.419560       -11.4168
  73   1.0000      -0.412150       -11.2152
  74   1.0000      -0.410287       -11.1645
  75   1.0000      -0.409703       -11.1486
  76   1.0000      -0.402941       -10.9646
  77   0.0000       0.004584         0.1247
  78   0.0000       0.006143         0.1672
  79   0.0000       0.018700         0.5089
  80   0.0000       0.020189         0.5494
  81   0.0000       0.029461         0.8017

                 SPIN DOWN ORBITALS
  NO   OCC          E(Eh)            E(eV)
   0   1.0000    -261.541605     -7116.9089
   1   1.0000    -104.771969     -2850.9902
   2   1.0000    -104.770146     -2850.9406
   3   1.0000    -104.768342     -2850.8915
   4   1.0000     -32.051042      -872.1532
   5   1.0000     -27.529138      -749.1059
   6   1.0000     -27.528940      -749.1005
   7   1.0000     -27.528443      -749.0870
   8   1.0000     -20.535624      -558.8027
   9   1.0000     -11.387382      -309.8664
  10   1.0000     -11.362557      -309.1909
  11   1.0000     -11.295480      -307.3656
  12   1.0000     -11.284902      -307.0778
  13   1.0000     -11.270121      -306.6756
  14   1.0000     -11.252327      -306.1914
  15   1.0000     -11.246558      -306.0344
  16   1.0000     -11.238416      -305.8128
  17   1.0000     -10.498464      -285.6777
  18   1.0000     -10.496583      -285.6265
  19   1.0000     -10.494838      -285.5791
  20   1.0000      -7.964322      -216.7202
  21   1.0000      -7.963847      -216.7073
  22   1.0000      -7.963770      -216.7052
  23   1.0000      -7.962520      -216.6712
  24   1.0000      -7.961921      -216.6549
  25   1.0000      -7.961821      -216.6522
  26   1.0000      -7.960823      -216.6250
  27   1.0000      -7.960073      -216.6046
  28   1.0000      -7.960001      -216.6027
  29   1.0000      -4.126348      -112.2836
  30   1.0000      -2.648249       -72.0625
  31   1.0000      -2.648181       -72.0607
  32   1.0000      -2.647217       -72.0344
  33   1.0000      -1.365150       -37.1476
  34   1.0000      -1.191284       -32.4165
  35   1.0000      -1.082257       -29.4497
  36   1.0000      -1.043138       -28.3852
  37   1.0000      -1.029792       -28.0221
  38   1.0000      -1.018710       -27.7205
  39   1.0000      -1.016680       -27.6653
  40   1.0000      -1.012395       -27.5487
  41   1.0000      -0.971476       -26.4352
  42   1.0000      -0.931798       -25.3555
  43   1.0000      -0.798866       -21.7383
  44   1.0000      -0.773542       -21.0491
  45   1.0000      -0.708328       -19.2746
  46   1.0000      -0.692745       -18.8506
  47   1.0000      -0.674485       -18.3537
  48   1.0000      -0.652727       -17.7616
  49   1.0000      -0.645053       -17.5528
  50   1.0000      -0.627815       -17.0837
  51   1.0000      -0.601885       -16.3781
  52   1.0000      -0.598453       -16.2847
  53   1.0000      -0.592046       -16.1104
  54   1.0000      -0.583500       -15.8779
  55   1.0000      -0.573173       -15.5968
  56   1.0000      -0.560294       -15.2464
  57   1.0000      -0.556583       -15.1454
  58   1.0000      -0.539204       -14.6725
  59   1.0000      -0.529107       -14.3977
  60   1.0000      -0.518350       -14.1050
  61   1.0000      -0.500152       -13.6098
  62   1.0000      -0.467764       -12.7285
  63   1.0000      -0.463382       -12.6093
  64   1.0000      -0.452652       -12.3173
  65   1.0000      -0.434556       -11.8249
  66   1.0000      -0.431433       -11.7399
  67   1.0000      -0.429860       -11.6971
  68   1.0000      -0.426186       -11.5971
  69   1.0000      -0.408857       -11.1256
  70   1.0000      -0.396974       -10.8022
  71   1.0000      -0.393438       -10.7060
  72   0.0000       0.004494         0.1223
  73   0.0000       0.005905         0.1607
  74   0.0000       0.018702         0.5089
  75   0.0000       0.020174         0.5490
  76   0.0000       0.029480         0.8022

E(0)                                       ...  -3028.423576870
E(0)                                       ...  -3028.423576870
E(CORR)(strong-pairs)                      ...     -2.873252157
E(CORR)(weak-pairs)                        ...     -0.036249693
E(CORR)(corrected)                         ...     -2.909501849
E(TOT)                                     ...  -3031.333078719
E(CCSD(T))                                 ...  -3031.452187489
FINAL SINGLE POINT ENERGY     -3031.452187489309

DIPOLE MOMENT
-------------
                                X             Y             Z
Electronic contribution:     40.13105       6.77254       0.64754
Nuclear contribution   :    -45.32411      -6.84674      -0.96196
                        -----------------------------------------
Total Dipole Moment    :     -5.19306      -0.07420      -0.31442
                        -----------------------------------------
Magnitude (a.u.)       :      5.20310
Magnitude (Debye)      :     13.22522

Rotational constants in cm-1:     0.019185     0.011343     0.010590
Rotational constants in MHz :   575.140257   340.061809   317.490714

                             ****ORCA TERMINATED NORMALLY****
TOTAL RUN TIME: 0 days 20 hours 35 minutes 48 seconds 201 msec
