                         Program Version 4.1.2  - RELEASE  -
|  1> ! aug-cc-pVTZ aug-cc-pVTZ/C DLPNO-CCSD(T1) TightSCF NormalPNO UNO MiniPrint AutoAux
|  2> %pal nproc 10 end
|  3> %maxcore 20000
|  4> %mdci
|  5>      density none
|  6> end
|  7>
|  8> * xyz 0 6
|  9>  O      0.27267500      0.25433300     -0.77061100
| 10>  C      1.07190100      1.21635400     -0.63315200
| 11>  C      3.18748400      0.00895800      0.27597000
| 12>  C      2.46844800     -1.02274100     -0.21594800
| 13>  C      2.59835300     -1.46113200     -1.64719000
| 14> Fe     -1.47072800     -0.11525700      0.04806700
| 15> Cl     -2.10735300     -1.98081300     -0.87696500
| 16>  C      1.58298600     -1.89878400      0.62062900
| 17> Cl     -2.57158400      1.68239300     -0.55302000
| 18> Cl     -1.23039000     -0.22349500      2.22755500
| 19>  H      3.87069500      0.51204800     -0.40774800
| 20>  H      2.12021000     -2.82808400      0.85623000
| 21>  H      1.27479900     -1.44494800      1.56255200
| 22>  H      0.68601700     -2.19386700      0.06636700
| 23>  H      2.91510700     -2.51150800     -1.68219000
| 24>  H      1.62724000     -1.41256000     -2.15519800
| 25>  H      3.33174000     -0.87102300     -2.20398100
| 26>  C      3.33227300      0.39102700      1.72388900
| 27>  H      4.22679500     -0.08458400      2.14884900
| 28>  H      3.46505000      1.47098800      1.84716500
| 29>  H      2.48036200      0.08195800      2.33482000
| 30>  C      0.98197000      2.11567600      0.55952400
| 31>  H      1.87379300      2.73043700      0.68239000
| 32>  H      0.12511500      2.78016300      0.37029200
| 33>  H      0.76313800      1.55865400      1.47090900
| 34>  C      1.77830500      1.72220300     -1.85508800
| 35>  H      1.09250600      2.45253300     -2.31030200
| 36>  H      2.70893900      2.23812100     -1.61553800
| 37>  H      1.94426500      0.92687900     -2.57995900
| 38> *
| 39>
| 40>
| 41>                          ****END OF INPUT****

CARTESIAN COORDINATES (ANGSTROEM)
---------------------------------
  O      0.272675    0.254333   -0.770611
  C      1.071901    1.216354   -0.633152
  C      3.187484    0.008958    0.275970
  C      2.468448   -1.022741   -0.215948
  C      2.598353   -1.461132   -1.647190
  Fe    -1.470728   -0.115257    0.048067
  Cl    -2.107353   -1.980813   -0.876965
  C      1.582986   -1.898784    0.620629
  Cl    -2.571584    1.682393   -0.553020
  Cl    -1.230390   -0.223495    2.227555
  H      3.870695    0.512048   -0.407748
  H      2.120210   -2.828084    0.856230
  H      1.274799   -1.444948    1.562552
  H      0.686017   -2.193867    0.066367
  H      2.915107   -2.511508   -1.682190
  H      1.627240   -1.412560   -2.155198
  H      3.331740   -0.871023   -2.203981
  C      3.332273    0.391027    1.723889
  H      4.226795   -0.084584    2.148849
  H      3.465050    1.470988    1.847165
  H      2.480362    0.081958    2.334820
  C      0.981970    2.115676    0.559524
  H      1.873793    2.730437    0.682390
  H      0.125115    2.780163    0.370292
  H      0.763138    1.558654    1.470909
  C      1.778305    1.722203   -1.855088
  H      1.092506    2.452533   -2.310302
  H      2.708939    2.238121   -1.615538
  H      1.944265    0.926879   -2.579959

ORBITAL ENERGIES
----------------
                 SPIN UP ORBITALS
  NO   OCC          E(Eh)            E(eV)
   0   1.0000    -261.575083     -7117.8199
   1   1.0000    -104.792570     -2851.5508
   2   1.0000    -104.790145     -2851.4848
   3   1.0000    -104.788764     -2851.4472
   4   1.0000     -32.242778      -877.3706
   5   1.0000     -27.719243      -754.2789
   6   1.0000     -27.718129      -754.2486
   7   1.0000     -27.717963      -754.2441
   8   1.0000     -20.613680      -560.9267
   9   1.0000     -11.422410      -310.8196
  10   1.0000     -11.277285      -306.8705
  11   1.0000     -11.271628      -306.7166
  12   1.0000     -11.271507      -306.7133
  13   1.0000     -11.244730      -305.9847
  14   1.0000     -11.242085      -305.9127
  15   1.0000     -11.241335      -305.8923
  16   1.0000     -11.231716      -305.6305
  17   1.0000     -10.519273      -286.2440
  18   1.0000     -10.516815      -286.1771
  19   1.0000     -10.515381      -286.1381
  20   1.0000      -7.986106      -217.3130
  21   1.0000      -7.985354      -217.2925
  22   1.0000      -7.985303      -217.2911
  23   1.0000      -7.983708      -217.2477
  24   1.0000      -7.982907      -217.2259
  25   1.0000      -7.982836      -217.2240
  26   1.0000      -7.982168      -217.2058
  27   1.0000      -7.981505      -217.1878
  28   1.0000      -7.981456      -217.1865
  29   1.0000      -4.597677      -125.1091
  30   1.0000      -3.210817       -87.3708
  31   1.0000      -3.209092       -87.3238
  32   1.0000      -3.208947       -87.3199
  33   1.0000      -1.462071       -39.7850
  34   1.0000      -1.129360       -30.7315
  35   1.0000      -1.101063       -29.9614
  36   1.0000      -1.065871       -29.0038
  37   1.0000      -1.060298       -28.8522
  38   1.0000      -1.057916       -28.7874
  39   1.0000      -1.022781       -27.8313
  40   1.0000      -1.011075       -27.5127
  41   1.0000      -0.960414       -26.1342
  42   1.0000      -0.942111       -25.6361
  43   1.0000      -0.926661       -25.2157
  44   1.0000      -0.926531       -25.2122
  45   1.0000      -0.915733       -24.9184
  46   1.0000      -0.915433       -24.9102
  47   1.0000      -0.899155       -24.4672
  48   1.0000      -0.812359       -22.1054
  49   1.0000      -0.731412       -19.9027
  50   1.0000      -0.710993       -19.3471
  51   1.0000      -0.702348       -19.1119
  52   1.0000      -0.688532       -18.7359
  53   1.0000      -0.656944       -17.8763
  54   1.0000      -0.623654       -16.9705
  55   1.0000      -0.621417       -16.9096
  56   1.0000      -0.603083       -16.4107
  57   1.0000      -0.600648       -16.3445
  58   1.0000      -0.585573       -15.9342
  59   1.0000      -0.579613       -15.7721
  60   1.0000      -0.559955       -15.2371
  61   1.0000      -0.554782       -15.0964
  62   1.0000      -0.552487       -15.0339
  63   1.0000      -0.540250       -14.7009
  64   1.0000      -0.533894       -14.5280
  65   1.0000      -0.527606       -14.3569
  66   1.0000      -0.501929       -13.6582
  67   1.0000      -0.495261       -13.4767
  68   1.0000      -0.476929       -12.9779
  69   1.0000      -0.474828       -12.9207
  70   1.0000      -0.446080       -12.1385
  71   1.0000      -0.439870       -11.9695
  72   1.0000      -0.438407       -11.9296
  73   1.0000      -0.429785       -11.6951
  74   1.0000      -0.428349       -11.6560
  75   1.0000      -0.427817       -11.6415
  76   1.0000      -0.359947        -9.7947
  77   0.0000       0.012820         0.3489
  78   0.0000       0.023674         0.6442
  79   0.0000       0.024249         0.6598
  80   0.0000       0.030540         0.8310
  81   0.0000       0.039461         1.0738

                 SPIN DOWN ORBITALS
  NO   OCC          E(Eh)            E(eV)
   0   1.0000    -261.571508     -7117.7226
   1   1.0000    -104.791077     -2851.5102
   2   1.0000    -104.788606     -2851.4429
   3   1.0000    -104.787220     -2851.4052
   4   1.0000     -32.080792      -872.9627
   5   1.0000     -27.558725      -749.9110
   6   1.0000     -27.558637      -749.9086
   7   1.0000     -27.558507      -749.9051
   8   1.0000     -20.610168      -560.8312
   9   1.0000     -11.422283      -310.8161
  10   1.0000     -11.277181      -306.8677
  11   1.0000     -11.271625      -306.7165
  12   1.0000     -11.271573      -306.7151
  13   1.0000     -11.244604      -305.9812
  14   1.0000     -11.242097      -305.9130
  15   1.0000     -11.241323      -305.8920
  16   1.0000     -11.231724      -305.6308
  17   1.0000     -10.517679      -286.2006
  18   1.0000     -10.515170      -286.1323
  19   1.0000     -10.513740      -286.0934
  20   1.0000      -7.983597      -217.2447
  21   1.0000      -7.982863      -217.2247
  22   1.0000      -7.982815      -217.2234
  23   1.0000      -7.981035      -217.1750
  24   1.0000      -7.980390      -217.1575
  25   1.0000      -7.980290      -217.1547
  26   1.0000      -7.979732      -217.1395
  27   1.0000      -7.978848      -217.1155
  28   1.0000      -7.978767      -217.1133
  29   1.0000      -4.155565      -113.0787
  30   1.0000      -2.677120       -72.8481
  31   1.0000      -2.677069       -72.8468
  32   1.0000      -2.676651       -72.8354
  33   1.0000      -1.453349       -39.5476
  34   1.0000      -1.129023       -30.7223
  35   1.0000      -1.098719       -29.8977
  36   1.0000      -1.050334       -28.5810
  37   1.0000      -1.037836       -28.2410
  38   1.0000      -1.035480       -28.1768
  39   1.0000      -1.022196       -27.8154
  40   1.0000      -1.010459       -27.4960
  41   1.0000      -0.960250       -26.1297
  42   1.0000      -0.899359       -24.4728
  43   1.0000      -0.825130       -22.4529
  44   1.0000      -0.731468       -19.9043
  45   1.0000      -0.713245       -19.4084
  46   1.0000      -0.701520       -19.0893
  47   1.0000      -0.687771       -18.7152
  48   1.0000      -0.656892       -17.8750
  49   1.0000      -0.623493       -16.9661
  50   1.0000      -0.620982       -16.8978
  51   1.0000      -0.602853       -16.4045
  52   1.0000      -0.600623       -16.3438
  53   1.0000      -0.585279       -15.9262
  54   1.0000      -0.578835       -15.7509
  55   1.0000      -0.559035       -15.2121
  56   1.0000      -0.554392       -15.0858
  57   1.0000      -0.550524       -14.9805
  58   1.0000      -0.540263       -14.7013
  59   1.0000      -0.529220       -14.4008
  60   1.0000      -0.521317       -14.1858
  61   1.0000      -0.502930       -13.6854
  62   1.0000      -0.495078       -13.4718
  63   1.0000      -0.484298       -13.1784
  64   1.0000      -0.482456       -13.1283
  65   1.0000      -0.453253       -12.3336
  66   1.0000      -0.450152       -12.2493
  67   1.0000      -0.447408       -12.1746
  68   1.0000      -0.431123       -11.7315
  69   1.0000      -0.428931       -11.6718
  70   1.0000      -0.412925       -11.2363
  71   1.0000      -0.359197        -9.7742
  72   0.0000       0.012806         0.3485
  73   0.0000       0.023649         0.6435
  74   0.0000       0.024219         0.6590
  75   0.0000       0.030495         0.8298
  76   0.0000       0.039360         1.0710

E(0)                                       ...  -3028.457337541
E(0)                                       ...  -3028.457337541
E(CORR)(strong-pairs)                      ...     -2.868673245
E(CORR)(weak-pairs)                        ...     -0.035966459
E(CORR)(corrected)                         ...     -2.904639704
E(TOT)                                     ...  -3031.361977245
E(CCSD(T))                                 ...  -3031.480215684
FINAL SINGLE POINT ENERGY     -3031.480215683506

DIPOLE MOMENT
-------------
                                X             Y             Z
Electronic contribution:    -43.40737      -3.21655       2.21834
Nuclear contribution   :     46.81916       4.42922      -2.84477
                        -----------------------------------------
Total Dipole Moment    :      3.41179       1.21268      -0.62643
                        -----------------------------------------
Magnitude (a.u.)       :      3.67469
Magnitude (Debye)      :      9.34031

Rotational constants in cm-1:     0.019057     0.010844     0.010220
Rotational constants in MHz :   571.320237   325.099104   306.383694

                             ****ORCA TERMINATED NORMALLY****
TOTAL RUN TIME: 0 days 17 hours 34 minutes 34 seconds 52 msec
