                         Program Version 4.1.2  - RELEASE  -
|  1> ! aug-cc-pVTZ aug-cc-pVTZ/C DLPNO-CCSD(T1) TightSCF NormalPNO UNO MiniPrint AutoAux
|  2> %pal nproc 10 end
|  3> %maxcore 20000
|  4> %mdci
|  5>      density none
|  6> end
|  7>
|  8> * xyz 0 6
|  9>  O     -0.30044900     -0.32274100     -0.65713400
| 10>  C     -1.38562100     -1.18155000     -0.48399200
| 11>  C     -2.75037800     -0.16320100     -0.08037500
| 12>  C     -2.09531600      1.13320300     -0.23146400
| 13>  C     -1.97188800      1.77864500     -1.54933800
| 14> Fe      1.37229700      0.03312500      0.01811000
| 15> Cl      1.69070600      2.10165600     -0.75659500
| 16>  C     -1.58993600      1.86853700      0.93830300
| 17> Cl      2.78620200     -1.50736800     -0.64804900
| 18> Cl      1.16470100      0.07986400      2.24942100
| 19>  H     -3.45764300     -0.32139400     -0.89806100
| 20>  H     -2.46453100      2.20717900      1.51719000
| 21>  H     -1.02414200      1.20801200      1.60854900
| 22>  H     -0.96972500      2.72217300      0.66403900
| 23>  H     -2.54650400      2.71847200     -1.51087400
| 24>  H     -0.92232300      2.06704700     -1.70192400
| 25>  H     -2.33289000      1.16472600     -2.37397300
| 26>  C     -3.39454400     -0.45908500      1.26971200
| 27>  H     -4.21727500      0.23802300      1.46757400
| 28>  H     -3.81375400     -1.46800200      1.26868300
| 29>  H     -2.68524000     -0.39267200      2.09735700
| 30>  C     -1.14124200     -2.19294300      0.62387600
| 31>  H     -1.98609400     -2.87399100      0.75904300
| 32>  H     -0.26755700     -2.78448000      0.32398400
| 33>  H     -0.89633100     -1.71109700      1.57154400
| 34>  C     -1.71580200     -1.85564700     -1.80994100
| 35>  H     -0.85398200     -2.46549500     -2.10198300
| 36>  H     -2.59720000     -2.50059400     -1.72880700
| 37>  H     -1.87993500     -1.11556300     -2.59801900
| 38> *
| 39>
| 40>
| 41>                          ****END OF INPUT****

CARTESIAN COORDINATES (ANGSTROEM)
---------------------------------
  O     -0.300449   -0.322741   -0.657134
  C     -1.385621   -1.181550   -0.483992
  C     -2.750378   -0.163201   -0.080375
  C     -2.095316    1.133203   -0.231464
  C     -1.971888    1.778645   -1.549338
  Fe     1.372297    0.033125    0.018110
  Cl     1.690706    2.101656   -0.756595
  C     -1.589936    1.868537    0.938303
  Cl     2.786202   -1.507368   -0.648049
  Cl     1.164701    0.079864    2.249421
  H     -3.457643   -0.321394   -0.898061
  H     -2.464531    2.207179    1.517190
  H     -1.024142    1.208012    1.608549
  H     -0.969725    2.722173    0.664039
  H     -2.546504    2.718472   -1.510874
  H     -0.922323    2.067047   -1.701924
  H     -2.332890    1.164726   -2.373973
  C     -3.394544   -0.459085    1.269712
  H     -4.217275    0.238023    1.467574
  H     -3.813754   -1.468002    1.268683
  H     -2.685240   -0.392672    2.097357
  C     -1.141242   -2.192943    0.623876
  H     -1.986094   -2.873991    0.759043
  H     -0.267557   -2.784480    0.323984
  H     -0.896331   -1.711097    1.571544
  C     -1.715802   -1.855647   -1.809941
  H     -0.853982   -2.465495   -2.101983
  H     -2.597200   -2.500594   -1.728807
  H     -1.879935   -1.115563   -2.598019

ORBITAL ENERGIES
----------------
                 SPIN UP ORBITALS
  NO   OCC          E(Eh)            E(eV)
   0   1.0000    -261.544162     -7116.9785
   1   1.0000    -104.773988     -2851.0452
   2   1.0000    -104.773578     -2851.0340
   3   1.0000    -104.768398     -2850.8930
   4   1.0000     -32.212011      -876.5334
   5   1.0000     -27.687990      -753.4285
   6   1.0000     -27.687768      -753.4225
   7   1.0000     -27.687407      -753.4126
   8   1.0000     -20.539027      -558.8953
   9   1.0000     -11.406794      -310.3947
  10   1.0000     -11.349583      -308.8379
  11   1.0000     -11.291895      -307.2681
  12   1.0000     -11.284829      -307.0758
  13   1.0000     -11.279022      -306.9178
  14   1.0000     -11.264495      -306.5225
  15   1.0000     -11.240758      -305.8766
  16   1.0000     -11.234235      -305.6991
  17   1.0000     -10.500568      -285.7350
  18   1.0000     -10.500066      -285.7213
  19   1.0000     -10.494929      -285.5815
  20   1.0000      -7.967470      -216.8059
  21   1.0000      -7.966920      -216.7909
  22   1.0000      -7.966565      -216.7812
  23   1.0000      -7.966536      -216.7805
  24   1.0000      -7.966135      -216.7695
  25   1.0000      -7.966032      -216.7668
  26   1.0000      -7.961715      -216.6493
  27   1.0000      -7.961058      -216.6314
  28   1.0000      -7.960961      -216.6288
  29   1.0000      -4.567532      -124.2889
  30   1.0000      -3.180062       -86.5339
  31   1.0000      -3.179701       -86.5241
  32   1.0000      -3.179242       -86.5116
  33   1.0000      -1.358206       -36.9587
  34   1.0000      -1.190086       -32.3839
  35   1.0000      -1.089422       -29.6447
  36   1.0000      -1.044250       -28.4155
  37   1.0000      -1.040403       -28.3108
  38   1.0000      -1.038948       -28.2712
  39   1.0000      -1.035473       -28.1766
  40   1.0000      -1.018335       -27.7103
  41   1.0000      -0.967853       -26.3366
  42   1.0000      -0.934635       -25.4327
  43   1.0000      -0.906134       -24.6572
  44   1.0000      -0.897287       -24.4164
  45   1.0000      -0.897097       -24.4112
  46   1.0000      -0.889572       -24.2065
  47   1.0000      -0.888886       -24.1878
  48   1.0000      -0.794952       -21.6317
  49   1.0000      -0.761560       -20.7231
  50   1.0000      -0.706403       -19.2222
  51   1.0000      -0.690737       -18.7959
  52   1.0000      -0.675821       -18.3900
  53   1.0000      -0.638757       -17.3815
  54   1.0000      -0.633038       -17.2258
  55   1.0000      -0.629365       -17.1259
  56   1.0000      -0.602794       -16.4029
  57   1.0000      -0.601337       -16.3632
  58   1.0000      -0.595428       -16.2024
  59   1.0000      -0.582432       -15.8488
  60   1.0000      -0.579467       -15.7681
  61   1.0000      -0.557132       -15.1603
  62   1.0000      -0.553098       -15.0506
  63   1.0000      -0.540131       -14.6977
  64   1.0000      -0.529092       -14.3973
  65   1.0000      -0.525593       -14.3021
  66   1.0000      -0.504078       -13.7167
  67   1.0000      -0.469580       -12.7779
  68   1.0000      -0.461492       -12.5578
  69   1.0000      -0.445780       -12.1303
  70   1.0000      -0.427853       -11.6425
  71   1.0000      -0.424494       -11.5511
  72   1.0000      -0.420218       -11.4347
  73   1.0000      -0.413684       -11.2569
  74   1.0000      -0.412136       -11.2148
  75   1.0000      -0.409307       -11.1378
  76   1.0000      -0.408742       -11.1224
  77   0.0000       0.005219         0.1420
  78   0.0000       0.012419         0.3379
  79   0.0000       0.020264         0.5514
  80   0.0000       0.020793         0.5658
  81   0.0000       0.030233         0.8227

                 SPIN DOWN ORBITALS
  NO   OCC          E(Eh)            E(eV)
   0   1.0000    -261.540624     -7116.8822
   1   1.0000    -104.772693     -2851.0099
   2   1.0000    -104.772326     -2850.9999
   3   1.0000    -104.766974     -2850.8543
   4   1.0000     -32.049966      -872.1239
   5   1.0000     -27.528143      -749.0789
   6   1.0000     -27.527909      -749.0725
   7   1.0000     -27.527279      -749.0553
   8   1.0000     -20.532552      -558.7191
   9   1.0000     -11.406804      -310.3949
  10   1.0000     -11.349376      -308.8322
  11   1.0000     -11.291722      -307.2634
  12   1.0000     -11.284815      -307.0754
  13   1.0000     -11.279049      -306.9185
  14   1.0000     -11.264506      -306.5228
  15   1.0000     -11.240663      -305.8740
  16   1.0000     -11.234198      -305.6981
  17   1.0000     -10.499169      -285.6969
  18   1.0000     -10.498716      -285.6846
  19   1.0000     -10.493407      -285.5401
  20   1.0000      -7.964990      -216.7384
  21   1.0000      -7.964637      -216.7288
  22   1.0000      -7.964608      -216.7280
  23   1.0000      -7.964524      -216.7257
  24   1.0000      -7.964153      -216.7156
  25   1.0000      -7.964050      -216.7128
  26   1.0000      -7.959412      -216.5866
  27   1.0000      -7.958623      -216.5652
  28   1.0000      -7.958555      -216.5633
  29   1.0000      -4.125350      -112.2565
  30   1.0000      -2.647293       -72.0365
  31   1.0000      -2.647116       -72.0317
  32   1.0000      -2.646475       -72.0142
  33   1.0000      -1.341154       -36.4947
  34   1.0000      -1.188828       -32.3497
  35   1.0000      -1.086804       -29.5734
  36   1.0000      -1.038093       -28.2480
  37   1.0000      -1.030791       -28.0493
  38   1.0000      -1.021896       -27.8072
  39   1.0000      -1.017015       -27.6744
  40   1.0000      -1.015003       -27.6196
  41   1.0000      -0.967096       -26.3160
  42   1.0000      -0.932793       -25.3826
  43   1.0000      -0.799656       -21.7598
  44   1.0000      -0.768406       -20.9094
  45   1.0000      -0.706861       -19.2347
  46   1.0000      -0.690150       -18.7799
  47   1.0000      -0.676726       -18.4147
  48   1.0000      -0.641450       -17.4548
  49   1.0000      -0.632661       -17.2156
  50   1.0000      -0.627482       -17.0746
  51   1.0000      -0.602921       -16.4063
  52   1.0000      -0.600377       -16.3371
  53   1.0000      -0.595142       -16.1946
  54   1.0000      -0.581751       -15.8302
  55   1.0000      -0.578354       -15.7378
  56   1.0000      -0.556998       -15.1567
  57   1.0000      -0.551433       -15.0053
  58   1.0000      -0.539449       -14.6792
  59   1.0000      -0.527115       -14.3435
  60   1.0000      -0.519603       -14.1391
  61   1.0000      -0.498864       -13.5748
  62   1.0000      -0.468161       -12.7393
  63   1.0000      -0.462966       -12.5979
  64   1.0000      -0.453229       -12.3330
  65   1.0000      -0.435309       -11.8453
  66   1.0000      -0.434478       -11.8227
  67   1.0000      -0.430088       -11.7033
  68   1.0000      -0.428081       -11.6487
  69   1.0000      -0.409370       -11.1395
  70   1.0000      -0.398184       -10.8351
  71   1.0000      -0.397600       -10.8193
  72   0.0000       0.005201         0.1415
  73   0.0000       0.012206         0.3322
  74   0.0000       0.020250         0.5510
  75   0.0000       0.020782         0.5655
  76   0.0000       0.030266         0.8236

E(0)                                       ...  -3028.429487161
E(0)                                       ...  -3028.429487161
E(CORR)(strong-pairs)                      ...     -2.868567368
E(CORR)(weak-pairs)                        ...     -0.036105693
E(CORR)(corrected)                         ...     -2.904673060
E(TOT)                                     ...  -3031.334160221
E(CCSD(T))                                 ...  -3031.451775769
FINAL SINGLE POINT ENERGY     -3031.451775769279

DIPOLE MOMENT
-------------
                                X             Y             Z
Electronic contribution:     39.61043       4.76532       2.37934
Nuclear contribution   :    -44.55504      -4.24335      -2.81728
                        -----------------------------------------
Total Dipole Moment    :     -4.94461       0.52196      -0.43794
                        -----------------------------------------
Magnitude (a.u.)       :      4.99134
Magnitude (Debye)      :     12.68697

Rotational constants in cm-1:     0.019030     0.011900     0.010797
Rotational constants in MHz :   570.491419   356.757409   323.671445

                             ****ORCA TERMINATED NORMALLY****
TOTAL RUN TIME: 0 days 20 hours 20 minutes 53 seconds 697 msec
