                         Program Version 4.1.2  - RELEASE  -
|  1> ! aug-cc-pVTZ aug-cc-pVTZ/C DLPNO-CCSD(T1) TightSCF NormalPNO UNO MiniPrint AutoAux
|  2> %pal nproc 10 end
|  3> %maxcore 20000
|  4> %mdci
|  5>      density none
|  6> end
|  7>
|  8> * xyz 0 6
|  9>  O     -0.35541900     -0.12597100     -0.49693300
| 10>  C     -1.23584400     -1.11576900     -0.35088600
| 11>  C     -2.58969200     -0.43344400      0.61943600
| 12>  C     -2.74979000      0.79051000     -0.06441500
| 13>  C     -3.64796500      0.90421300     -1.24437800
| 14> Fe      1.44400700      0.16564500     -0.06579800
| 15> Cl      1.73565400      2.22482600     -0.80729000
| 16>  C     -1.98135200      1.98362000      0.29869600
| 17> Cl      2.60186700     -1.41400500     -1.06489000
| 18> Cl      1.59343300      0.07500300      2.14572900
| 19>  H     -3.38320900     -1.15055200      0.40198800
| 20>  H     -2.36745300      2.89927500     -0.15328800
| 21>  H     -1.83214100      2.10080600      1.37395300
| 22>  H     -0.97270000      1.79104600     -0.12377000
| 23>  H     -4.44279000      1.62024600     -0.98847900
| 24>  H     -3.11224600      1.34248600     -2.09655900
| 25>  H     -4.11014900     -0.03930200     -1.53482000
| 26>  C     -2.18675500     -0.38027100      2.09055700
| 27>  H     -2.88692300      0.25168300      2.64779000
| 28>  H     -2.22104100     -1.37766000      2.53145700
| 29>  H     -1.17748300      0.01522500      2.22674500
| 30>  C     -0.74754400     -2.29839600      0.49031800
| 31>  H     -1.54669000     -3.01852500      0.68834300
| 32>  H      0.03115200     -2.79345500     -0.10126100
| 33>  H     -0.29392400     -1.97639000      1.42698000
| 34>  C     -1.78537800     -1.59300600     -1.69616700
| 35>  H     -0.98052500     -2.15282800     -2.18369300
| 36>  H     -2.64900700     -2.25643300     -1.58713100
| 37>  H     -2.03601200     -0.75838400     -2.35134800
| 38> *
| 39>
| 40>
| 41>                          ****END OF INPUT****

CARTESIAN COORDINATES (ANGSTROEM)
---------------------------------
  O     -0.355419   -0.125971   -0.496933
  C     -1.235844   -1.115769   -0.350886
  C     -2.589692   -0.433444    0.619436
  C     -2.749790    0.790510   -0.064415
  C     -3.647965    0.904213   -1.244378
  Fe     1.444007    0.165645   -0.065798
  Cl     1.735654    2.224826   -0.807290
  C     -1.981352    1.983620    0.298696
  Cl     2.601867   -1.414005   -1.064890
  Cl     1.593433    0.075003    2.145729
  H     -3.383209   -1.150552    0.401988
  H     -2.367453    2.899275   -0.153288
  H     -1.832141    2.100806    1.373953
  H     -0.972700    1.791046   -0.123770
  H     -4.442790    1.620246   -0.988479
  H     -3.112246    1.342486   -2.096559
  H     -4.110149   -0.039302   -1.534820
  C     -2.186755   -0.380271    2.090557
  H     -2.886923    0.251683    2.647790
  H     -2.221041   -1.377660    2.531457
  H     -1.177483    0.015225    2.226745
  C     -0.747544   -2.298396    0.490318
  H     -1.546690   -3.018525    0.688343
  H      0.031152   -2.793455   -0.101261
  H     -0.293924   -1.976390    1.426980
  C     -1.785378   -1.593006   -1.696167
  H     -0.980525   -2.152828   -2.183693
  H     -2.649007   -2.256433   -1.587131
  H     -2.036012   -0.758384   -2.351348

ORBITAL ENERGIES
----------------
                 SPIN UP ORBITALS
  NO   OCC          E(Eh)            E(eV)
   0   1.0000    -261.544581     -7116.9899
   1   1.0000    -104.771913     -2850.9887
   2   1.0000    -104.770607     -2850.9532
   3   1.0000    -104.769220     -2850.9154
   4   1.0000     -32.212510      -876.5470
   5   1.0000     -27.688401      -753.4397
   6   1.0000     -27.688231      -753.4351
   7   1.0000     -27.687956      -753.4276
   8   1.0000     -20.542973      -559.0027
   9   1.0000     -11.384319      -309.7831
  10   1.0000     -11.363577      -309.2186
  11   1.0000     -11.296999      -307.4070
  12   1.0000     -11.285943      -307.1061
  13   1.0000     -11.269823      -306.6675
  14   1.0000     -11.252663      -306.2005
  15   1.0000     -11.247633      -306.0636
  16   1.0000     -11.239231      -305.8350
  17   1.0000     -10.498507      -285.6789
  18   1.0000     -10.497153      -285.6420
  19   1.0000     -10.495819      -285.6058
  20   1.0000      -7.965390      -216.7493
  21   1.0000      -7.964551      -216.7265
  22   1.0000      -7.964493      -216.7249
  23   1.0000      -7.963982      -216.7110
  24   1.0000      -7.963247      -216.6910
  25   1.0000      -7.963155      -216.6885
  26   1.0000      -7.962639      -216.6744
  27   1.0000      -7.961924      -216.6550
  28   1.0000      -7.961848      -216.6529
  29   1.0000      -4.567959      -124.3005
  30   1.0000      -3.180473       -86.5451
  31   1.0000      -3.180109       -86.5352
  32   1.0000      -3.179543       -86.5198
  33   1.0000      -1.382657       -37.6240
  34   1.0000      -1.193175       -32.4679
  35   1.0000      -1.084353       -29.5068
  36   1.0000      -1.045848       -28.4590
  37   1.0000      -1.042971       -28.3807
  38   1.0000      -1.037678       -28.2366
  39   1.0000      -1.035902       -28.1883
  40   1.0000      -1.013309       -27.5735
  41   1.0000      -0.972637       -26.4668
  42   1.0000      -0.932964       -25.3872
  43   1.0000      -0.910049       -24.7637
  44   1.0000      -0.897496       -24.4221
  45   1.0000      -0.897429       -24.4203
  46   1.0000      -0.888955       -24.1897
  47   1.0000      -0.888603       -24.1801
  48   1.0000      -0.792497       -21.5650
  49   1.0000      -0.768878       -20.9222
  50   1.0000      -0.707636       -19.2558
  51   1.0000      -0.695178       -18.9167
  52   1.0000      -0.673188       -18.3184
  53   1.0000      -0.653552       -17.7841
  54   1.0000      -0.648509       -17.6468
  55   1.0000      -0.630235       -17.1496
  56   1.0000      -0.602979       -16.4079
  57   1.0000      -0.600407       -16.3379
  58   1.0000      -0.592393       -16.1198
  59   1.0000      -0.583220       -15.8702
  60   1.0000      -0.573056       -15.5936
  61   1.0000      -0.561942       -15.2912
  62   1.0000      -0.557788       -15.1782
  63   1.0000      -0.539269       -14.6743
  64   1.0000      -0.532530       -14.4909
  65   1.0000      -0.520820       -14.1722
  66   1.0000      -0.506271       -13.7763
  67   1.0000      -0.468287       -12.7427
  68   1.0000      -0.459807       -12.5120
  69   1.0000      -0.445053       -12.1105
  70   1.0000      -0.426475       -11.6050
  71   1.0000      -0.422381       -11.4936
  72   1.0000      -0.418539       -11.3890
  73   1.0000      -0.411350       -11.1934
  74   1.0000      -0.409230       -11.1357
  75   1.0000      -0.408749       -11.1226
  76   1.0000      -0.402985       -10.9658
  77   0.0000       0.004054         0.1103
  78   0.0000       0.007485         0.2037
  79   0.0000       0.018394         0.5005
  80   0.0000       0.019736         0.5370
  81   0.0000       0.028840         0.7848

                 SPIN DOWN ORBITALS
  NO   OCC          E(Eh)            E(eV)
   0   1.0000    -261.541031     -7116.8933
   1   1.0000    -104.770549     -2850.9516
   2   1.0000    -104.769251     -2850.9163
   3   1.0000    -104.767797     -2850.8767
   4   1.0000     -32.050465      -872.1375
   5   1.0000     -27.528539      -749.0896
   6   1.0000     -27.528357      -749.0847
   7   1.0000     -27.527896      -749.0721
   8   1.0000     -20.537387      -558.8507
   9   1.0000     -11.384292      -309.7823
  10   1.0000     -11.363517      -309.2170
  11   1.0000     -11.297005      -307.4071
  12   1.0000     -11.285758      -307.1011
  13   1.0000     -11.269851      -306.6682
  14   1.0000     -11.252688      -306.2012
  15   1.0000     -11.247525      -306.0607
  16   1.0000     -11.239192      -305.8340
  17   1.0000     -10.497040      -285.6390
  18   1.0000     -10.495700      -285.6025
  19   1.0000     -10.494296      -285.5643
  20   1.0000      -7.962915      -216.6819
  21   1.0000      -7.962395      -216.6678
  22   1.0000      -7.962316      -216.6656
  23   1.0000      -7.961649      -216.6475
  24   1.0000      -7.961023      -216.6305
  25   1.0000      -7.960921      -216.6277
  26   1.0000      -7.960261      -216.6097
  27   1.0000      -7.959546      -216.5903
  28   1.0000      -7.959472      -216.5882
  29   1.0000      -4.125746      -112.2673
  30   1.0000      -2.647630       -72.0457
  31   1.0000      -2.647542       -72.0433
  32   1.0000      -2.646633       -72.0186
  33   1.0000      -1.368422       -37.2366
  34   1.0000      -1.192251       -32.4428
  35   1.0000      -1.081811       -29.4376
  36   1.0000      -1.044757       -28.4293
  37   1.0000      -1.028712       -27.9927
  38   1.0000      -1.017546       -27.6888
  39   1.0000      -1.015893       -27.6439
  40   1.0000      -1.012812       -27.5600
  41   1.0000      -0.971822       -26.4446
  42   1.0000      -0.931937       -25.3593
  43   1.0000      -0.799777       -21.7630
  44   1.0000      -0.774566       -21.0770
  45   1.0000      -0.708252       -19.2725
  46   1.0000      -0.694390       -18.8953
  47   1.0000      -0.673470       -18.3260
  48   1.0000      -0.655793       -17.8450
  49   1.0000      -0.647074       -17.6078
  50   1.0000      -0.629296       -17.1240
  51   1.0000      -0.603285       -16.4162
  52   1.0000      -0.600353       -16.3364
  53   1.0000      -0.590968       -16.0811
  54   1.0000      -0.583327       -15.8731
  55   1.0000      -0.572037       -15.5659
  56   1.0000      -0.561546       -15.2804
  57   1.0000      -0.557519       -15.1709
  58   1.0000      -0.538243       -14.6463
  59   1.0000      -0.531983       -14.4760
  60   1.0000      -0.515724       -14.0336
  61   1.0000      -0.499423       -13.5900
  62   1.0000      -0.466945       -12.7062
  63   1.0000      -0.462588       -12.5877
  64   1.0000      -0.452324       -12.3084
  65   1.0000      -0.433358       -11.7923
  66   1.0000      -0.430581       -11.7167
  67   1.0000      -0.429001       -11.6737
  68   1.0000      -0.426371       -11.6021
  69   1.0000      -0.408199       -11.1077
  70   1.0000      -0.395622       -10.7654
  71   1.0000      -0.394095       -10.7239
  72   0.0000       0.004047         0.1101
  73   0.0000       0.007285         0.1982
  74   0.0000       0.018394         0.5005
  75   0.0000       0.019719         0.5366
  76   0.0000       0.028852         0.7851

E(0)                                       ...  -3028.424098231
E(0)                                       ...  -3028.424098231
E(CORR)(strong-pairs)                      ...     -2.873850620
E(CORR)(weak-pairs)                        ...     -0.036201951
E(CORR)(corrected)                         ...     -2.910052571
E(TOT)                                     ...  -3031.334150802
E(CCSD(T))                                 ...  -3031.453474655
FINAL SINGLE POINT ENERGY     -3031.453474654602

DIPOLE MOMENT
-------------
                                X             Y             Z
Electronic contribution:     40.89440       6.94614      -0.24656
Nuclear contribution   :    -46.24623      -7.13573       0.02838
                        -----------------------------------------
Total Dipole Moment    :     -5.35182      -0.18959      -0.21818
                        -----------------------------------------
Magnitude (a.u.)       :      5.35962
Magnitude (Debye)      :     13.62308

Rotational constants in cm-1:     0.019351     0.010984     0.010372
Rotational constants in MHz :   580.113961   329.306704   310.934900

                             ****ORCA TERMINATED NORMALLY****
TOTAL RUN TIME: 0 days 23 hours 10 minutes 15 seconds 876 msec
