                         Program Version 4.1.2  - RELEASE  -
|  1> ! aug-cc-pVTZ aug-cc-pVTZ/C DLPNO-CCSD(T1) TightSCF NormalPNO UNO MiniPrint AutoAux
|  2> %pal nproc 10 end
|  3> %maxcore 20000
|  4> %mdci
|  5>      density none
|  6> end
|  7>
|  8> * xyz 0 6
|  9>  O     -0.29715400     -0.17478900     -0.45589400
| 10>  C     -1.15329800     -1.11186200     -0.19987200
| 11>  C     -2.63853800     -0.21232500      0.88980400
| 12>  C     -3.10212500      0.65777100     -0.07982000
| 13>  C     -4.22564700      0.30064200     -0.99600700
| 14> Fe      1.54737400      0.17292000     -0.10432700
| 15> Cl      1.88425300      2.09995100     -1.08743600
| 16>  C     -2.41786100      1.95792900     -0.30424800
| 17> Cl      2.53880200     -1.57153200     -0.99996000
| 18> Cl      1.84687200      0.26610200      2.07646600
| 19>  H     -3.24798600     -1.10140100      1.04911800
| 20>  H     -2.91492300      2.57460900     -1.05600200
| 21>  H     -2.30193900      2.52951700      0.62270200
| 22>  H     -1.39175500      1.73120200     -0.64783800
| 23>  H     -5.05964400      0.99043900     -0.80255700
| 24>  H     -3.94769700      0.44860800     -2.04703100
| 25>  H     -4.58629900     -0.72004900     -0.85283900
| 26>  C     -1.89791800      0.31298900      2.10598100
| 27>  H     -2.49188000      1.09129900      2.59892700
| 28>  H     -1.72695900     -0.47981500      2.83559600
| 29>  H     -0.92823900      0.74428400      1.84831500
| 30>  C     -0.74802700     -2.14379800      0.84146000
| 31>  H     -1.58055000     -2.77976800      1.15005100
| 32>  H      0.00680500     -2.77249500      0.35021400
| 33>  H     -0.27344200     -1.68618200      1.70863300
| 34>  C     -1.83278100     -1.69589600     -1.42339500
| 35>  H     -1.10124700     -2.36644000     -1.89132700
| 36>  H     -2.72177800     -2.28019200     -1.17398900
| 37>  H     -2.07853400     -0.92078700     -2.14992300
| 38> *
| 39>
| 40>
| 41>                          ****END OF INPUT****

CARTESIAN COORDINATES (ANGSTROEM)
---------------------------------
  O     -0.297154   -0.174789   -0.455894
  C     -1.153298   -1.111862   -0.199872
  C     -2.638538   -0.212325    0.889804
  C     -3.102125    0.657771   -0.079820
  C     -4.225647    0.300642   -0.996007
  Fe     1.547374    0.172920   -0.104327
  Cl     1.884253    2.099951   -1.087436
  C     -2.417861    1.957929   -0.304248
  Cl     2.538802   -1.571532   -0.999960
  Cl     1.846872    0.266102    2.076466
  H     -3.247986   -1.101401    1.049118
  H     -2.914923    2.574609   -1.056002
  H     -2.301939    2.529517    0.622702
  H     -1.391755    1.731202   -0.647838
  H     -5.059644    0.990439   -0.802557
  H     -3.947697    0.448608   -2.047031
  H     -4.586299   -0.720049   -0.852839
  C     -1.897918    0.312989    2.105981
  H     -2.491880    1.091299    2.598927
  H     -1.726959   -0.479815    2.835596
  H     -0.928239    0.744284    1.848315
  C     -0.748027   -2.143798    0.841460
  H     -1.580550   -2.779768    1.150051
  H      0.006805   -2.772495    0.350214
  H     -0.273442   -1.686182    1.708633
  C     -1.832781   -1.695896   -1.423395
  H     -1.101247   -2.366440   -1.891327
  H     -2.721778   -2.280192   -1.173989
  H     -2.078534   -0.920787   -2.149923

ORBITAL ENERGIES
----------------
                 SPIN UP ORBITALS
  NO   OCC          E(Eh)            E(eV)
   0   1.0000    -261.556065     -7117.3024
   1   1.0000    -104.778454     -2851.1667
   2   1.0000    -104.775956     -2851.0987
   3   1.0000    -104.775357     -2851.0824
   4   1.0000     -32.223903      -876.8570
   5   1.0000     -27.700123      -753.7587
   6   1.0000     -27.699385      -753.7386
   7   1.0000     -27.699246      -753.7348
   8   1.0000     -20.575972      -559.9007
   9   1.0000     -11.397436      -310.1400
  10   1.0000     -11.336902      -308.4928
  11   1.0000     -11.279514      -306.9312
  12   1.0000     -11.272083      -306.7290
  13   1.0000     -11.262259      -306.4616
  14   1.0000     -11.259350      -306.3825
  15   1.0000     -11.256383      -306.3017
  16   1.0000     -11.246191      -306.0244
  17   1.0000     -10.505113      -285.8587
  18   1.0000     -10.502591      -285.7900
  19   1.0000     -10.501955      -285.7727
  20   1.0000      -7.971967      -216.9283
  21   1.0000      -7.971170      -216.9066
  22   1.0000      -7.971143      -216.9058
  23   1.0000      -7.969460      -216.8600
  24   1.0000      -7.968767      -216.8412
  25   1.0000      -7.968688      -216.8390
  26   1.0000      -7.968606      -216.8368
  27   1.0000      -7.968084      -216.8226
  28   1.0000      -7.967992      -216.8201
  29   1.0000      -4.579135      -124.6046
  30   1.0000      -3.192069       -86.8606
  31   1.0000      -3.190860       -86.8277
  32   1.0000      -3.190564       -86.8197
  33   1.0000      -1.416391       -38.5420
  34   1.0000      -1.169197       -31.8155
  35   1.0000      -1.082822       -29.4651
  36   1.0000      -1.050452       -28.5843
  37   1.0000      -1.045286       -28.4437
  38   1.0000      -1.042813       -28.3764
  39   1.0000      -1.040006       -28.3000
  40   1.0000      -0.995822       -27.0977
  41   1.0000      -0.989303       -26.9203
  42   1.0000      -0.925372       -25.1807
  43   1.0000      -0.918116       -24.9832
  44   1.0000      -0.908390       -24.7186
  45   1.0000      -0.908352       -24.7175
  46   1.0000      -0.898559       -24.4510
  47   1.0000      -0.898164       -24.4403
  48   1.0000      -0.793783       -21.5999
  49   1.0000      -0.761500       -20.7215
  50   1.0000      -0.690768       -18.7968
  51   1.0000      -0.686555       -18.6821
  52   1.0000      -0.677387       -18.4326
  53   1.0000      -0.671834       -18.2815
  54   1.0000      -0.650672       -17.7057
  55   1.0000      -0.626099       -17.0370
  56   1.0000      -0.604167       -16.4402
  57   1.0000      -0.595299       -16.1989
  58   1.0000      -0.586519       -15.9600
  59   1.0000      -0.578244       -15.7348
  60   1.0000      -0.570081       -15.5127
  61   1.0000      -0.566593       -15.4178
  62   1.0000      -0.559686       -15.2298
  63   1.0000      -0.544127       -14.8065
  64   1.0000      -0.534540       -14.5456
  65   1.0000      -0.523624       -14.2485
  66   1.0000      -0.515645       -14.0314
  67   1.0000      -0.480845       -13.0844
  68   1.0000      -0.464225       -12.6322
  69   1.0000      -0.456179       -12.4133
  70   1.0000      -0.431766       -11.7490
  71   1.0000      -0.427484       -11.6324
  72   1.0000      -0.424814       -11.5598
  73   1.0000      -0.416592       -11.3360
  74   1.0000      -0.414869       -11.2892
  75   1.0000      -0.414252       -11.2724
  76   1.0000      -0.384894       -10.4735
  77   0.0000       0.007765         0.2113
  78   0.0000       0.019597         0.5333
  79   0.0000       0.020382         0.5546
  80   0.0000       0.024133         0.6567
  81   0.0000       0.031162         0.8480

                 SPIN DOWN ORBITALS
  NO   OCC          E(Eh)            E(eV)
   0   1.0000    -261.552503     -7117.2054
   1   1.0000    -104.777011     -2851.1274
   2   1.0000    -104.774484     -2851.0587
   3   1.0000    -104.773896     -2851.0426
   4   1.0000     -32.061830      -872.4467
   5   1.0000     -27.539798      -749.3960
   6   1.0000     -27.539729      -749.3941
   7   1.0000     -27.539424      -749.3858
   8   1.0000     -20.571810      -559.7874
   9   1.0000     -11.397416      -310.1395
  10   1.0000     -11.336099      -308.4709
  11   1.0000     -11.279621      -306.9341
  12   1.0000     -11.272441      -306.7387
  13   1.0000     -11.262157      -306.4589
  14   1.0000     -11.259448      -306.3852
  15   1.0000     -11.256401      -306.3022
  16   1.0000     -11.246173      -306.0239
  17   1.0000     -10.503567      -285.8166
  18   1.0000     -10.501015      -285.7471
  19   1.0000     -10.500396      -285.7303
  20   1.0000      -7.969468      -216.8602
  21   1.0000      -7.968822      -216.8427
  22   1.0000      -7.968761      -216.8410
  23   1.0000      -7.966919      -216.7909
  24   1.0000      -7.966373      -216.7760
  25   1.0000      -7.966274      -216.7733
  26   1.0000      -7.966179      -216.7707
  27   1.0000      -7.965612      -216.7553
  28   1.0000      -7.965514      -216.7527
  29   1.0000      -4.136816      -112.5685
  30   1.0000      -2.658503       -72.3416
  31   1.0000      -2.658439       -72.3398
  32   1.0000      -2.657832       -72.3233
  33   1.0000      -1.405735       -38.2520
  34   1.0000      -1.167545       -31.7705
  35   1.0000      -1.080364       -29.3982
  36   1.0000      -1.040923       -28.3250
  37   1.0000      -1.035019       -28.1643
  38   1.0000      -1.023352       -27.8468
  39   1.0000      -1.021545       -27.7977
  40   1.0000      -0.995754       -27.0958
  41   1.0000      -0.988716       -26.9043
  42   1.0000      -0.918991       -25.0070
  43   1.0000      -0.808226       -21.9930
  44   1.0000      -0.761869       -20.7315
  45   1.0000      -0.692554       -18.8454
  46   1.0000      -0.686350       -18.6765
  47   1.0000      -0.678577       -18.4650
  48   1.0000      -0.670664       -18.2497
  49   1.0000      -0.650490       -17.7007
  50   1.0000      -0.625323       -17.0159
  51   1.0000      -0.603786       -16.4298
  52   1.0000      -0.594847       -16.1866
  53   1.0000      -0.586442       -15.9579
  54   1.0000      -0.578213       -15.7340
  55   1.0000      -0.569653       -15.5010
  56   1.0000      -0.566455       -15.4140
  57   1.0000      -0.559583       -15.2270
  58   1.0000      -0.543396       -14.7866
  59   1.0000      -0.532247       -14.4832
  60   1.0000      -0.523280       -14.2392
  61   1.0000      -0.506814       -13.7911
  62   1.0000      -0.478692       -13.0259
  63   1.0000      -0.468759       -12.7556
  64   1.0000      -0.466795       -12.7021
  65   1.0000      -0.439683       -11.9644
  66   1.0000      -0.436643       -11.8817
  67   1.0000      -0.434549       -11.8247
  68   1.0000      -0.421743       -11.4762
  69   1.0000      -0.414561       -11.2808
  70   1.0000      -0.400024       -10.8852
  71   1.0000      -0.382850       -10.4179
  72   0.0000       0.007768         0.2114
  73   0.0000       0.019659         0.5350
  74   0.0000       0.020494         0.5577
  75   0.0000       0.024118         0.6563
  76   0.0000       0.030954         0.8423

E(0)                                       ...  -3028.433055246
E(0)                                       ...  -3028.433055246
E(CORR)(strong-pairs)                      ...     -2.874399137
E(CORR)(weak-pairs)                        ...     -0.035874852
E(CORR)(corrected)                         ...     -2.910273989
E(TOT)                                     ...  -3031.343329235
E(CCSD(T))                                 ...  -3031.463952927
FINAL SINGLE POINT ENERGY     -3031.463952926719

DIPOLE MOMENT
-------------
                                X             Y             Z
Electronic contribution:     44.45100       5.79571      -1.92046
Nuclear contribution   :    -49.37235      -6.55028       1.87855
                        -----------------------------------------
Total Dipole Moment    :     -4.92135      -0.75457      -0.04191
                        -----------------------------------------
Magnitude (a.u.)       :      4.97903
Magnitude (Debye)      :     12.65570

Rotational constants in cm-1:     0.020008     0.009968     0.009551
Rotational constants in MHz :   599.815113   298.841198   286.316831

                             ****ORCA TERMINATED NORMALLY****
TOTAL RUN TIME: 0 days 18 hours 16 minutes 12 seconds 943 msec
