                         Program Version 4.1.2  - RELEASE  -
|  1> ! aug-cc-pVTZ aug-cc-pVTZ/C DLPNO-CCSD(T1) TightSCF NormalPNO UNO MiniPrint AutoAux
|  2> %pal nproc 10 end
|  3> %maxcore 20000
|  4> %mdci
|  5>      density none
|  6> end
|  7>
|  8> * xyz 0 6
|  9>  O      0.13970000      0.48622600     -0.89243300
| 10>  C      0.86853600      1.47167000     -0.65776200
| 11>  C      3.19682100      0.03601600      0.57430300
| 12>  C      2.71314600     -0.91409200     -0.24707000
| 13>  C      3.16013400     -1.00534800     -1.68331300
| 14> Fe     -1.49530800     -0.18854700      0.02014000
| 15> Cl     -2.05484600     -1.96024800     -1.10220900
| 16>  C      1.76282200     -2.00119100      0.17001700
| 17> Cl     -2.80073300      1.54942400     -0.22511800
| 18> Cl     -1.00632400     -0.55584900      2.12372700
| 19>  H      3.92809700      0.73025500      0.15638000
| 20>  H      2.25919000     -2.97817800      0.09398000
| 21>  H      1.38890100     -1.89188500      1.18783700
| 22>  H      0.90212600     -2.04591200     -0.50909900
| 23>  H      3.66637000     -1.96277000     -1.86451900
| 24>  H      2.29873500     -0.98074300     -2.36392200
| 25>  H      3.85186300     -0.20286000     -1.95733100
| 26>  C      2.94954600      0.18220500      2.05022000
| 27>  H      3.78950700     -0.23300900      2.62421300
| 28>  H      2.87113300      1.23715600      2.33780700
| 29>  H      2.03990600     -0.32383500      2.38236600
| 30>  C      0.73519300      2.25364900      0.60912500
| 31>  H      1.60006700      2.89442800      0.78622100
| 32>  H     -0.15818500      2.88618400      0.49991200
| 33>  H      0.56149600      1.59545300      1.46212500
| 34>  C      1.72410500      2.01091100     -1.75932200
| 35>  H      1.23698300      2.92665900     -2.12485900
| 36>  H      2.71275800      2.29168400     -1.39052500
| 37>  H      1.80199700      1.30030600     -2.58075000
| 38> *
| 39>
| 40>
| 41>                          ****END OF INPUT****

CARTESIAN COORDINATES (ANGSTROEM)
---------------------------------
  O      0.139700    0.486226   -0.892433
  C      0.868536    1.471670   -0.657762
  C      3.196821    0.036016    0.574303
  C      2.713146   -0.914092   -0.247070
  C      3.160134   -1.005348   -1.683313
  Fe    -1.495308   -0.188547    0.020140
  Cl    -2.054846   -1.960248   -1.102209
  C      1.762822   -2.001191    0.170017
  Cl    -2.800733    1.549424   -0.225118
  Cl    -1.006324   -0.555849    2.123727
  H      3.928097    0.730255    0.156380
  H      2.259190   -2.978178    0.093980
  H      1.388901   -1.891885    1.187837
  H      0.902126   -2.045912   -0.509099
  H      3.666370   -1.962770   -1.864519
  H      2.298735   -0.980743   -2.363922
  H      3.851863   -0.202860   -1.957331
  C      2.949546    0.182205    2.050220
  H      3.789507   -0.233009    2.624213
  H      2.871133    1.237156    2.337807
  H      2.039906   -0.323835    2.382366
  C      0.735193    2.253649    0.609125
  H      1.600067    2.894428    0.786221
  H     -0.158185    2.886184    0.499912
  H      0.561496    1.595453    1.462125
  C      1.724105    2.010911   -1.759322
  H      1.236983    2.926659   -2.124859
  H      2.712758    2.291684   -1.390525
  H      1.801997    1.300306   -2.580750

ORBITAL ENERGIES
----------------
                 SPIN UP ORBITALS
  NO   OCC          E(Eh)            E(eV)
   0   1.0000    -261.579623     -7117.9434
   1   1.0000    -104.796441     -2851.6561
   2   1.0000    -104.793441     -2851.5745
   3   1.0000    -104.791375     -2851.5183
   4   1.0000     -32.247273      -877.4929
   5   1.0000     -27.723842      -754.4041
   6   1.0000     -27.722561      -754.3692
   7   1.0000     -27.722359      -754.3637
   8   1.0000     -20.630563      -561.3862
   9   1.0000     -11.422442      -310.8204
  10   1.0000     -11.280406      -306.9554
  11   1.0000     -11.274527      -306.7955
  12   1.0000     -11.256056      -306.2928
  13   1.0000     -11.238646      -305.8191
  14   1.0000     -11.237513      -305.7883
  15   1.0000     -11.233130      -305.6690
  16   1.0000     -11.224677      -305.4390
  17   1.0000     -10.523189      -286.3505
  18   1.0000     -10.520150      -286.2678
  19   1.0000     -10.518033      -286.2102
  20   1.0000      -7.990006      -217.4191
  21   1.0000      -7.989282      -217.3994
  22   1.0000      -7.989222      -217.3978
  23   1.0000      -7.987037      -217.3383
  24   1.0000      -7.986244      -217.3167
  25   1.0000      -7.986193      -217.3154
  26   1.0000      -7.984811      -217.2778
  27   1.0000      -7.984167      -217.2602
  28   1.0000      -7.984125      -217.2591
  29   1.0000      -4.602004      -125.2269
  30   1.0000      -3.215193       -87.4898
  31   1.0000      -3.213320       -87.4389
  32   1.0000      -3.213196       -87.4355
  33   1.0000      -1.473387       -40.0929
  34   1.0000      -1.117121       -30.3984
  35   1.0000      -1.104146       -30.0453
  36   1.0000      -1.070085       -29.1185
  37   1.0000      -1.064227       -28.9591
  38   1.0000      -1.061373       -28.8814
  39   1.0000      -1.020868       -27.7792
  40   1.0000      -1.008048       -27.4304
  41   1.0000      -0.952248       -25.9120
  42   1.0000      -0.945622       -25.7317
  43   1.0000      -0.930830       -25.3292
  44   1.0000      -0.930670       -25.3248
  45   1.0000      -0.919676       -25.0256
  46   1.0000      -0.919063       -25.0090
  47   1.0000      -0.889716       -24.2104
  48   1.0000      -0.818681       -22.2775
  49   1.0000      -0.722416       -19.6579
  50   1.0000      -0.717378       -19.5208
  51   1.0000      -0.707177       -19.2433
  52   1.0000      -0.684224       -18.6187
  53   1.0000      -0.648189       -17.6381
  54   1.0000      -0.621359       -16.9080
  55   1.0000      -0.614905       -16.7324
  56   1.0000      -0.604145       -16.4396
  57   1.0000      -0.599966       -16.3259
  58   1.0000      -0.586636       -15.9632
  59   1.0000      -0.580491       -15.7960
  60   1.0000      -0.561447       -15.2777
  61   1.0000      -0.547306       -14.8930
  62   1.0000      -0.545725       -14.8499
  63   1.0000      -0.538388       -14.6503
  64   1.0000      -0.534772       -14.5519
  65   1.0000      -0.521443       -14.1892
  66   1.0000      -0.507607       -13.8127
  67   1.0000      -0.486913       -13.2496
  68   1.0000      -0.479745       -13.0545
  69   1.0000      -0.478519       -13.0212
  70   1.0000      -0.449715       -12.2374
  71   1.0000      -0.443115       -12.0578
  72   1.0000      -0.441268       -12.0075
  73   1.0000      -0.432720       -11.7749
  74   1.0000      -0.431759       -11.7488
  75   1.0000      -0.430464       -11.7135
  76   1.0000      -0.354297        -9.6409
  77   0.0000       0.012657         0.3444
  78   0.0000       0.024038         0.6541
  79   0.0000       0.024946         0.6788
  80   0.0000       0.031044         0.8447
  81   0.0000       0.039536         1.0758

                 SPIN DOWN ORBITALS
  NO   OCC          E(Eh)            E(eV)
   0   1.0000    -261.576031     -7117.8457
   1   1.0000    -104.794931     -2851.6150
   2   1.0000    -104.791870     -2851.5318
   3   1.0000    -104.789785     -2851.4750
   4   1.0000     -32.085310      -873.0857
   5   1.0000     -27.563279      -750.0350
   6   1.0000     -27.563120      -750.0306
   7   1.0000     -27.563056      -750.0289
   8   1.0000     -20.627270      -561.2966
   9   1.0000     -11.422389      -310.8190
  10   1.0000     -11.280302      -306.9526
  11   1.0000     -11.274520      -306.7953
  12   1.0000     -11.256095      -306.2939
  13   1.0000     -11.238597      -305.8178
  14   1.0000     -11.237508      -305.7881
  15   1.0000     -11.233133      -305.6691
  16   1.0000     -11.224684      -305.4392
  17   1.0000     -10.521578      -286.3067
  18   1.0000     -10.518474      -286.2222
  19   1.0000     -10.516347      -286.1643
  20   1.0000      -7.987513      -217.3513
  21   1.0000      -7.986726      -217.3299
  22   1.0000      -7.986691      -217.3289
  23   1.0000      -7.984345      -217.2651
  24   1.0000      -7.983661      -217.2465
  25   1.0000      -7.983568      -217.2439
  26   1.0000      -7.982347      -217.2107
  27   1.0000      -7.981410      -217.1852
  28   1.0000      -7.981329      -217.1830
  29   1.0000      -4.160020      -113.1999
  30   1.0000      -2.681552       -72.9687
  31   1.0000      -2.681507       -72.9675
  32   1.0000      -2.681112       -72.9568
  33   1.0000      -1.465452       -39.8770
  34   1.0000      -1.116812       -30.3900
  35   1.0000      -1.102034       -29.9879
  36   1.0000      -1.054184       -28.6858
  37   1.0000      -1.041529       -28.3414
  38   1.0000      -1.038306       -28.2537
  39   1.0000      -1.019825       -27.7508
  40   1.0000      -1.007912       -27.4267
  41   1.0000      -0.952105       -25.9081
  42   1.0000      -0.889771       -24.2119
  43   1.0000      -0.830815       -22.6076
  44   1.0000      -0.722616       -19.6634
  45   1.0000      -0.718628       -19.5549
  46   1.0000      -0.706483       -19.2244
  47   1.0000      -0.683695       -18.6043
  48   1.0000      -0.648154       -17.6372
  49   1.0000      -0.620744       -16.8913
  50   1.0000      -0.614832       -16.7304
  51   1.0000      -0.604055       -16.4372
  52   1.0000      -0.599911       -16.3244
  53   1.0000      -0.586326       -15.9547
  54   1.0000      -0.578956       -15.7542
  55   1.0000      -0.560636       -15.2557
  56   1.0000      -0.546133       -14.8610
  57   1.0000      -0.543932       -14.8011
  58   1.0000      -0.534844       -14.5539
  59   1.0000      -0.528013       -14.3680
  60   1.0000      -0.521288       -14.1850
  61   1.0000      -0.509571       -13.8661
  62   1.0000      -0.488899       -13.3036
  63   1.0000      -0.486140       -13.2286
  64   1.0000      -0.484777       -13.1915
  65   1.0000      -0.456596       -12.4246
  66   1.0000      -0.453484       -12.3399
  67   1.0000      -0.450283       -12.2528
  68   1.0000      -0.433811       -11.8046
  69   1.0000      -0.432015       -11.7557
  70   1.0000      -0.415664       -11.3108
  71   1.0000      -0.354025        -9.6335
  72   0.0000       0.012641         0.3440
  73   0.0000       0.024013         0.6534
  74   0.0000       0.024906         0.6777
  75   0.0000       0.030999         0.8435
  76   0.0000       0.039471         1.0741

E(0)                                       ...  -3028.476580397
E(0)                                       ...  -3028.476580397
E(CORR)(strong-pairs)                      ...     -2.863564276
E(CORR)(weak-pairs)                        ...     -0.035407258
E(CORR)(corrected)                         ...     -2.898971534
E(TOT)                                     ...  -3031.375551931
E(CCSD(T))                                 ...  -3031.492802923
FINAL SINGLE POINT ENERGY     -3031.492802923372

DIPOLE MOMENT
-------------
                                X             Y             Z
Electronic contribution:    -44.06311      -5.37066       1.79681
Nuclear contribution   :     47.07861       7.08672      -2.39983
                        -----------------------------------------
Total Dipole Moment    :      3.01550       1.71606      -0.60302
                        -----------------------------------------
Magnitude (a.u.)       :      3.52161
Magnitude (Debye)      :      8.95123

Rotational constants in cm-1:     0.018605     0.010487     0.009872
Rotational constants in MHz :   557.764725   314.407053   295.967243

                             ****ORCA TERMINATED NORMALLY****
TOTAL RUN TIME: 0 days 14 hours 39 minutes 40 seconds 195 msec
