                         Program Version 4.1.2  - RELEASE  -
|  1> ! aug-cc-pVTZ aug-cc-pVTZ/C DLPNO-CCSD(T1) TightSCF NormalPNO UNO MiniPrint AutoAux
|  2> %pal nproc 10 end
|  3> %maxcore 20000
|  4> %mdci
|  5>      density none
|  6> end
|  7>
|  8> * xyz 0 6
|  9>  O      0.18105600      0.43848600     -0.87297900
| 10>  C      0.91907500      1.42214800     -0.65229600
| 11>  C      3.16710000      0.03232800      0.54134500
| 12>  C      2.65544900     -0.93595800     -0.24192000
| 13>  C      3.07202400     -1.07880200     -1.68230800
| 14> Fe     -1.48252500     -0.17399300      0.02269500
| 15> Cl     -2.07037000     -1.95622800     -1.07011300
| 16>  C      1.70886700     -2.00210700      0.23108300
| 17> Cl     -2.74271200      1.58834500     -0.28494600
| 18> Cl     -1.04672300     -0.50540700      2.14505500
| 19>  H      3.89865400      0.70432100      0.08972000
| 20>  H      2.20921300     -2.97965700      0.20145800
| 21>  H      1.33846300     -1.84446500      1.24372500
| 22>  H      0.84713500     -2.08333500     -0.44273700
| 23>  H      3.55521000     -2.05178700     -1.84174900
| 24>  H      2.19752400     -1.05815700     -2.34595700
| 25>  H      3.77483100     -0.30021900     -1.99391100
| 26>  C      2.96362500      0.20926200      2.02099000
| 27>  H      3.80174500     -0.23119700      2.57854900
| 28>  H      2.93281600      1.26972200      2.29559700
| 29>  H      2.04496100     -0.25818800      2.38402000
| 30>  C      0.78514300      2.22981600      0.59851600
| 31>  H      1.66166000      2.85412400      0.77690500
| 32>  H     -0.08970300      2.88221200      0.45885800
| 33>  H      0.58049400      1.59509300      1.46180100
| 34>  C      1.75358900      1.95756400     -1.77270500
| 35>  H      1.22815200      2.84258900     -2.16076600
| 36>  H      2.73361300      2.28593300     -1.42159700
| 37>  H      1.84987800      1.22935900     -2.57630700
| 38> *
| 39>
| 40>
| 41>                          ****END OF INPUT****

CARTESIAN COORDINATES (ANGSTROEM)
---------------------------------
  O      0.181056    0.438486   -0.872979
  C      0.919075    1.422148   -0.652296
  C      3.167100    0.032328    0.541345
  C      2.655449   -0.935958   -0.241920
  C      3.072024   -1.078802   -1.682308
  Fe    -1.482525   -0.173993    0.022695
  Cl    -2.070370   -1.956228   -1.070113
  C      1.708867   -2.002107    0.231083
  Cl    -2.742712    1.588345   -0.284946
  Cl    -1.046723   -0.505407    2.145055
  H      3.898654    0.704321    0.089720
  H      2.209213   -2.979657    0.201458
  H      1.338463   -1.844465    1.243725
  H      0.847135   -2.083335   -0.442737
  H      3.555210   -2.051787   -1.841749
  H      2.197524   -1.058157   -2.345957
  H      3.774831   -0.300219   -1.993911
  C      2.963625    0.209262    2.020990
  H      3.801745   -0.231197    2.578549
  H      2.932816    1.269722    2.295597
  H      2.044961   -0.258188    2.384020
  C      0.785143    2.229816    0.598516
  H      1.661660    2.854124    0.776905
  H     -0.089703    2.882212    0.458858
  H      0.580494    1.595093    1.461801
  C      1.753589    1.957564   -1.772705
  H      1.228152    2.842589   -2.160766
  H      2.733613    2.285933   -1.421597
  H      1.849878    1.229359   -2.576307

ORBITAL ENERGIES
----------------
                 SPIN UP ORBITALS
  NO   OCC          E(Eh)            E(eV)
   0   1.0000    -261.579054     -7117.9279
   1   1.0000    -104.795917     -2851.6419
   2   1.0000    -104.792914     -2851.5602
   3   1.0000    -104.790980     -2851.5075
   4   1.0000     -32.246706      -877.4775
   5   1.0000     -27.723256      -754.3881
   6   1.0000     -27.722006      -754.3541
   7   1.0000     -27.721812      -754.3488
   8   1.0000     -20.627924      -561.3143
   9   1.0000     -11.422372      -310.8185
  10   1.0000     -11.279825      -306.9397
  11   1.0000     -11.273905      -306.7786
  12   1.0000     -11.258262      -306.3529
  13   1.0000     -11.239499      -305.8423
  14   1.0000     -11.238363      -305.8114
  15   1.0000     -11.234385      -305.7032
  16   1.0000     -11.225568      -305.4632
  17   1.0000     -10.522656      -286.3360
  18   1.0000     -10.519621      -286.2534
  19   1.0000     -10.517635      -286.1994
  20   1.0000      -7.989475      -217.4047
  21   1.0000      -7.988746      -217.3848
  22   1.0000      -7.988687      -217.3832
  23   1.0000      -7.986512      -217.3240
  24   1.0000      -7.985713      -217.3023
  25   1.0000      -7.985660      -217.3008
  26   1.0000      -7.984415      -217.2670
  27   1.0000      -7.983766      -217.2493
  28   1.0000      -7.983725      -217.2482
  29   1.0000      -4.601454      -125.2119
  30   1.0000      -3.214627       -87.4744
  31   1.0000      -3.212782       -87.4243
  32   1.0000      -3.212668       -87.4211
  33   1.0000      -1.471546       -40.0428
  34   1.0000      -1.119178       -30.4544
  35   1.0000      -1.103673       -30.0325
  36   1.0000      -1.069469       -29.1017
  37   1.0000      -1.063649       -28.9434
  38   1.0000      -1.060895       -28.8684
  39   1.0000      -1.020863       -27.7791
  40   1.0000      -1.008734       -27.4490
  41   1.0000      -0.953629       -25.9496
  42   1.0000      -0.945101       -25.7175
  43   1.0000      -0.930288       -25.3144
  44   1.0000      -0.930146       -25.3105
  45   1.0000      -0.919199       -25.0127
  46   1.0000      -0.918582       -24.9959
  47   1.0000      -0.891274       -24.2528
  48   1.0000      -0.817631       -22.2489
  49   1.0000      -0.723804       -19.6957
  50   1.0000      -0.716446       -19.4955
  51   1.0000      -0.706355       -19.2209
  52   1.0000      -0.684906       -18.6372
  53   1.0000      -0.649805       -17.6821
  54   1.0000      -0.621623       -16.9152
  55   1.0000      -0.616361       -16.7720
  56   1.0000      -0.603906       -16.4331
  57   1.0000      -0.599950       -16.3255
  58   1.0000      -0.586555       -15.9610
  59   1.0000      -0.580274       -15.7901
  60   1.0000      -0.561181       -15.2705
  61   1.0000      -0.547934       -14.9100
  62   1.0000      -0.546941       -14.8830
  63   1.0000      -0.537708       -14.6318
  64   1.0000      -0.535976       -14.5846
  65   1.0000      -0.522541       -14.2191
  66   1.0000      -0.506735       -13.7890
  67   1.0000      -0.488149       -13.2832
  68   1.0000      -0.479086       -13.0366
  69   1.0000      -0.478329       -13.0160
  70   1.0000      -0.449160       -12.2223
  71   1.0000      -0.442664       -12.0455
  72   1.0000      -0.440858       -11.9964
  73   1.0000      -0.432273       -11.7627
  74   1.0000      -0.431269       -11.7354
  75   1.0000      -0.430036       -11.7019
  76   1.0000      -0.355363        -9.6699
  77   0.0000       0.012729         0.3464
  78   0.0000       0.023958         0.6519
  79   0.0000       0.024819         0.6754
  80   0.0000       0.030921         0.8414
  81   0.0000       0.039532         1.0757

                 SPIN DOWN ORBITALS
  NO   OCC          E(Eh)            E(eV)
   0   1.0000    -261.575466     -7117.8303
   1   1.0000    -104.794413     -2851.6009
   2   1.0000    -104.791347     -2851.5175
   3   1.0000    -104.789398     -2851.4645
   4   1.0000     -32.084740      -873.0702
   5   1.0000     -27.562700      -750.0192
   6   1.0000     -27.562556      -750.0153
   7   1.0000     -27.562486      -750.0134
   8   1.0000     -20.624609      -561.2241
   9   1.0000     -11.422308      -310.8168
  10   1.0000     -11.279722      -306.9368
  11   1.0000     -11.273900      -306.7784
  12   1.0000     -11.258309      -306.3542
  13   1.0000     -11.239438      -305.8406
  14   1.0000     -11.238356      -305.8112
  15   1.0000     -11.234390      -305.7033
  16   1.0000     -11.225575      -305.4634
  17   1.0000     -10.521050      -286.2923
  18   1.0000     -10.517949      -286.2079
  19   1.0000     -10.515955      -286.1537
  20   1.0000      -7.986983      -217.3368
  21   1.0000      -7.986204      -217.3157
  22   1.0000      -7.986168      -217.3147
  23   1.0000      -7.983815      -217.2506
  24   1.0000      -7.983142      -217.2323
  25   1.0000      -7.983048      -217.2298
  26   1.0000      -7.981954      -217.2000
  27   1.0000      -7.981024      -217.1747
  28   1.0000      -7.980944      -217.1725
  29   1.0000      -4.159447      -113.1843
  30   1.0000      -2.680985       -72.9533
  31   1.0000      -2.680934       -72.9519
  32   1.0000      -2.680527       -72.9409
  33   1.0000      -1.463510       -39.8241
  34   1.0000      -1.118880       -30.4463
  35   1.0000      -1.101525       -29.9740
  36   1.0000      -1.053648       -28.6712
  37   1.0000      -1.041009       -28.3273
  38   1.0000      -1.037894       -28.2425
  39   1.0000      -1.019875       -27.7522
  40   1.0000      -1.008530       -27.4435
  41   1.0000      -0.953469       -25.9452
  42   1.0000      -0.891346       -24.2548
  43   1.0000      -0.829766       -22.5791
  44   1.0000      -0.723910       -19.6986
  45   1.0000      -0.717929       -19.5358
  46   1.0000      -0.705630       -19.2012
  47   1.0000      -0.684363       -18.6225
  48   1.0000      -0.649762       -17.6809
  49   1.0000      -0.621038       -16.8993
  50   1.0000      -0.616280       -16.7698
  51   1.0000      -0.603778       -16.4296
  52   1.0000      -0.599875       -16.3234
  53   1.0000      -0.586276       -15.9534
  54   1.0000      -0.578878       -15.7521
  55   1.0000      -0.560292       -15.2463
  56   1.0000      -0.547321       -14.8934
  57   1.0000      -0.544849       -14.8261
  58   1.0000      -0.536037       -14.5863
  59   1.0000      -0.527235       -14.3468
  60   1.0000      -0.522215       -14.2102
  61   1.0000      -0.508574       -13.8390
  62   1.0000      -0.488701       -13.2982
  63   1.0000      -0.486646       -13.2423
  64   1.0000      -0.484979       -13.1969
  65   1.0000      -0.456052       -12.4098
  66   1.0000      -0.453042       -12.3279
  67   1.0000      -0.449892       -12.2422
  68   1.0000      -0.433354       -11.7922
  69   1.0000      -0.431565       -11.7435
  70   1.0000      -0.415254       -11.2996
  71   1.0000      -0.355012        -9.6604
  72   0.0000       0.012713         0.3459
  73   0.0000       0.023933         0.6513
  74   0.0000       0.024778         0.6743
  75   0.0000       0.030869         0.8400
  76   0.0000       0.039457         1.0737

E(0)                                       ...  -3028.473212001
E(0)                                       ...  -3028.473212001
E(CORR)(strong-pairs)                      ...     -2.865059587
E(CORR)(weak-pairs)                        ...     -0.035363350
E(CORR)(corrected)                         ...     -2.900422936
E(TOT)                                     ...  -3031.373634937
E(CCSD(T))                                 ...  -3031.491140122
FINAL SINGLE POINT ENERGY     -3031.491140122071

DIPOLE MOMENT
-------------
                                X             Y             Z
Electronic contribution:    -43.76108      -4.90822       1.82250
Nuclear contribution   :     46.84972       6.53113      -2.43118
                        -----------------------------------------
Total Dipole Moment    :      3.08864       1.62292      -0.60868
                        -----------------------------------------
Magnitude (a.u.)       :      3.54175
Magnitude (Debye)      :      9.00243

Rotational constants in cm-1:     0.018662     0.010623     0.010006
Rotational constants in MHz :   559.474545   318.460077   299.971944

                             ****ORCA TERMINATED NORMALLY****
TOTAL RUN TIME: 0 days 16 hours 50 minutes 33 seconds 20 msec
