                         Program Version 4.1.2  - RELEASE  -
|  1> ! aug-cc-pVTZ aug-cc-pVTZ/C DLPNO-CCSD(T1) TightSCF NormalPNO UNO MiniPrint AutoAux
|  2> %pal nproc 10 end
|  3> %maxcore 20000
|  4> %mdci
|  5>      density none
|  6> end
|  7>
|  8> * xyz 0 6
|  9>  O      0.24999100      0.32143000     -0.81977600
| 10>  C      1.01786000      1.29802500     -0.64760600
| 11>  C      3.15168900      0.02737900      0.41174700
| 12>  C      2.53538800     -0.98811800     -0.22641400
| 13>  C      2.81712200     -1.29550500     -1.67153800
| 14> Fe     -1.46644100     -0.13998300      0.03635100
| 15> Cl     -2.09927200     -1.96843500     -0.95661500
| 16>  C      1.61331000     -1.96678100      0.43999100
| 17> Cl     -2.62978600      1.65278100     -0.44409100
| 18> Cl     -1.14312600     -0.34161100      2.19752100
| 19>  H      3.86848900      0.61598200     -0.16138100
| 20>  H      2.13096800     -2.92900000      0.55643900
| 21>  H      1.26956300     -1.65067300      1.42449500
| 22>  H      0.73689900     -2.16711500     -0.18661800
| 23>  H      3.20933200     -2.31651900     -1.76514900
| 24>  H      1.89234700     -1.26486100     -2.26199400
| 25>  H      3.55012200     -0.61314000     -2.11146700
| 26>  C      3.11575000      0.31680900      1.88782100
| 27>  H      3.97438900     -0.15293300      2.38696500
| 28>  H      3.18786100      1.39085400      2.08965300
| 29>  H      2.21140300     -0.05808100      2.37402700
| 30>  C      0.89567400      2.17291400      0.55937000
| 31>  H      1.78418700      2.78626600      0.71275600
| 32>  H      0.04055400      2.83876600      0.36821200
| 33>  H      0.66265100      1.59578000      1.45458400
| 34>  C      1.78698600      1.81237000     -1.82574400
| 35>  H      1.16379300      2.60370400     -2.26864700
| 36>  H      2.73707000      2.26214000     -1.53381000
| 37>  H      1.93237200      1.03789800     -2.57660700
| 38> *
| 39>
| 40>
| 41>                          ****END OF INPUT****

CARTESIAN COORDINATES (ANGSTROEM)
---------------------------------
  O      0.249991    0.321430   -0.819776
  C      1.017860    1.298025   -0.647606
  C      3.151689    0.027379    0.411747
  C      2.535388   -0.988118   -0.226414
  C      2.817122   -1.295505   -1.671538
  Fe    -1.466441   -0.139983    0.036351
  Cl    -2.099272   -1.968435   -0.956615
  C      1.613310   -1.966781    0.439991
  Cl    -2.629786    1.652781   -0.444091
  Cl    -1.143126   -0.341611    2.197521
  H      3.868489    0.615982   -0.161381
  H      2.130968   -2.929000    0.556439
  H      1.269563   -1.650673    1.424495
  H      0.736899   -2.167115   -0.186618
  H      3.209332   -2.316519   -1.765149
  H      1.892347   -1.264861   -2.261994
  H      3.550122   -0.613140   -2.111467
  C      3.115750    0.316809    1.887821
  H      3.974389   -0.152933    2.386965
  H      3.187861    1.390854    2.089653
  H      2.211403   -0.058081    2.374027
  C      0.895674    2.172914    0.559370
  H      1.784187    2.786266    0.712756
  H      0.040554    2.838766    0.368212
  H      0.662651    1.595780    1.454584
  C      1.786986    1.812370   -1.825744
  H      1.163793    2.603704   -2.268647
  H      2.737070    2.262140   -1.533810
  H      1.932372    1.037898   -2.576607

ORBITAL ENERGIES
----------------
                 SPIN UP ORBITALS
  NO   OCC          E(Eh)            E(eV)
   0   1.0000    -261.577045     -7117.8733
   1   1.0000    -104.794189     -2851.5948
   2   1.0000    -104.791432     -2851.5198
   3   1.0000    -104.789809     -2851.4757
   4   1.0000     -32.244719      -877.4234
   5   1.0000     -27.721216      -754.3326
   6   1.0000     -27.720049      -754.3009
   7   1.0000     -27.719872      -754.2961
   8   1.0000     -20.619975      -561.0980
   9   1.0000     -11.422430      -310.8201
  10   1.0000     -11.278305      -306.8983
  11   1.0000     -11.272355      -306.7364
  12   1.0000     -11.265333      -306.5453
  13   1.0000     -11.241994      -305.9102
  14   1.0000     -11.240357      -305.8657
  15   1.0000     -11.238418      -305.8129
  16   1.0000     -11.228555      -305.5445
  17   1.0000     -10.520910      -286.2885
  18   1.0000     -10.518122      -286.2127
  19   1.0000     -10.516445      -286.1670
  20   1.0000      -7.987738      -217.3574
  21   1.0000      -7.986995      -217.3372
  22   1.0000      -7.986939      -217.3356
  23   1.0000      -7.985018      -217.2834
  24   1.0000      -7.984212      -217.2615
  25   1.0000      -7.984151      -217.2598
  26   1.0000      -7.983229      -217.2347
  27   1.0000      -7.982571      -217.2168
  28   1.0000      -7.982528      -217.2156
  29   1.0000      -4.599539      -125.1598
  30   1.0000      -3.212680       -87.4215
  31   1.0000      -3.210916       -87.3735
  32   1.0000      -3.210794       -87.3701
  33   1.0000      -1.466172       -39.8966
  34   1.0000      -1.124892       -30.6099
  35   1.0000      -1.102331       -29.9959
  36   1.0000      -1.067568       -29.0500
  37   1.0000      -1.061883       -28.8953
  38   1.0000      -1.059366       -28.8268
  39   1.0000      -1.021582       -27.7986
  40   1.0000      -1.010149       -27.4876
  41   1.0000      -0.957408       -26.0524
  42   1.0000      -0.943465       -25.6730
  43   1.0000      -0.928437       -25.2641
  44   1.0000      -0.928319       -25.2608
  45   1.0000      -0.917481       -24.9659
  46   1.0000      -0.916966       -24.9519
  47   1.0000      -0.895685       -24.3728
  48   1.0000      -0.814605       -22.1665
  49   1.0000      -0.728013       -19.8102
  50   1.0000      -0.713409       -19.4128
  51   1.0000      -0.704009       -19.1571
  52   1.0000      -0.686908       -18.6917
  53   1.0000      -0.654026       -17.7969
  54   1.0000      -0.622014       -16.9259
  55   1.0000      -0.620382       -16.8815
  56   1.0000      -0.603472       -16.4213
  57   1.0000      -0.600088       -16.3292
  58   1.0000      -0.586133       -15.9495
  59   1.0000      -0.579443       -15.7674
  60   1.0000      -0.560640       -15.2558
  61   1.0000      -0.550875       -14.9901
  62   1.0000      -0.550056       -14.9678
  63   1.0000      -0.538736       -14.6597
  64   1.0000      -0.535565       -14.5735
  65   1.0000      -0.525550       -14.3009
  66   1.0000      -0.504100       -13.7173
  67   1.0000      -0.491978       -13.3874
  68   1.0000      -0.477613       -12.9965
  69   1.0000      -0.476909       -12.9773
  70   1.0000      -0.447472       -12.1763
  71   1.0000      -0.441229       -12.0065
  72   1.0000      -0.439571       -11.9613
  73   1.0000      -0.430954       -11.7268
  74   1.0000      -0.429768       -11.6946
  75   1.0000      -0.428832       -11.6691
  76   1.0000      -0.357876        -9.7383
  77   0.0000       0.012834         0.3492
  78   0.0000       0.023768         0.6468
  79   0.0000       0.024519         0.6672
  80   0.0000       0.030695         0.8352
  81   0.0000       0.039469         1.0740

                 SPIN DOWN ORBITALS
  NO   OCC          E(Eh)            E(eV)
   0   1.0000    -261.573465     -7117.7758
   1   1.0000    -104.792695     -2851.5542
   2   1.0000    -104.789879     -2851.4776
   3   1.0000    -104.788247     -2851.4332
   4   1.0000     -32.082739      -873.0157
   5   1.0000     -27.560676      -749.9641
   6   1.0000     -27.560574      -749.9613
   7   1.0000     -27.560475      -749.9587
   8   1.0000     -20.616557      -561.0050
   9   1.0000     -11.422335      -310.8175
  10   1.0000     -11.278201      -306.8955
  11   1.0000     -11.272351      -306.7363
  12   1.0000     -11.265390      -306.5469
  13   1.0000     -11.241899      -305.9076
  14   1.0000     -11.240348      -305.8654
  15   1.0000     -11.238427      -305.8132
  16   1.0000     -11.228563      -305.5447
  17   1.0000     -10.519315      -286.2451
  18   1.0000     -10.516464      -286.1675
  19   1.0000     -10.514787      -286.1219
  20   1.0000      -7.985239      -217.2894
  21   1.0000      -7.984489      -217.2690
  22   1.0000      -7.984445      -217.2678
  23   1.0000      -7.982327      -217.2102
  24   1.0000      -7.981674      -217.1924
  25   1.0000      -7.981577      -217.1897
  26   1.0000      -7.980782      -217.1681
  27   1.0000      -7.979876      -217.1435
  28   1.0000      -7.979797      -217.1413
  29   1.0000      -4.157469      -113.1305
  30   1.0000      -2.679020       -72.8998
  31   1.0000      -2.678959       -72.8982
  32   1.0000      -2.678538       -72.8867
  33   1.0000      -1.457768       -39.6679
  34   1.0000      -1.124585       -30.6015
  35   1.0000      -1.100079       -29.9347
  36   1.0000      -1.051941       -28.6248
  37   1.0000      -1.039381       -28.2830
  38   1.0000      -1.036641       -28.2084
  39   1.0000      -1.020818       -27.7779
  40   1.0000      -1.009704       -27.4754
  41   1.0000      -0.957229       -26.0475
  42   1.0000      -0.895822       -24.3766
  43   1.0000      -0.826935       -22.5020
  44   1.0000      -0.728081       -19.8121
  45   1.0000      -0.715340       -19.4654
  46   1.0000      -0.703200       -19.1350
  47   1.0000      -0.686271       -18.6744
  48   1.0000      -0.653969       -17.7954
  49   1.0000      -0.621443       -16.9103
  50   1.0000      -0.620327       -16.8800
  51   1.0000      -0.603255       -16.4154
  52   1.0000      -0.600028       -16.3276
  53   1.0000      -0.585883       -15.9427
  54   1.0000      -0.578426       -15.7398
  55   1.0000      -0.559561       -15.2264
  56   1.0000      -0.550741       -14.9864
  57   1.0000      -0.547876       -14.9085
  58   1.0000      -0.538770       -14.6607
  59   1.0000      -0.527148       -14.3444
  60   1.0000      -0.522885       -14.2284
  61   1.0000      -0.505527       -13.7561
  62   1.0000      -0.491686       -13.3795
  63   1.0000      -0.485934       -13.2229
  64   1.0000      -0.483771       -13.1641
  65   1.0000      -0.454492       -12.3674
  66   1.0000      -0.451580       -12.2881
  67   1.0000      -0.448613       -12.2074
  68   1.0000      -0.432107       -11.7582
  69   1.0000      -0.430216       -11.7068
  70   1.0000      -0.414036       -11.2665
  71   1.0000      -0.357300        -9.7226
  72   0.0000       0.012819         0.3488
  73   0.0000       0.023744         0.6461
  74   0.0000       0.024483         0.6662
  75   0.0000       0.030637         0.8337
  76   0.0000       0.039365         1.0712

E(0)                                       ...  -3028.463683677
E(0)                                       ...  -3028.463683677
E(CORR)(strong-pairs)                      ...     -2.867930345
E(CORR)(weak-pairs)                        ...     -0.035439123
E(CORR)(corrected)                         ...     -2.903369467
E(TOT)                                     ...  -3031.367053144
E(CCSD(T))                                 ...  -3031.485071593
FINAL SINGLE POINT ENERGY     -3031.485071593077

DIPOLE MOMENT
-------------
                                X             Y             Z
Electronic contribution:    -43.33506      -3.87856       2.05476
Nuclear contribution   :     46.60365       5.26090      -2.68874
                        -----------------------------------------
Total Dipole Moment    :      3.26858       1.38234      -0.63399
                        -----------------------------------------
Magnitude (a.u.)       :      3.60506
Magnitude (Debye)      :      9.16334

Rotational constants in cm-1:     0.018854     0.010829     0.010208
Rotational constants in MHz :   565.239562   324.652261   306.018855

                             ****ORCA TERMINATED NORMALLY****
TOTAL RUN TIME: 0 days 17 hours 59 minutes 9 seconds 380 msec
