                         Program Version 4.1.2  - RELEASE  -
|  1> ! aug-cc-pVTZ aug-cc-pVTZ/C DLPNO-CCSD(T1) TightSCF NormalPNO UNO MiniPrint AutoAux
|  2> %pal nproc 10 end
|  3> %maxcore 20000
|  4> %mdci
|  5>      density none
|  6> end
|  7>
|  8> * xyz 0 6
|  9>  O     -0.25350200     -0.26857400     -0.78037100
| 10>  C     -1.12718400     -1.18365600     -0.60685900
| 11>  C     -2.81382400     -0.29910000      0.59118400
| 12>  C     -2.69684600      0.89440300     -0.06096000
| 13>  C     -3.41426400      1.16647200     -1.34835600
| 14> Fe      1.46980000      0.15532900     -0.02586400
| 15> Cl      1.99755200      2.05589700     -0.96592200
| 16>  C     -1.79201600      1.98629300      0.40358300
| 17> Cl      2.69663200     -1.57018400     -0.58855700
| 18> Cl      1.21407300      0.32560000      2.15703800
| 19>  H     -3.55086100     -0.99669000      0.19618500
| 20>  H     -2.30747200      2.95353400      0.37282100
| 21>  H     -1.38570800      1.82876500      1.40202200
| 22>  H     -0.94676900      2.06414400     -0.29636700
| 23>  H     -4.06244500      2.04330300     -1.22088700
| 24>  H     -2.70356600      1.42360300     -2.14514200
| 25>  H     -4.03665200      0.32966700     -1.67281500
| 26>  C     -2.46500000     -0.49081200      2.05132100
| 27>  H     -3.18213100      0.06270300      2.67041800
| 28>  H     -2.53698400     -1.54115800      2.34114200
| 29>  H     -1.46469800     -0.13665400      2.30750100
| 30>  C     -0.83003600     -2.28200700      0.38375900
| 31>  H     -1.69762400     -2.91170700      0.58677700
| 32>  H     -0.05665200     -2.89790300     -0.09681600
| 33>  H     -0.40755400     -1.89882800      1.31195500
| 34>  C     -1.88890500     -1.59817600     -1.84427800
| 35>  H     -1.21685700     -2.27185800     -2.39305000
| 36>  H     -2.80496700     -2.14618700     -1.61740100
| 37>  H     -2.09774900     -0.74753100     -2.49078600
| 38> *
| 39>
| 40>
| 41>                          ****END OF INPUT****

CARTESIAN COORDINATES (ANGSTROEM)
---------------------------------
  O     -0.253502   -0.268574   -0.780371
  C     -1.127184   -1.183656   -0.606859
  C     -2.813824   -0.299100    0.591184
  C     -2.696846    0.894403   -0.060960
  C     -3.414264    1.166472   -1.348356
  Fe     1.469800    0.155329   -0.025864
  Cl     1.997552    2.055897   -0.965922
  C     -1.792016    1.986293    0.403583
  Cl     2.696632   -1.570184   -0.588557
  Cl     1.214073    0.325600    2.157038
  H     -3.550861   -0.996690    0.196185
  H     -2.307472    2.953534    0.372821
  H     -1.385708    1.828765    1.402022
  H     -0.946769    2.064144   -0.296367
  H     -4.062445    2.043303   -1.220887
  H     -2.703566    1.423603   -2.145142
  H     -4.036652    0.329667   -1.672815
  C     -2.465000   -0.490812    2.051321
  H     -3.182131    0.062703    2.670418
  H     -2.536984   -1.541158    2.341142
  H     -1.464698   -0.136654    2.307501
  C     -0.830036   -2.282007    0.383759
  H     -1.697624   -2.911707    0.586777
  H     -0.056652   -2.897903   -0.096816
  H     -0.407554   -1.898828    1.311955
  C     -1.888905   -1.598176   -1.844278
  H     -1.216857   -2.271858   -2.393050
  H     -2.804967   -2.146187   -1.617401
  H     -2.097749   -0.747531   -2.490786

ORBITAL ENERGIES
----------------
                 SPIN UP ORBITALS
  NO   OCC          E(Eh)            E(eV)
   0   1.0000    -261.565348     -7117.5550
   1   1.0000    -104.787276     -2851.4067
   2   1.0000    -104.783293     -2851.2984
   3   1.0000    -104.781608     -2851.2525
   4   1.0000     -32.233167      -877.1091
   5   1.0000     -27.709449      -754.0124
   6   1.0000     -27.708628      -753.9901
   7   1.0000     -27.708437      -753.9849
   8   1.0000     -20.594252      -560.3981
   9   1.0000     -11.412681      -310.5548
  10   1.0000     -11.302888      -307.5672
  11   1.0000     -11.269850      -306.6682
  12   1.0000     -11.265028      -306.5370
  13   1.0000     -11.260263      -306.4073
  14   1.0000     -11.259679      -306.3914
  15   1.0000     -11.242958      -305.9364
  16   1.0000     -11.241600      -305.8995
  17   1.0000     -10.513968      -286.0996
  18   1.0000     -10.509961      -285.9906
  19   1.0000     -10.508224      -285.9433
  20   1.0000      -7.980823      -217.1692
  21   1.0000      -7.980019      -217.1473
  22   1.0000      -7.979992      -217.1466
  23   1.0000      -7.976816      -217.0602
  24   1.0000      -7.976062      -217.0397
  25   1.0000      -7.976004      -217.0381
  26   1.0000      -7.975035      -217.0117
  27   1.0000      -7.974344      -216.9929
  28   1.0000      -7.974277      -216.9911
  29   1.0000      -4.588291      -124.8538
  30   1.0000      -3.201283       -87.1113
  31   1.0000      -3.199901       -87.0737
  32   1.0000      -3.199683       -87.0678
  33   1.0000      -1.437847       -39.1258
  34   1.0000      -1.148533       -31.2532
  35   1.0000      -1.091312       -29.6961
  36   1.0000      -1.059253       -28.8237
  37   1.0000      -1.053366       -28.6635
  38   1.0000      -1.050246       -28.5787
  39   1.0000      -1.030557       -28.0429
  40   1.0000      -1.000852       -27.2346
  41   1.0000      -0.975796       -26.5527
  42   1.0000      -0.933861       -25.4116
  43   1.0000      -0.917432       -24.9646
  44   1.0000      -0.917331       -24.9618
  45   1.0000      -0.909888       -24.7593
  46   1.0000      -0.907253       -24.6876
  47   1.0000      -0.906666       -24.6716
  48   1.0000      -0.801978       -21.8229
  49   1.0000      -0.747472       -20.3397
  50   1.0000      -0.696895       -18.9635
  51   1.0000      -0.688632       -18.7386
  52   1.0000      -0.682326       -18.5670
  53   1.0000      -0.667909       -18.1747
  54   1.0000      -0.635849       -17.3023
  55   1.0000      -0.622734       -16.9455
  56   1.0000      -0.605080       -16.4651
  57   1.0000      -0.595320       -16.1995
  58   1.0000      -0.582316       -15.8456
  59   1.0000      -0.575417       -15.6579
  60   1.0000      -0.565391       -15.3851
  61   1.0000      -0.559793       -15.2327
  62   1.0000      -0.553975       -15.0744
  63   1.0000      -0.543595       -14.7920
  64   1.0000      -0.537739       -14.6326
  65   1.0000      -0.527119       -14.3436
  66   1.0000      -0.509788       -13.8720
  67   1.0000      -0.491307       -13.3692
  68   1.0000      -0.470775       -12.8104
  69   1.0000      -0.467034       -12.7086
  70   1.0000      -0.439007       -11.9460
  71   1.0000      -0.434311       -11.8182
  72   1.0000      -0.432231       -11.7616
  73   1.0000      -0.423734       -11.5304
  74   1.0000      -0.422312       -11.4917
  75   1.0000      -0.421197       -11.4614
  76   1.0000      -0.372084       -10.1249
  77   0.0000       0.011389         0.3099
  78   0.0000       0.021624         0.5884
  79   0.0000       0.023141         0.6297
  80   0.0000       0.029317         0.7978
  81   0.0000       0.037681         1.0254

                 SPIN DOWN ORBITALS
  NO   OCC          E(Eh)            E(eV)
   0   1.0000    -261.561782     -7117.4579
   1   1.0000    -104.785834     -2851.3675
   2   1.0000    -104.781777     -2851.2571
   3   1.0000    -104.780108     -2851.2117
   4   1.0000     -32.071123      -872.6996
   5   1.0000     -27.549057      -749.6479
   6   1.0000     -27.548995      -749.6463
   7   1.0000     -27.548777      -749.6403
   8   1.0000     -20.590197      -560.2878
   9   1.0000     -11.412588      -310.5523
  10   1.0000     -11.302696      -307.5620
  11   1.0000     -11.269739      -306.6652
  12   1.0000     -11.265013      -306.5366
  13   1.0000     -11.260289      -306.4081
  14   1.0000     -11.259745      -306.3932
  15   1.0000     -11.242998      -305.9375
  16   1.0000     -11.241592      -305.8993
  17   1.0000     -10.512424      -286.0576
  18   1.0000     -10.508342      -285.9465
  19   1.0000     -10.506626      -285.8998
  20   1.0000      -7.978317      -217.1010
  21   1.0000      -7.977676      -217.0836
  22   1.0000      -7.977624      -217.0822
  23   1.0000      -7.974254      -216.9905
  24   1.0000      -7.973549      -216.9713
  25   1.0000      -7.973464      -216.9690
  26   1.0000      -7.972599      -216.9454
  27   1.0000      -7.971799      -216.9237
  28   1.0000      -7.971709      -216.9212
  29   1.0000      -4.146048      -112.8197
  30   1.0000      -2.667702       -72.5919
  31   1.0000      -2.667655       -72.5906
  32   1.0000      -2.667027       -72.5735
  33   1.0000      -1.427641       -38.8481
  34   1.0000      -1.147951       -31.2373
  35   1.0000      -1.088574       -29.6216
  36   1.0000      -1.044155       -28.4129
  37   1.0000      -1.032255       -28.0891
  38   1.0000      -1.029782       -28.0218
  39   1.0000      -1.028166       -27.9778
  40   1.0000      -1.000146       -27.2154
  41   1.0000      -0.975699       -26.5501
  42   1.0000      -0.910114       -24.7655
  43   1.0000      -0.816101       -22.2072
  44   1.0000      -0.747601       -20.3432
  45   1.0000      -0.699706       -19.0400
  46   1.0000      -0.687772       -18.7152
  47   1.0000      -0.681504       -18.5447
  48   1.0000      -0.667721       -18.1696
  49   1.0000      -0.635794       -17.3008
  50   1.0000      -0.622230       -16.9317
  51   1.0000      -0.604535       -16.4502
  52   1.0000      -0.595243       -16.1974
  53   1.0000      -0.582091       -15.8395
  54   1.0000      -0.574027       -15.6201
  55   1.0000      -0.565292       -15.3824
  56   1.0000      -0.559634       -15.2284
  57   1.0000      -0.553778       -15.0691
  58   1.0000      -0.541539       -14.7360
  59   1.0000      -0.536564       -14.6006
  60   1.0000      -0.516405       -14.0521
  61   1.0000      -0.509504       -13.8643
  62   1.0000      -0.491582       -13.3766
  63   1.0000      -0.477623       -12.9968
  64   1.0000      -0.474914       -12.9231
  65   1.0000      -0.447715       -12.1830
  66   1.0000      -0.444026       -12.0826
  67   1.0000      -0.441477       -12.0132
  68   1.0000      -0.426421       -11.6035
  69   1.0000      -0.421682       -11.4746
  70   1.0000      -0.407372       -11.0852
  71   1.0000      -0.370488       -10.0815
  72   0.0000       0.011376         0.3095
  73   0.0000       0.021600         0.5878
  74   0.0000       0.023122         0.6292
  75   0.0000       0.029117         0.7923
  76   0.0000       0.037122         1.0101

E(0)                                       ...  -3028.442979625
E(0)                                       ...  -3028.442979625
E(CORR)(strong-pairs)                      ...     -2.872301957
E(CORR)(weak-pairs)                        ...     -0.036400978
E(CORR)(corrected)                         ...     -2.908702935
E(TOT)                                     ...  -3031.351682561
E(CCSD(T))                                 ...  -3031.471204183
FINAL SINGLE POINT ENERGY     -3031.471204182536

DIPOLE MOMENT
-------------
                                X             Y             Z
Electronic contribution:     42.75253       5.36800       0.94994
Nuclear contribution   :    -46.76861      -6.36126      -1.46442
                        -----------------------------------------
Total Dipole Moment    :     -4.01608      -0.99326      -0.51448
                        -----------------------------------------
Magnitude (a.u.)       :      4.16895
Magnitude (Debye)      :     10.59662

Rotational constants in cm-1:     0.019164     0.010844     0.010211
Rotational constants in MHz :   574.513329   325.106877   306.126895

                             ****ORCA TERMINATED NORMALLY****
TOTAL RUN TIME: 0 days 17 hours 55 minutes 18 seconds 519 msec
