                         Program Version 4.1.2  - RELEASE  -
|  1> ! aug-cc-pVTZ aug-cc-pVTZ/C DLPNO-CCSD(T1) TightSCF NormalPNO UNO MiniPrint AutoAux
|  2> %pal nproc 10 end
|  3> %maxcore 20000
|  4> %mdci
|  5>      density none
|  6> end
|  7>
|  8> * xyz 0 6
|  9>  O     -0.33813400     -0.14037500     -0.64906000
| 10>  C     -1.29494000     -1.07527100     -0.54598700
| 11>  C     -2.82611600     -0.22548800      0.19114600
| 12>  C     -2.31406700      1.03479100     -0.16206700
| 13>  C     -2.51925000      1.61877600     -1.51185200
| 14> Fe      1.39264700      0.08343900      0.01344000
| 15> Cl      1.91353400      2.10164900     -0.71441900
| 16>  C     -1.55859800      1.87507900      0.79504200
| 17> Cl      2.60232600     -1.58297200     -0.75994800
| 18> Cl      1.21292100      0.02258400      2.23635500
| 19>  H     -3.60397000     -0.59509500     -0.47515500
| 20>  H     -2.30388200      2.51884500      1.29239900
| 21>  H     -1.05144200      1.30203300      1.57103200
| 22>  H     -0.83895400      2.52156100      0.28669500
| 23>  H     -2.87595800      2.65067000     -1.39870100
| 24>  H     -1.54183400      1.68297200     -2.00747500
| 25>  H     -3.22251700      1.05996800     -2.12996900
| 26>  C     -3.05089000     -0.57887400      1.65107400
| 27>  H     -3.88188900      0.01308500      2.05295000
| 28>  H     -3.31906000     -1.63242200      1.75447200
| 29>  H     -2.17335500     -0.39180400      2.27318800
| 30>  C     -0.98833700     -2.20951400      0.41339200
| 31>  H     -1.81502100     -2.91862900      0.49881000
| 32>  H     -0.12376500     -2.73384700     -0.01506800
| 33>  H     -0.69317600     -1.84904500      1.39864500
| 34>  C     -1.76532600     -1.56811400     -1.90677200
| 35>  H     -0.91595800     -2.10119900     -2.35032400
| 36>  H     -2.61062000     -2.25726300     -1.82819600
| 37>  H     -2.01648300     -0.74597500     -2.57792800
| 38> *
| 39>
| 40>
| 41>                          ****END OF INPUT****

CARTESIAN COORDINATES (ANGSTROEM)
---------------------------------
  O     -0.338134   -0.140375   -0.649060
  C     -1.294940   -1.075271   -0.545987
  C     -2.826116   -0.225488    0.191146
  C     -2.314067    1.034791   -0.162067
  C     -2.519250    1.618776   -1.511852
  Fe     1.392647    0.083439    0.013440
  Cl     1.913534    2.101649   -0.714419
  C     -1.558598    1.875079    0.795042
  Cl     2.602326   -1.582972   -0.759948
  Cl     1.212921    0.022584    2.236355
  H     -3.603970   -0.595095   -0.475155
  H     -2.303882    2.518845    1.292399
  H     -1.051442    1.302033    1.571032
  H     -0.838954    2.521561    0.286695
  H     -2.875958    2.650670   -1.398701
  H     -1.541834    1.682972   -2.007475
  H     -3.222517    1.059968   -2.129969
  C     -3.050890   -0.578874    1.651074
  H     -3.881889    0.013085    2.052950
  H     -3.319060   -1.632422    1.754472
  H     -2.173355   -0.391804    2.273188
  C     -0.988337   -2.209514    0.413392
  H     -1.815021   -2.918629    0.498810
  H     -0.123765   -2.733847   -0.015068
  H     -0.693176   -1.849045    1.398645
  C     -1.765326   -1.568114   -1.906772
  H     -0.915958   -2.101199   -2.350324
  H     -2.610620   -2.257263   -1.828196
  H     -2.016483   -0.745975   -2.577928

ORBITAL ENERGIES
----------------
                 SPIN UP ORBITALS
  NO   OCC          E(Eh)            E(eV)
   0   1.0000    -261.549046     -7117.1114
   1   1.0000    -104.776222     -2851.1060
   2   1.0000    -104.773892     -2851.0426
   3   1.0000    -104.772020     -2850.9916
   4   1.0000     -32.216948      -876.6677
   5   1.0000     -27.692830      -753.5602
   6   1.0000     -27.692679      -753.5561
   7   1.0000     -27.692418      -753.5490
   8   1.0000     -20.548610      -559.1561
   9   1.0000     -11.377440      -309.5959
  10   1.0000     -11.376583      -309.5726
  11   1.0000     -11.281920      -306.9967
  12   1.0000     -11.280961      -306.9705
  13   1.0000     -11.267066      -306.5924
  14   1.0000     -11.258528      -306.3601
  15   1.0000     -11.251149      -306.1593
  16   1.0000     -11.243041      -305.9387
  17   1.0000     -10.502796      -285.7956
  18   1.0000     -10.500428      -285.7312
  19   1.0000     -10.498582      -285.6809
  20   1.0000      -7.969692      -216.8663
  21   1.0000      -7.968815      -216.8425
  22   1.0000      -7.968772      -216.8413
  23   1.0000      -7.967249      -216.7999
  24   1.0000      -7.966524      -216.7801
  25   1.0000      -7.966439      -216.7778
  26   1.0000      -7.965407      -216.7497
  27   1.0000      -7.964684      -216.7301
  28   1.0000      -7.964608      -216.7280
  29   1.0000      -4.572364      -124.4203
  30   1.0000      -3.184899       -86.6655
  31   1.0000      -3.184482       -86.6542
  32   1.0000      -3.183965       -86.6401
  33   1.0000      -1.386886       -37.7391
  34   1.0000      -1.182823       -32.1862
  35   1.0000      -1.085068       -29.5262
  36   1.0000      -1.046788       -28.4846
  37   1.0000      -1.043715       -28.4009
  38   1.0000      -1.041213       -28.3328
  39   1.0000      -1.038906       -28.2701
  40   1.0000      -1.006109       -27.3776
  41   1.0000      -0.977864       -26.6090
  42   1.0000      -0.934300       -25.4236
  43   1.0000      -0.913355       -24.8537
  44   1.0000      -0.901931       -24.5428
  45   1.0000      -0.901802       -24.5393
  46   1.0000      -0.893369       -24.3098
  47   1.0000      -0.892954       -24.2985
  48   1.0000      -0.785929       -21.3862
  49   1.0000      -0.765911       -20.8415
  50   1.0000      -0.702110       -19.1054
  51   1.0000      -0.693146       -18.8615
  52   1.0000      -0.673526       -18.3276
  53   1.0000      -0.650661       -17.7054
  54   1.0000      -0.645599       -17.5676
  55   1.0000      -0.626693       -17.0532
  56   1.0000      -0.599798       -16.3213
  57   1.0000      -0.596052       -16.2194
  58   1.0000      -0.591692       -16.1008
  59   1.0000      -0.580349       -15.7921
  60   1.0000      -0.578174       -15.7329
  61   1.0000      -0.561190       -15.2708
  62   1.0000      -0.556642       -15.1470
  63   1.0000      -0.546667       -14.8756
  64   1.0000      -0.535150       -14.5622
  65   1.0000      -0.529631       -14.4120
  66   1.0000      -0.510349       -13.8873
  67   1.0000      -0.473886       -12.8951
  68   1.0000      -0.461316       -12.5530
  69   1.0000      -0.450910       -12.2699
  70   1.0000      -0.427130       -11.6228
  71   1.0000      -0.425163       -11.5693
  72   1.0000      -0.422836       -11.5060
  73   1.0000      -0.414485       -11.2787
  74   1.0000      -0.413355       -11.2480
  75   1.0000      -0.411906       -11.2085
  76   1.0000      -0.394923       -10.7464
  77   0.0000       0.007478         0.2035
  78   0.0000       0.018811         0.5119
  79   0.0000       0.020786         0.5656
  80   0.0000       0.024685         0.6717
  81   0.0000       0.030648         0.8340

                 SPIN DOWN ORBITALS
  NO   OCC          E(Eh)            E(eV)
   0   1.0000    -261.545502     -7117.0149
   1   1.0000    -104.774898     -2851.0699
   2   1.0000    -104.772547     -2851.0059
   3   1.0000    -104.770588     -2850.9526
   4   1.0000     -32.054894      -872.2580
   5   1.0000     -27.532964      -749.2101
   6   1.0000     -27.532814      -749.2060
   7   1.0000     -27.532312      -749.1923
   8   1.0000     -20.543036      -559.0044
   9   1.0000     -11.377429      -309.5956
  10   1.0000     -11.376529      -309.5711
  11   1.0000     -11.281672      -306.9899
  12   1.0000     -11.280957      -306.9704
  13   1.0000     -11.267094      -306.5932
  14   1.0000     -11.258553      -306.3608
  15   1.0000     -11.251042      -306.1564
  16   1.0000     -11.243005      -305.9377
  17   1.0000     -10.501368      -285.7567
  18   1.0000     -10.498987      -285.6920
  19   1.0000     -10.497048      -285.6392
  20   1.0000      -7.967218      -216.7990
  21   1.0000      -7.966768      -216.7868
  22   1.0000      -7.966685      -216.7845
  23   1.0000      -7.964957      -216.7375
  24   1.0000      -7.964303      -216.7197
  25   1.0000      -7.964211      -216.7172
  26   1.0000      -7.963001      -216.6843
  27   1.0000      -7.962294      -216.6650
  28   1.0000      -7.962219      -216.6630
  29   1.0000      -4.130094      -112.3856
  30   1.0000      -2.651890       -72.1616
  31   1.0000      -2.651850       -72.1605
  32   1.0000      -2.651065       -72.1392
  33   1.0000      -1.372554       -37.3491
  34   1.0000      -1.181754       -32.1572
  35   1.0000      -1.082422       -29.4542
  36   1.0000      -1.042456       -28.3667
  37   1.0000      -1.032787       -28.1036
  38   1.0000      -1.021517       -27.7969
  39   1.0000      -1.018736       -27.7212
  40   1.0000      -1.005774       -27.3685
  41   1.0000      -0.977081       -26.5877
  42   1.0000      -0.932508       -25.3748
  43   1.0000      -0.795598       -21.6493
  44   1.0000      -0.769149       -20.9296
  45   1.0000      -0.702459       -19.1149
  46   1.0000      -0.692248       -18.8370
  47   1.0000      -0.674860       -18.3639
  48   1.0000      -0.652436       -17.7537
  49   1.0000      -0.643781       -17.5182
  50   1.0000      -0.626314       -17.0429
  51   1.0000      -0.598866       -16.2960
  52   1.0000      -0.596005       -16.2181
  53   1.0000      -0.591696       -16.1009
  54   1.0000      -0.579567       -15.7708
  55   1.0000      -0.578092       -15.7307
  56   1.0000      -0.560916       -15.2633
  57   1.0000      -0.556186       -15.1346
  58   1.0000      -0.545938       -14.8557
  59   1.0000      -0.529735       -14.4148
  60   1.0000      -0.528724       -14.3873
  61   1.0000      -0.502738       -13.6802
  62   1.0000      -0.472203       -12.8493
  63   1.0000      -0.465336       -12.6624
  64   1.0000      -0.459734       -12.5100
  65   1.0000      -0.436458       -11.8766
  66   1.0000      -0.433278       -11.7901
  67   1.0000      -0.432091       -11.7578
  68   1.0000      -0.422902       -11.5077
  69   1.0000      -0.411820       -11.2062
  70   1.0000      -0.399400       -10.8682
  71   1.0000      -0.389353       -10.5948
  72   0.0000       0.007476         0.2034
  73   0.0000       0.018712         0.5092
  74   0.0000       0.020768         0.5651
  75   0.0000       0.024483         0.6662
  76   0.0000       0.030661         0.8343

E(0)                                       ...  -3028.423969568
E(0)                                       ...  -3028.423969568
E(CORR)(strong-pairs)                      ...     -2.871854248
E(CORR)(weak-pairs)                        ...     -0.036102161
E(CORR)(corrected)                         ...     -2.907956410
E(TOT)                                     ...  -3031.331925978
E(CCSD(T))                                 ...  -3031.450991163
FINAL SINGLE POINT ENERGY     -3031.450991162630

DIPOLE MOMENT
-------------
                                X             Y             Z
Electronic contribution:     40.03103       4.50039       2.20982
Nuclear contribution   :    -44.82091      -4.40522      -2.70407
                        -----------------------------------------
Total Dipole Moment    :     -4.78988       0.09517      -0.49425
                        -----------------------------------------
Magnitude (a.u.)       :      4.81625
Magnitude (Debye)      :     12.24194

Rotational constants in cm-1:     0.019075     0.011660     0.010823
Rotational constants in MHz :   571.846385   349.567158   324.454584

                             ****ORCA TERMINATED NORMALLY****
TOTAL RUN TIME: 0 days 20 hours 8 minutes 53 seconds 616 msec
