                         Program Version 4.1.2  - RELEASE  -
|  1> ! aug-cc-pVTZ aug-cc-pVTZ/C DLPNO-CCSD(T1) TightSCF NormalPNO UNO MiniPrint AutoAux
|  2> %pal nproc 10 end
|  3> %maxcore 20000
|  4> %mdci
|  5>      density none
|  6> end
|  7>
|  8> * xyz 0 6
|  9>  O      0.14958000      0.41888200     -0.89837400
| 10>  C      0.94407700      1.36554500     -0.69129500
| 11>  C      3.06484500      0.16175100      0.57981800
| 12>  C      2.73150400     -0.91714800     -0.15761100
| 13>  C      3.26933600     -1.11383600     -1.54929900
| 14> Fe     -1.50115900     -0.17708200      0.00614200
| 15> Cl     -2.04595000     -2.00932600     -1.02842400
| 16>  C      1.81637500     -2.01018200      0.31341900
| 17> Cl     -2.79284500      1.55283700     -0.34295800
| 18> Cl     -1.04841900     -0.45639500      2.13460900
| 19>  H      3.77372500      0.86432600      0.14009400
| 20>  H      2.34389900     -2.97317200      0.30587300
| 21>  H      1.41779600     -1.84719000      1.31448000
| 22>  H      0.96961800     -2.12048200     -0.37743600
| 23>  H      3.83969300     -2.05037800     -1.60352100
| 24>  H      2.45124200     -1.21096800     -2.27595000
| 25>  H      3.92976300     -0.30006400     -1.86236800
| 26>  C      2.77460400      0.37240500      2.04287400
| 27>  H      3.56694900     -0.08300700      2.65257000
| 28>  H      2.75810000      1.43612900      2.29918500
| 29>  H      1.82471200     -0.06486800      2.35936900
| 30>  C      0.77286000      2.26546900      0.49147600
| 31>  H      1.66015900      2.86989200      0.68185100
| 32>  H     -0.06291300      2.93662800      0.24248400
| 33>  H      0.48460200      1.70927800      1.38396200
| 34>  C      1.79715600      1.82663100     -1.83342000
| 35>  H      1.22841400      2.62257400     -2.33681800
| 36>  H      2.74180900      2.25525100     -1.49674000
| 37>  H      1.96402300      1.02434500     -2.55036200
| 38> *
| 39>
| 40>
| 41>                          ****END OF INPUT****

CARTESIAN COORDINATES (ANGSTROEM)
---------------------------------
  O      0.149580    0.418882   -0.898374
  C      0.944077    1.365545   -0.691295
  C      3.064845    0.161751    0.579818
  C      2.731504   -0.917148   -0.157611
  C      3.269336   -1.113836   -1.549299
  Fe    -1.501159   -0.177082    0.006142
  Cl    -2.045950   -2.009326   -1.028424
  C      1.816375   -2.010182    0.313419
  Cl    -2.792845    1.552837   -0.342958
  Cl    -1.048419   -0.456395    2.134609
  H      3.773725    0.864326    0.140094
  H      2.343899   -2.973172    0.305873
  H      1.417796   -1.847190    1.314480
  H      0.969618   -2.120482   -0.377436
  H      3.839693   -2.050378   -1.603521
  H      2.451242   -1.210968   -2.275950
  H      3.929763   -0.300064   -1.862368
  C      2.774604    0.372405    2.042874
  H      3.566949   -0.083007    2.652570
  H      2.758100    1.436129    2.299185
  H      1.824712   -0.064868    2.359369
  C      0.772860    2.265469    0.491476
  H      1.660159    2.869892    0.681851
  H     -0.062913    2.936628    0.242484
  H      0.484602    1.709278    1.383962
  C      1.797156    1.826631   -1.833420
  H      1.228414    2.622574   -2.336818
  H      2.741809    2.255251   -1.496740
  H      1.964023    1.024345   -2.550362

ORBITAL ENERGIES
----------------
                 SPIN UP ORBITALS
  NO   OCC          E(Eh)            E(eV)
   0   1.0000    -261.576697     -7117.8638
   1   1.0000    -104.794840     -2851.6126
   2   1.0000    -104.791490     -2851.5214
   3   1.0000    -104.789228     -2851.4599
   4   1.0000     -32.244399      -877.4147
   5   1.0000     -27.720911      -754.3243
   6   1.0000     -27.719726      -754.2921
   7   1.0000     -27.719513      -754.2863
   8   1.0000     -20.624604      -561.2240
   9   1.0000     -11.422039      -310.8095
  10   1.0000     -11.278589      -306.9060
  11   1.0000     -11.273425      -306.7655
  12   1.0000     -11.263872      -306.5055
  13   1.0000     -11.242609      -305.9269
  14   1.0000     -11.242076      -305.9124
  15   1.0000     -11.234755      -305.7132
  16   1.0000     -11.228325      -305.5382
  17   1.0000     -10.521576      -286.3066
  18   1.0000     -10.518183      -286.2143
  19   1.0000     -10.515873      -286.1515
  20   1.0000      -7.988402      -217.3755
  21   1.0000      -7.987658      -217.3552
  22   1.0000      -7.987606      -217.3538
  23   1.0000      -7.985055      -217.2844
  24   1.0000      -7.984284      -217.2634
  25   1.0000      -7.984232      -217.2620
  26   1.0000      -7.982661      -217.2192
  27   1.0000      -7.982008      -217.2015
  28   1.0000      -7.981957      -217.2001
  29   1.0000      -4.599239      -125.1517
  30   1.0000      -3.212418       -87.4143
  31   1.0000      -3.210623       -87.3655
  32   1.0000      -3.210445       -87.3607
  33   1.0000      -1.467383       -39.9295
  34   1.0000      -1.123439       -30.5703
  35   1.0000      -1.101590       -29.9758
  36   1.0000      -1.068034       -29.0627
  37   1.0000      -1.062126       -28.9019
  38   1.0000      -1.058960       -28.8158
  39   1.0000      -1.021450       -27.7951
  40   1.0000      -1.009204       -27.4618
  41   1.0000      -0.956637       -26.0314
  42   1.0000      -0.943708       -25.6796
  43   1.0000      -0.928146       -25.2561
  44   1.0000      -0.927977       -25.2515
  45   1.0000      -0.917235       -24.9592
  46   1.0000      -0.916578       -24.9414
  47   1.0000      -0.893959       -24.3259
  48   1.0000      -0.815808       -22.1993
  49   1.0000      -0.727376       -19.7929
  50   1.0000      -0.714187       -19.4340
  51   1.0000      -0.703978       -19.1562
  52   1.0000      -0.683654       -18.6032
  53   1.0000      -0.652874       -17.7656
  54   1.0000      -0.621011       -16.8986
  55   1.0000      -0.619065       -16.8456
  56   1.0000      -0.605087       -16.4653
  57   1.0000      -0.599973       -16.3261
  58   1.0000      -0.586121       -15.9492
  59   1.0000      -0.579289       -15.7633
  60   1.0000      -0.561067       -15.2674
  61   1.0000      -0.550484       -14.9794
  62   1.0000      -0.545705       -14.8494
  63   1.0000      -0.539033       -14.6678
  64   1.0000      -0.537789       -14.6340
  65   1.0000      -0.524231       -14.2651
  66   1.0000      -0.505114       -13.7448
  67   1.0000      -0.490871       -13.3573
  68   1.0000      -0.477753       -13.0003
  69   1.0000      -0.477378       -12.9901
  70   1.0000      -0.447775       -12.1846
  71   1.0000      -0.441378       -12.0105
  72   1.0000      -0.439433       -11.9576
  73   1.0000      -0.430959       -11.7270
  74   1.0000      -0.429964       -11.6999
  75   1.0000      -0.428557       -11.6616
  76   1.0000      -0.358167        -9.7462
  77   0.0000       0.012603         0.3429
  78   0.0000       0.023720         0.6455
  79   0.0000       0.024419         0.6645
  80   0.0000       0.030730         0.8362
  81   0.0000       0.039318         1.0699

                 SPIN DOWN ORBITALS
  NO   OCC          E(Eh)            E(eV)
   0   1.0000    -261.573109     -7117.7662
   1   1.0000    -104.793345     -2851.5719
   2   1.0000    -104.789927     -2851.4789
   3   1.0000    -104.787653     -2851.4170
   4   1.0000     -32.082413      -873.0068
   5   1.0000     -27.560350      -749.9552
   6   1.0000     -27.560244      -749.9524
   7   1.0000     -27.560153      -749.9499
   8   1.0000     -20.621152      -561.1301
   9   1.0000     -11.421973      -310.8077
  10   1.0000     -11.278482      -306.9031
  11   1.0000     -11.273415      -306.7652
  12   1.0000     -11.263896      -306.5062
  13   1.0000     -11.242569      -305.9258
  14   1.0000     -11.242073      -305.9123
  15   1.0000     -11.234756      -305.7133
  16   1.0000     -11.228333      -305.5385
  17   1.0000     -10.519979      -286.2632
  18   1.0000     -10.516516      -286.1689
  19   1.0000     -10.514201      -286.1059
  20   1.0000      -7.985903      -217.3075
  21   1.0000      -7.985150      -217.2870
  22   1.0000      -7.985114      -217.2860
  23   1.0000      -7.982403      -217.2122
  24   1.0000      -7.981698      -217.1930
  25   1.0000      -7.981608      -217.1906
  26   1.0000      -7.980193      -217.1521
  27   1.0000      -7.979287      -217.1274
  28   1.0000      -7.979203      -217.1252
  29   1.0000      -4.157189      -113.1229
  30   1.0000      -2.678738       -72.8922
  31   1.0000      -2.678700       -72.8911
  32   1.0000      -2.678274       -72.8795
  33   1.0000      -1.458990       -39.7011
  34   1.0000      -1.123141       -30.5622
  35   1.0000      -1.099287       -29.9131
  36   1.0000      -1.052242       -28.6330
  37   1.0000      -1.039642       -28.2901
  38   1.0000      -1.036119       -28.1942
  39   1.0000      -1.020563       -27.7709
  40   1.0000      -1.008899       -27.4535
  41   1.0000      -0.956550       -26.0291
  42   1.0000      -0.894043       -24.3282
  43   1.0000      -0.828841       -22.5539
  44   1.0000      -0.727451       -19.7949
  45   1.0000      -0.715935       -19.4816
  46   1.0000      -0.703188       -19.1347
  47   1.0000      -0.683068       -18.5872
  48   1.0000      -0.652824       -17.7642
  49   1.0000      -0.620505       -16.8848
  50   1.0000      -0.618959       -16.8427
  51   1.0000      -0.604905       -16.4603
  52   1.0000      -0.599870       -16.3233
  53   1.0000      -0.585791       -15.9402
  54   1.0000      -0.577704       -15.7201
  55   1.0000      -0.560356       -15.2481
  56   1.0000      -0.550071       -14.9682
  57   1.0000      -0.544406       -14.8140
  58   1.0000      -0.538599       -14.6560
  59   1.0000      -0.527090       -14.3428
  60   1.0000      -0.523455       -14.2439
  61   1.0000      -0.507188       -13.8013
  62   1.0000      -0.490829       -13.3561
  63   1.0000      -0.486117       -13.2279
  64   1.0000      -0.483400       -13.1540
  65   1.0000      -0.455069       -12.3830
  66   1.0000      -0.451577       -12.2880
  67   1.0000      -0.448591       -12.2068
  68   1.0000      -0.432310       -11.7638
  69   1.0000      -0.429850       -11.6968
  70   1.0000      -0.414034       -11.2664
  71   1.0000      -0.357747        -9.7348
  72   0.0000       0.012586         0.3425
  73   0.0000       0.023696         0.6448
  74   0.0000       0.024378         0.6634
  75   0.0000       0.030667         0.8345
  76   0.0000       0.039228         1.0674

E(0)                                       ...  -3028.470332511
E(0)                                       ...  -3028.470332511
E(CORR)(strong-pairs)                      ...     -2.865833029
E(CORR)(weak-pairs)                        ...     -0.035113793
E(CORR)(corrected)                         ...     -2.900946822
E(TOT)                                     ...  -3031.371279333
E(CCSD(T))                                 ...  -3031.488979625
FINAL SINGLE POINT ENERGY     -3031.488979625401

DIPOLE MOMENT
-------------
                                X             Y             Z
Electronic contribution:    -44.04068      -5.25435       1.53252
Nuclear contribution   :     47.27074       6.80102      -2.17074
                        -----------------------------------------
Total Dipole Moment    :      3.23006       1.54667      -0.63822
                        -----------------------------------------
Magnitude (a.u.)       :      3.63769
Magnitude (Debye)      :      9.24627

Rotational constants in cm-1:     0.018809     0.010546     0.009920
Rotational constants in MHz :   563.874823   316.172168   297.381288

                             ****ORCA TERMINATED NORMALLY****
TOTAL RUN TIME: 0 days 16 hours 30 minutes 25 seconds 904 msec
