                         Program Version 4.1.2  - RELEASE  -
|  1> ! aug-cc-pVTZ aug-cc-pVTZ/C DLPNO-CCSD(T1) TightSCF NormalPNO UNO MiniPrint AutoAux
|  2> %pal nproc 10 end
|  3> %maxcore 20000
|  4> %mdci
|  5>      density none
|  6> end
|  7>
|  8> * xyz 0 6
|  9>  O     -0.34424900     -0.11889600     -0.45805500
| 10>  C     -1.21914700     -1.09821500     -0.30165100
| 11>  C     -2.59615800     -0.39520700      0.71428400
| 12>  C     -2.87076300      0.74476200     -0.05700300
| 13>  C     -3.87212900      0.71524300     -1.15850800
| 14> Fe      1.47577600      0.17267800     -0.07792900
| 15> Cl      1.77608200      2.21059800     -0.85562400
| 16>  C     -2.10797100      1.98529400      0.12589500
| 17> Cl      2.55532900     -1.44086700     -1.11079300
| 18> Cl      1.71650800      0.08437700      2.12075500
| 19>  H     -3.33851800     -1.18707200      0.60518200
| 20>  H     -2.51693400      2.83224300     -0.42789100
| 21>  H     -1.94412100      2.24349000      1.17524200
| 22>  H     -1.10080000      1.74674900     -0.27840900
| 23>  H     -4.69315300      1.39199600     -0.87849400
| 24>  H     -3.45008700      1.12201300     -2.08612200
| 25>  H     -4.28943000     -0.27600700     -1.33974900
| 26>  C     -2.07519000     -0.20476500      2.13440500
| 27>  H     -2.74042800      0.46519100      2.69011600
| 28>  H     -2.04961600     -1.15755500      2.66510900
| 29>  H     -1.06777000      0.21735700      2.15063900
| 30>  C     -0.74740400     -2.26253200      0.57241300
| 31>  H     -1.55695000     -2.96109900      0.80103400
| 32>  H      0.01565800     -2.78969000     -0.01240900
| 33>  H     -0.27599500     -1.91917800      1.49247600
| 34>  C     -1.79548400     -1.58830500     -1.62766900
| 35>  H     -1.00454300     -2.16423700     -2.12000900
| 36>  H     -2.66329600     -2.24122500     -1.49412800
| 37>  H     -2.04934400     -0.75895600     -2.28871600
| 38> *
| 39>
| 40>
| 41>                          ****END OF INPUT****

CARTESIAN COORDINATES (ANGSTROEM)
---------------------------------
  O     -0.344249   -0.118896   -0.458055
  C     -1.219147   -1.098215   -0.301651
  C     -2.596158   -0.395207    0.714284
  C     -2.870763    0.744762   -0.057003
  C     -3.872129    0.715243   -1.158508
  Fe     1.475776    0.172678   -0.077929
  Cl     1.776082    2.210598   -0.855624
  C     -2.107971    1.985294    0.125895
  Cl     2.555329   -1.440867   -1.110793
  Cl     1.716508    0.084377    2.120755
  H     -3.338518   -1.187072    0.605182
  H     -2.516934    2.832243   -0.427891
  H     -1.944121    2.243490    1.175242
  H     -1.100800    1.746749   -0.278409
  H     -4.693153    1.391996   -0.878494
  H     -3.450087    1.122013   -2.086122
  H     -4.289430   -0.276007   -1.339749
  C     -2.075190   -0.204765    2.134405
  H     -2.740428    0.465191    2.690116
  H     -2.049616   -1.157555    2.665109
  H     -1.067770    0.217357    2.150639
  C     -0.747404   -2.262532    0.572413
  H     -1.556950   -2.961099    0.801034
  H      0.015658   -2.789690   -0.012409
  H     -0.275995   -1.919178    1.492476
  C     -1.795484   -1.588305   -1.627669
  H     -1.004543   -2.164237   -2.120009
  H     -2.663296   -2.241225   -1.494128
  H     -2.049344   -0.758956   -2.288716

ORBITAL ENERGIES
----------------
                 SPIN UP ORBITALS
  NO   OCC          E(Eh)            E(eV)
   0   1.0000    -261.546479     -7117.0415
   1   1.0000    -104.772734     -2851.0110
   2   1.0000    -104.770918     -2850.9616
   3   1.0000    -104.770026     -2850.9373
   4   1.0000     -32.214395      -876.5983
   5   1.0000     -27.690375      -753.4934
   6   1.0000     -27.690038      -753.4842
   7   1.0000     -27.689828      -753.4785
   8   1.0000     -20.549865      -559.1903
   9   1.0000     -11.373845      -309.4981
  10   1.0000     -11.371603      -309.4371
  11   1.0000     -11.294214      -307.3312
  12   1.0000     -11.284474      -307.0661
  13   1.0000     -11.267622      -306.6076
  14   1.0000     -11.251748      -306.1756
  15   1.0000     -11.251097      -306.1579
  16   1.0000     -11.243142      -305.9415
  17   1.0000     -10.499344      -285.7017
  18   1.0000     -10.497490      -285.6512
  19   1.0000     -10.496640      -285.6281
  20   1.0000      -7.966216      -216.7718
  21   1.0000      -7.965393      -216.7494
  22   1.0000      -7.965343      -216.7480
  23   1.0000      -7.964314      -216.7200
  24   1.0000      -7.963596      -216.7005
  25   1.0000      -7.963502      -216.6979
  26   1.0000      -7.963479      -216.6973
  27   1.0000      -7.962740      -216.6772
  28   1.0000      -7.962662      -216.6751
  29   1.0000      -4.569804      -124.3507
  30   1.0000      -3.182419       -86.5980
  31   1.0000      -3.181857       -86.5827
  32   1.0000      -3.181352       -86.5690
  33   1.0000      -1.390011       -37.8241
  34   1.0000      -1.189218       -32.3603
  35   1.0000      -1.082295       -29.4507
  36   1.0000      -1.046065       -28.4649
  37   1.0000      -1.043913       -28.4063
  38   1.0000      -1.038609       -28.2620
  39   1.0000      -1.036804       -28.2129
  40   1.0000      -1.010582       -27.4993
  41   1.0000      -0.975873       -26.5549
  42   1.0000      -0.930850       -25.3297
  43   1.0000      -0.912657       -24.8347
  44   1.0000      -0.899286       -24.4708
  45   1.0000      -0.899241       -24.4696
  46   1.0000      -0.890411       -24.2293
  47   1.0000      -0.890034       -24.2191
  48   1.0000      -0.790642       -21.5145
  49   1.0000      -0.769677       -20.9440
  50   1.0000      -0.704106       -19.1597
  51   1.0000      -0.693946       -18.8832
  52   1.0000      -0.670194       -18.2369
  53   1.0000      -0.658511       -17.9190
  54   1.0000      -0.652229       -17.7481
  55   1.0000      -0.630490       -17.1565
  56   1.0000      -0.602598       -16.3975
  57   1.0000      -0.598825       -16.2949
  58   1.0000      -0.592578       -16.1249
  59   1.0000      -0.580578       -15.7983
  60   1.0000      -0.574275       -15.6268
  61   1.0000      -0.563303       -15.3282
  62   1.0000      -0.558040       -15.1850
  63   1.0000      -0.540236       -14.7006
  64   1.0000      -0.534740       -14.5510
  65   1.0000      -0.521056       -14.1786
  66   1.0000      -0.507725       -13.8159
  67   1.0000      -0.470290       -12.7972
  68   1.0000      -0.459932       -12.5154
  69   1.0000      -0.446731       -12.1562
  70   1.0000      -0.426687       -11.6107
  71   1.0000      -0.423148       -11.5144
  72   1.0000      -0.419524       -11.4158
  73   1.0000      -0.411782       -11.2051
  74   1.0000      -0.409797       -11.1511
  75   1.0000      -0.409339       -11.1387
  76   1.0000      -0.400100       -10.8873
  77   0.0000       0.004675         0.1272
  78   0.0000       0.011085         0.3016
  79   0.0000       0.018589         0.5058
  80   0.0000       0.019877         0.5409
  81   0.0000       0.028773         0.7830

                 SPIN DOWN ORBITALS
  NO   OCC          E(Eh)            E(eV)
   0   1.0000    -261.542927     -7116.9449
   1   1.0000    -104.771351     -2850.9734
   2   1.0000    -104.769536     -2850.9240
   3   1.0000    -104.768591     -2850.8983
   4   1.0000     -32.052331      -872.1883
   5   1.0000     -27.530374      -749.1395
   6   1.0000     -27.530228      -749.1356
   7   1.0000     -27.529806      -749.1241
   8   1.0000     -20.544601      -559.0470
   9   1.0000     -11.373733      -309.4950
  10   1.0000     -11.371566      -309.4360
  11   1.0000     -11.294231      -307.3317
  12   1.0000     -11.284324      -307.0621
  13   1.0000     -11.267651      -306.6084
  14   1.0000     -11.251775      -306.1764
  15   1.0000     -11.250991      -306.1550
  16   1.0000     -11.243114      -305.9407
  17   1.0000     -10.497858      -285.6612
  18   1.0000     -10.496009      -285.6109
  19   1.0000     -10.495102      -285.5862
  20   1.0000      -7.963746      -216.7045
  21   1.0000      -7.963186      -216.6893
  22   1.0000      -7.963110      -216.6872
  23   1.0000      -7.961971      -216.6562
  24   1.0000      -7.961306      -216.6382
  25   1.0000      -7.961203      -216.6353
  26   1.0000      -7.961045      -216.6310
  27   1.0000      -7.960362      -216.6125
  28   1.0000      -7.960282      -216.6103
  29   1.0000      -4.127532      -112.3158
  30   1.0000      -2.649358       -72.0927
  31   1.0000      -2.649294       -72.0910
  32   1.0000      -2.648437       -72.0676
  33   1.0000      -1.376578       -37.4586
  34   1.0000      -1.188255       -32.3341
  35   1.0000      -1.079729       -29.3809
  36   1.0000      -1.045157       -28.4402
  37   1.0000      -1.029496       -28.0140
  38   1.0000      -1.018076       -27.7032
  39   1.0000      -1.016489       -27.6601
  40   1.0000      -1.010247       -27.4902
  41   1.0000      -0.975140       -26.5349
  42   1.0000      -0.929852       -25.3026
  43   1.0000      -0.800283       -21.7768
  44   1.0000      -0.773586       -21.0503
  45   1.0000      -0.704681       -19.1754
  46   1.0000      -0.693203       -18.8630
  47   1.0000      -0.670464       -18.2442
  48   1.0000      -0.660718       -17.9791
  49   1.0000      -0.650628       -17.7045
  50   1.0000      -0.629882       -17.1400
  51   1.0000      -0.602810       -16.4033
  52   1.0000      -0.598613       -16.2891
  53   1.0000      -0.591389       -16.0925
  54   1.0000      -0.580567       -15.7980
  55   1.0000      -0.573595       -15.6083
  56   1.0000      -0.562813       -15.3149
  57   1.0000      -0.557993       -15.1838
  58   1.0000      -0.539108       -14.6699
  59   1.0000      -0.534489       -14.5442
  60   1.0000      -0.516356       -14.0508
  61   1.0000      -0.500496       -13.6192
  62   1.0000      -0.468353       -12.7445
  63   1.0000      -0.463190       -12.6040
  64   1.0000      -0.455226       -12.3873
  65   1.0000      -0.434053       -11.8112
  66   1.0000      -0.431270       -11.7354
  67   1.0000      -0.429494       -11.6871
  68   1.0000      -0.424675       -11.5560
  69   1.0000      -0.409002       -11.1295
  70   1.0000      -0.395773       -10.7695
  71   1.0000      -0.393120       -10.6973
  72   0.0000       0.004686         0.1275
  73   0.0000       0.010941         0.2977
  74   0.0000       0.018590         0.5059
  75   0.0000       0.019851         0.5402
  76   0.0000       0.028769         0.7829

E(0)                                       ...  -3028.425856747
E(0)                                       ...  -3028.425856747
E(CORR)(strong-pairs)                      ...     -2.875262029
E(CORR)(weak-pairs)                        ...     -0.035539860
E(CORR)(corrected)                         ...     -2.910801889
E(TOT)                                     ...  -3031.336658636
E(CCSD(T))                                 ...  -3031.456675896
FINAL SINGLE POINT ENERGY     -3031.456675895639

DIPOLE MOMENT
-------------
                                X             Y             Z
Electronic contribution:     41.89148       6.72382      -0.84566
Nuclear contribution   :    -47.24145      -7.05348       0.69759
                        -----------------------------------------
Total Dipole Moment    :     -5.34997      -0.32966      -0.14807
                        -----------------------------------------
Magnitude (a.u.)       :      5.36216
Magnitude (Debye)      :     13.62953

Rotational constants in cm-1:     0.019584     0.010637     0.010119
Rotational constants in MHz :   587.119231   318.891675   303.370438

                             ****ORCA TERMINATED NORMALLY****
TOTAL RUN TIME: 0 days 21 hours 33 minutes 55 seconds 240 msec
