                         Program Version 4.1.2  - RELEASE  -
|  1> ! aug-cc-pVTZ aug-cc-pVTZ/C DLPNO-CCSD(T1) TightSCF NormalPNO UNO MiniPrint AutoAux
|  2> %pal nproc 10 end
|  3> %maxcore 20000
|  4> %mdci
|  5>      density none
|  6> end
|  7>
|  8> * xyz 0 6
|  9>  O     -0.33334900     -0.10916000     -0.58570100
| 10>  C     -1.20014900     -1.05191300     -0.52598000
| 11>  C     -3.16190300      0.02609600      0.00261000
| 12>  C     -2.28588600      1.04753000     -0.21200900
| 13>  C     -2.15634500      1.69407800     -1.55710600
| 14> Fe      1.46097000      0.06655300      0.05681500
| 15> Cl      2.08345200      1.98980800     -0.78271900
| 16>  C     -1.56732100      1.74621700      0.90311200
| 17> Cl      2.41850000     -1.73721700     -0.75719900
| 18> Cl      1.39999200      0.03929800      2.25818900
| 19>  H     -3.74024600     -0.31547800     -0.85334600
| 20>  H     -2.23839800      2.51815000      1.30598000
| 21>  H     -1.29296200      1.08694400      1.72772200
| 22>  H     -0.66599300      2.24810300      0.54432000
| 23>  H     -2.53497900      2.72201900     -1.47467000
| 24>  H     -1.10763900      1.76270100     -1.86043100
| 25>  H     -2.73834100      1.18678200     -2.33043100
| 26>  C     -3.67235200     -0.42930500      1.34293300
| 27>  H     -4.59722000      0.11242100      1.58330100
| 28>  H     -3.92251600     -1.49486500      1.34311300
| 29>  H     -2.96747300     -0.24310400      2.15624900
| 30>  C     -1.16326800     -1.98407500      0.64976000
| 31>  H     -2.04499500     -2.62189200      0.71201800
| 32>  H     -0.28497400     -2.62553900      0.48161600
| 33>  H     -0.99548400     -1.45278500      1.58686800
| 34>  C     -1.67301700     -1.61405500     -1.83879100
| 35>  H     -0.84662900     -2.24609600     -2.19565000
| 36>  H     -2.56560100     -2.23352400     -1.73534800
| 37>  H     -1.82657100     -0.83049200     -2.58067400
| 38> *
| 39>
| 40>
| 41>                          ****END OF INPUT****

CARTESIAN COORDINATES (ANGSTROEM)
---------------------------------
  O     -0.333349   -0.109160   -0.585701
  C     -1.200149   -1.051913   -0.525980
  C     -3.161903    0.026096    0.002610
  C     -2.285886    1.047530   -0.212009
  C     -2.156345    1.694078   -1.557106
  Fe     1.460970    0.066553    0.056815
  Cl     2.083452    1.989808   -0.782719
  C     -1.567321    1.746217    0.903112
  Cl     2.418500   -1.737217   -0.757199
  Cl     1.399992    0.039298    2.258189
  H     -3.740246   -0.315478   -0.853346
  H     -2.238398    2.518150    1.305980
  H     -1.292962    1.086944    1.727722
  H     -0.665993    2.248103    0.544320
  H     -2.534979    2.722019   -1.474670
  H     -1.107639    1.762701   -1.860431
  H     -2.738341    1.186782   -2.330431
  C     -3.672352   -0.429305    1.342933
  H     -4.597220    0.112421    1.583301
  H     -3.922516   -1.494865    1.343113
  H     -2.967473   -0.243104    2.156249
  C     -1.163268   -1.984075    0.649760
  H     -2.044995   -2.621892    0.712018
  H     -0.284974   -2.625539    0.481616
  H     -0.995484   -1.452785    1.586868
  C     -1.673017   -1.614055   -1.838791
  H     -0.846629   -2.246096   -2.195650
  H     -2.565601   -2.233524   -1.735348
  H     -1.826571   -0.830492   -2.580674

ORBITAL ENERGIES
----------------
                 SPIN UP ORBITALS
  NO   OCC          E(Eh)            E(eV)
   0   1.0000    -261.565639     -7117.5629
   1   1.0000    -104.785786     -2851.3662
   2   1.0000    -104.784926     -2851.3428
   3   1.0000    -104.783931     -2851.3157
   4   1.0000     -32.233445      -877.1166
   5   1.0000     -27.709724      -754.0199
   6   1.0000     -27.708889      -753.9972
   7   1.0000     -27.708768      -753.9939
   8   1.0000     -20.585373      -560.1565
   9   1.0000     -11.417917      -310.6973
  10   1.0000     -11.304170      -307.6021
  11   1.0000     -11.271170      -306.7041
  12   1.0000     -11.266631      -306.5806
  13   1.0000     -11.257496      -306.3320
  14   1.0000     -11.251674      -306.1736
  15   1.0000     -11.248937      -306.0991
  16   1.0000     -11.244351      -305.9743
  17   1.0000     -10.512438      -286.0580
  18   1.0000     -10.511523      -286.0331
  19   1.0000     -10.510500      -286.0052
  20   1.0000      -7.979299      -217.1278
  21   1.0000      -7.978505      -217.1062
  22   1.0000      -7.978463      -217.1050
  23   1.0000      -7.978393      -217.1031
  24   1.0000      -7.977620      -217.0821
  25   1.0000      -7.977533      -217.0797
  26   1.0000      -7.977294      -217.0732
  27   1.0000      -7.976620      -217.0549
  28   1.0000      -7.976548      -217.0529
  29   1.0000      -4.588667      -124.8640
  30   1.0000      -3.201711       -87.1230
  31   1.0000      -3.200327       -87.0853
  32   1.0000      -3.200012       -87.0768
  33   1.0000      -1.441211       -39.2173
  34   1.0000      -1.147611       -31.2281
  35   1.0000      -1.095990       -29.8234
  36   1.0000      -1.058767       -28.8105
  37   1.0000      -1.053376       -28.6638
  38   1.0000      -1.051611       -28.6158
  39   1.0000      -1.030231       -28.0340
  40   1.0000      -1.006794       -27.3963
  41   1.0000      -0.973329       -26.4856
  42   1.0000      -0.935310       -25.4511
  43   1.0000      -0.918099       -24.9828
  44   1.0000      -0.917962       -24.9790
  45   1.0000      -0.912051       -24.8182
  46   1.0000      -0.907785       -24.7021
  47   1.0000      -0.907485       -24.6939
  48   1.0000      -0.801478       -21.8093
  49   1.0000      -0.745108       -20.2754
  50   1.0000      -0.700726       -19.0677
  51   1.0000      -0.697101       -18.9691
  52   1.0000      -0.689001       -18.7487
  53   1.0000      -0.665882       -18.1196
  54   1.0000      -0.634237       -17.2585
  55   1.0000      -0.619840       -16.8667
  56   1.0000      -0.602813       -16.4034
  57   1.0000      -0.599557       -16.3148
  58   1.0000      -0.582694       -15.8559
  59   1.0000      -0.577418       -15.7123
  60   1.0000      -0.567681       -15.4474
  61   1.0000      -0.565489       -15.3877
  62   1.0000      -0.549742       -14.9592
  63   1.0000      -0.546839       -14.8803
  64   1.0000      -0.539969       -14.6933
  65   1.0000      -0.522127       -14.2078
  66   1.0000      -0.510282       -13.8855
  67   1.0000      -0.492454       -13.4004
  68   1.0000      -0.472488       -12.8571
  69   1.0000      -0.465243       -12.6599
  70   1.0000      -0.440522       -11.9872
  71   1.0000      -0.434617       -11.8265
  72   1.0000      -0.433073       -11.7845
  73   1.0000      -0.424993       -11.5646
  74   1.0000      -0.423073       -11.5124
  75   1.0000      -0.422868       -11.5068
  76   1.0000      -0.365999        -9.9593
  77   0.0000       0.012046         0.3278
  78   0.0000       0.022801         0.6204
  79   0.0000       0.023405         0.6369
  80   0.0000       0.030339         0.8256
  81   0.0000       0.039370         1.0713

                 SPIN DOWN ORBITALS
  NO   OCC          E(Eh)            E(eV)
   0   1.0000    -261.562081     -7117.4661
   1   1.0000    -104.784329     -2851.3265
   2   1.0000    -104.783445     -2851.3025
   3   1.0000    -104.782465     -2851.2758
   4   1.0000     -32.071431      -872.7080
   5   1.0000     -27.549362      -749.6563
   6   1.0000     -27.549319      -749.6551
   7   1.0000     -27.549057      -749.6479
   8   1.0000     -20.581214      -560.0433
   9   1.0000     -11.417752      -310.6928
  10   1.0000     -11.304271      -307.6048
  11   1.0000     -11.271075      -306.7015
  12   1.0000     -11.266614      -306.5802
  13   1.0000     -11.257160      -306.3229
  14   1.0000     -11.251711      -306.1746
  15   1.0000     -11.248916      -306.0986
  16   1.0000     -11.244360      -305.9746
  17   1.0000     -10.510878      -286.0155
  18   1.0000     -10.509939      -285.9900
  19   1.0000     -10.508938      -285.9628
  20   1.0000      -7.976782      -217.0593
  21   1.0000      -7.976125      -217.0414
  22   1.0000      -7.976057      -217.0395
  23   1.0000      -7.975830      -217.0334
  24   1.0000      -7.975194      -217.0161
  25   1.0000      -7.975095      -217.0134
  26   1.0000      -7.974926      -217.0088
  27   1.0000      -7.974127      -216.9870
  28   1.0000      -7.974038      -216.9846
  29   1.0000      -4.146449      -112.8306
  30   1.0000      -2.668074       -72.6020
  31   1.0000      -2.667994       -72.5998
  32   1.0000      -2.667636       -72.5901
  33   1.0000      -1.430641       -38.9297
  34   1.0000      -1.146915       -31.2091
  35   1.0000      -1.093412       -29.7533
  36   1.0000      -1.043685       -28.4001
  37   1.0000      -1.031612       -28.0716
  38   1.0000      -1.030620       -28.0446
  39   1.0000      -1.029514       -28.0145
  40   1.0000      -1.005991       -27.3744
  41   1.0000      -0.973233       -26.4830
  42   1.0000      -0.913115       -24.8471
  43   1.0000      -0.815480       -22.1904
  44   1.0000      -0.745150       -20.2766
  45   1.0000      -0.703390       -19.1402
  46   1.0000      -0.697579       -18.9821
  47   1.0000      -0.687093       -18.6967
  48   1.0000      -0.665833       -18.1182
  49   1.0000      -0.634160       -17.2564
  50   1.0000      -0.619573       -16.8594
  51   1.0000      -0.602387       -16.3918
  52   1.0000      -0.599486       -16.3128
  53   1.0000      -0.582291       -15.8449
  54   1.0000      -0.576964       -15.7000
  55   1.0000      -0.567538       -15.4435
  56   1.0000      -0.565278       -15.3820
  57   1.0000      -0.547742       -14.9048
  58   1.0000      -0.545540       -14.8449
  59   1.0000      -0.539029       -14.6677
  60   1.0000      -0.514270       -13.9940
  61   1.0000      -0.510312       -13.8863
  62   1.0000      -0.490537       -13.3482
  63   1.0000      -0.477021       -12.9804
  64   1.0000      -0.475752       -12.9459
  65   1.0000      -0.447361       -12.1733
  66   1.0000      -0.444493       -12.0953
  67   1.0000      -0.442196       -12.0328
  68   1.0000      -0.427900       -11.6438
  69   1.0000      -0.422847       -11.5063
  70   1.0000      -0.408448       -11.1144
  71   1.0000      -0.364648        -9.9226
  72   0.0000       0.012041         0.3276
  73   0.0000       0.022767         0.6195
  74   0.0000       0.023378         0.6362
  75   0.0000       0.030351         0.8259
  76   0.0000       0.039344         1.0706

E(0)                                       ...  -3028.430357966
E(0)                                       ...  -3028.430357966
E(CORR)(strong-pairs)                      ...     -2.872364451
E(CORR)(weak-pairs)                        ...     -0.036487633
E(CORR)(corrected)                         ...     -2.908852084
E(TOT)                                     ...  -3031.339210050
E(CCSD(T))                                 ...  -3031.458721227
FINAL SINGLE POINT ENERGY     -3031.458721226841

DIPOLE MOMENT
-------------
                                X             Y             Z
Electronic contribution:     42.75576       2.27890       2.20183
Nuclear contribution   :    -46.64313      -2.98752      -2.73987
                        -----------------------------------------
Total Dipole Moment    :     -3.88737      -0.70863      -0.53803
                        -----------------------------------------
Magnitude (a.u.)       :      3.98790
Magnitude (Debye)      :     10.13643

Rotational constants in cm-1:     0.019544     0.011077     0.010409
Rotational constants in MHz :   585.916674   332.084707   312.058532

                             ****ORCA TERMINATED NORMALLY****
TOTAL RUN TIME: 0 days 19 hours 38 minutes 55 seconds 523 msec
