                         Program Version 4.1.2  - RELEASE  -
|  1> ! aug-cc-pVTZ aug-cc-pVTZ/C DLPNO-CCSD(T1) TightSCF NormalPNO UNO MiniPrint AutoAux
|  2> %pal nproc 10 end
|  3> %maxcore 20000
|  4> %mdci
|  5>      density none
|  6> end
|  7>
|  8> * xyz 0 6
|  9>  O     -0.29614300     -0.20557000     -0.48337400
| 10>  C     -1.12677500     -1.14989300     -0.22588100
| 11>  C     -2.68325600     -0.19200700      0.90651700
| 12>  C     -3.08515900      0.66913200     -0.08487000
| 13>  C     -4.18355100      0.32574500     -1.04022000
| 14> Fe      1.54749000      0.17661300     -0.10217800
| 15> Cl      1.87406700      2.09168400     -1.10470900
| 16>  C     -2.38492200      1.96878800     -0.29052400
| 17> Cl      2.55694700     -1.57130900     -0.96576900
| 18> Cl      1.82085100      0.29374800      2.07782300
| 19>  H     -3.28967900     -1.08664000      1.04192000
| 20>  H     -2.88261100      2.59932200     -1.03086600
| 21>  H     -2.26759200      2.52836100      0.64317400
| 22>  H     -1.36389900      1.75000700     -0.64776600
| 23>  H     -5.01432200      1.02773700     -0.88221800
| 24>  H     -3.86692900      0.45954800     -2.08223600
| 25>  H     -4.56540800     -0.68855900     -0.90408400
| 26>  C     -1.92632400      0.30110800      2.12141800
| 27>  H     -2.49616200      1.09379500      2.62094200
| 28>  H     -1.77549000     -0.49919100      2.84767700
| 29>  H     -0.94604000      0.71074800      1.86671800
| 30>  C     -0.74823800     -2.14864800      0.84922400
| 31>  H     -1.59024400     -2.76764900      1.16515500
| 32>  H      0.00603800     -2.79981300      0.38557200
| 33>  H     -0.27827600     -1.66988900      1.70726200
| 34>  C     -1.84027100     -1.73369400     -1.42430800
| 35>  H     -1.12996600     -2.42814100     -1.89199400
| 36>  H     -2.73569200     -2.29572200     -1.15042900
| 37>  H     -2.08006400     -0.96457700     -2.15822300
| 38> *
| 39>
| 40>
| 41>                          ****END OF INPUT****

CARTESIAN COORDINATES (ANGSTROEM)
---------------------------------
  O     -0.296143   -0.205570   -0.483374
  C     -1.126775   -1.149893   -0.225881
  C     -2.683256   -0.192007    0.906517
  C     -3.085159    0.669132   -0.084870
  C     -4.183551    0.325745   -1.040220
  Fe     1.547490    0.176613   -0.102178
  Cl     1.874067    2.091684   -1.104709
  C     -2.384922    1.968788   -0.290524
  Cl     2.556947   -1.571309   -0.965769
  Cl     1.820851    0.293748    2.077823
  H     -3.289679   -1.086640    1.041920
  H     -2.882611    2.599322   -1.030866
  H     -2.267592    2.528361    0.643174
  H     -1.363899    1.750007   -0.647766
  H     -5.014322    1.027737   -0.882218
  H     -3.866929    0.459548   -2.082236
  H     -4.565408   -0.688559   -0.904084
  C     -1.926324    0.301108    2.121418
  H     -2.496162    1.093795    2.620942
  H     -1.775490   -0.499191    2.847677
  H     -0.946040    0.710748    1.866718
  C     -0.748238   -2.148648    0.849224
  H     -1.590244   -2.767649    1.165155
  H      0.006038   -2.799813    0.385572
  H     -0.278276   -1.669889    1.707262
  C     -1.840271   -1.733694   -1.424308
  H     -1.129966   -2.428141   -1.891994
  H     -2.735692   -2.295722   -1.150429
  H     -2.080064   -0.964577   -2.158223

ORBITAL ENERGIES
----------------
                 SPIN UP ORBITALS
  NO   OCC          E(Eh)            E(eV)
   0   1.0000    -261.561202     -7117.4421
   1   1.0000    -104.782239     -2851.2697
   2   1.0000    -104.779891     -2851.2058
   3   1.0000    -104.778683     -2851.1729
   4   1.0000     -32.229009      -876.9959
   5   1.0000     -27.705309      -753.8998
   6   1.0000     -27.704448      -753.8764
   7   1.0000     -27.704304      -753.8724
   8   1.0000     -20.587671      -560.2190
   9   1.0000     -11.406503      -310.3867
  10   1.0000     -11.318026      -307.9791
  11   1.0000     -11.270978      -306.6989
  12   1.0000     -11.266727      -306.5832
  13   1.0000     -11.265372      -306.5464
  14   1.0000     -11.261912      -306.4522
  15   1.0000     -11.251870      -306.1789
  16   1.0000     -11.243540      -305.9523
  17   1.0000     -10.508902      -285.9618
  18   1.0000     -10.506529      -285.8972
  19   1.0000     -10.505283      -285.8633
  20   1.0000      -7.975749      -217.0312
  21   1.0000      -7.974958      -217.0096
  22   1.0000      -7.974941      -217.0092
  23   1.0000      -7.973401      -216.9673
  24   1.0000      -7.972628      -216.9462
  25   1.0000      -7.972547      -216.9440
  26   1.0000      -7.972092      -216.9317
  27   1.0000      -7.971416      -216.9133
  28   1.0000      -7.971327      -216.9108
  29   1.0000      -4.584179      -124.7419
  30   1.0000      -3.197226       -87.0009
  31   1.0000      -3.195790       -86.9619
  32   1.0000      -3.195552       -86.9554
  33   1.0000      -1.429795       -38.9067
  34   1.0000      -1.158755       -31.5313
  35   1.0000      -1.087223       -29.5848
  36   1.0000      -1.054511       -28.6947
  37   1.0000      -1.049215       -28.5506
  38   1.0000      -1.046682       -28.4817
  39   1.0000      -1.035569       -28.1793
  40   1.0000      -0.995444       -27.0874
  41   1.0000      -0.986615       -26.8472
  42   1.0000      -0.930137       -25.3103
  43   1.0000      -0.913998       -24.8711
  44   1.0000      -0.913375       -24.8542
  45   1.0000      -0.912794       -24.8384
  46   1.0000      -0.903179       -24.5767
  47   1.0000      -0.902803       -24.5665
  48   1.0000      -0.798756       -21.7352
  49   1.0000      -0.754627       -20.5344
  50   1.0000      -0.692993       -18.8573
  51   1.0000      -0.682845       -18.5812
  52   1.0000      -0.682458       -18.5706
  53   1.0000      -0.676105       -18.3977
  54   1.0000      -0.644067       -17.5260
  55   1.0000      -0.623699       -16.9717
  56   1.0000      -0.604523       -16.4499
  57   1.0000      -0.596570       -16.2335
  58   1.0000      -0.581514       -15.8238
  59   1.0000      -0.578995       -15.7553
  60   1.0000      -0.570284       -15.5182
  61   1.0000      -0.561961       -15.2917
  62   1.0000      -0.559665       -15.2292
  63   1.0000      -0.543503       -14.7895
  64   1.0000      -0.536556       -14.6004
  65   1.0000      -0.520660       -14.1679
  66   1.0000      -0.517759       -14.0889
  67   1.0000      -0.486899       -13.2492
  68   1.0000      -0.467877       -12.7316
  69   1.0000      -0.461268       -12.5518
  70   1.0000      -0.435711       -11.8563
  71   1.0000      -0.430714       -11.7203
  72   1.0000      -0.428295       -11.6545
  73   1.0000      -0.420087       -11.4311
  74   1.0000      -0.418485       -11.3876
  75   1.0000      -0.417632       -11.3644
  76   1.0000      -0.377840       -10.2816
  77   0.0000       0.009548         0.2598
  78   0.0000       0.020820         0.5665
  79   0.0000       0.021722         0.5911
  80   0.0000       0.027642         0.7522
  81   0.0000       0.035425         0.9640

                 SPIN DOWN ORBITALS
  NO   OCC          E(Eh)            E(eV)
   0   1.0000    -261.557635     -7117.3451
   1   1.0000    -104.780775     -2851.2298
   2   1.0000    -104.778401     -2851.1652
   3   1.0000    -104.777193     -2851.1324
   4   1.0000     -32.066955      -872.5862
   5   1.0000     -27.544907      -749.5350
   6   1.0000     -27.544841      -749.5332
   7   1.0000     -27.544587      -749.5263
   8   1.0000     -20.583719      -560.1115
   9   1.0000     -11.406388      -310.3836
  10   1.0000     -11.317333      -307.9603
  11   1.0000     -11.271068      -306.7013
  12   1.0000     -11.266627      -306.5805
  13   1.0000     -11.265762      -306.5570
  14   1.0000     -11.261921      -306.4525
  15   1.0000     -11.251954      -306.1812
  16   1.0000     -11.243512      -305.9515
  17   1.0000     -10.507334      -285.9191
  18   1.0000     -10.504936      -285.8538
  19   1.0000     -10.503695      -285.8201
  20   1.0000      -7.973237      -216.9628
  21   1.0000      -7.972563      -216.9445
  22   1.0000      -7.972506      -216.9429
  23   1.0000      -7.970834      -216.8974
  24   1.0000      -7.970182      -216.8797
  25   1.0000      -7.970084      -216.8770
  26   1.0000      -7.969672      -216.8658
  27   1.0000      -7.968883      -216.8443
  28   1.0000      -7.968787      -216.8417
  29   1.0000      -4.141902      -112.7069
  30   1.0000      -2.663549       -72.4788
  31   1.0000      -2.663474       -72.4768
  32   1.0000      -2.662975       -72.4632
  33   1.0000      -1.419702       -38.6320
  34   1.0000      -1.157496       -31.4971
  35   1.0000      -1.084639       -29.5145
  36   1.0000      -1.039861       -28.2961
  37   1.0000      -1.035472       -28.1766
  38   1.0000      -1.026990       -27.9458
  39   1.0000      -1.025047       -27.8930
  40   1.0000      -0.994883       -27.0722
  41   1.0000      -0.986503       -26.8441
  42   1.0000      -0.913761       -24.8647
  43   1.0000      -0.813481       -22.1360
  44   1.0000      -0.754682       -20.5359
  45   1.0000      -0.696047       -18.9404
  46   1.0000      -0.683045       -18.5866
  47   1.0000      -0.680942       -18.5294
  48   1.0000      -0.675824       -18.3901
  49   1.0000      -0.644003       -17.5242
  50   1.0000      -0.622828       -16.9480
  51   1.0000      -0.604189       -16.4408
  52   1.0000      -0.596202       -16.2235
  53   1.0000      -0.581386       -15.8203
  54   1.0000      -0.578910       -15.7530
  55   1.0000      -0.569587       -15.4992
  56   1.0000      -0.561944       -15.2913
  57   1.0000      -0.559650       -15.2289
  58   1.0000      -0.542079       -14.7507
  59   1.0000      -0.535037       -14.5591
  60   1.0000      -0.517823       -14.0907
  61   1.0000      -0.510923       -13.9029
  62   1.0000      -0.485536       -13.2121
  63   1.0000      -0.472833       -12.8664
  64   1.0000      -0.471339       -12.8258
  65   1.0000      -0.443469       -12.0674
  66   1.0000      -0.440161       -11.9774
  67   1.0000      -0.438018       -11.9191
  68   1.0000      -0.423691       -11.5292
  69   1.0000      -0.418258       -11.3814
  70   1.0000      -0.403289       -10.9741
  71   1.0000      -0.376418       -10.2429
  72   0.0000       0.009546         0.2598
  73   0.0000       0.020810         0.5663
  74   0.0000       0.021738         0.5915
  75   0.0000       0.027461         0.7472
  76   0.0000       0.034585         0.9411

E(0)                                       ...  -3028.438245284
E(0)                                       ...  -3028.438245284
E(CORR)(strong-pairs)                      ...     -2.873585776
E(CORR)(weak-pairs)                        ...     -0.035427766
E(CORR)(corrected)                         ...     -2.909013542
E(TOT)                                     ...  -3031.347258826
E(CCSD(T))                                 ...  -3031.467445207
FINAL SINGLE POINT ENERGY     -3031.467445207041

DIPOLE MOMENT
-------------
                                X             Y             Z
Electronic contribution:     44.74297       5.66635      -1.89883
Nuclear contribution   :    -49.28067      -6.62365       1.83399
                        -----------------------------------------
Total Dipole Moment    :     -4.53770      -0.95730      -0.06484
                        -----------------------------------------
Magnitude (a.u.)       :      4.63803
Magnitude (Debye)      :     11.78895

Rotational constants in cm-1:     0.019857     0.009989     0.009563
Rotational constants in MHz :   595.311287   299.454006   286.697708

                             ****ORCA TERMINATED NORMALLY****
TOTAL RUN TIME: 0 days 18 hours 16 minutes 53 seconds 666 msec
