                         Program Version 4.1.2  - RELEASE  -
|  1> ! aug-cc-pVTZ aug-cc-pVTZ/C DLPNO-CCSD(T1) TightSCF NormalPNO UNO MiniPrint AutoAux
|  2> %pal nproc 10 end
|  3> %maxcore 20000
|  4> %mdci
|  5>      density none
|  6> end
|  7>
|  8> * xyz 0 6
|  9>  O     -0.31262600     -0.14673800     -0.70070300
| 10>  C     -1.20746500     -1.06721800     -0.59959000
| 11>  C     -3.01295100     -0.11838300      0.22498700
| 12>  C     -2.39184400      1.03373000     -0.16609200
| 13>  C     -2.53929700      1.58772600     -1.54681800
| 14> Fe      1.43859300      0.08783900      0.03325800
| 15> Cl      2.06170800      2.03463000     -0.75238900
| 16>  C     -1.56186700      1.86504700      0.75642600
| 17> Cl      2.53381500     -1.66160300     -0.71634100
| 18> Cl      1.25781300      0.05860200      2.23561900
| 19>  H     -3.70801500     -0.56405300     -0.48325600
| 20>  H     -2.19799800      2.67408000      1.14502800
| 21>  H     -1.16591600      1.31456000      1.60921500
| 22>  H     -0.73135900      2.33641700      0.22284500
| 23>  H     -2.85622900      2.63592900     -1.47661800
| 24>  H     -1.56408600      1.58993400     -2.04918000
| 25>  H     -3.27073300      1.04746900     -2.15159100
| 26>  C     -3.22062100     -0.52390800      1.66388100
| 27>  H     -4.09301900      0.00695800      2.06685600
| 28>  H     -3.42728500     -1.59315000      1.75556700
| 29>  H     -2.36900000     -0.28524000      2.30474800
| 30>  C     -1.02994400     -2.11612200      0.46712500
| 31>  H     -1.89547700     -2.77304200      0.55931300
| 32>  H     -0.17192500     -2.71875300      0.13484000
| 33>  H     -0.76523900     -1.68423900      1.43192500
| 34>  C     -1.78920900     -1.55361800     -1.90678500
| 35>  H     -0.99910300     -2.16414200     -2.36521700
| 36>  H     -2.67215400     -2.18021400     -1.76822300
| 37>  H     -2.00239900     -0.73364400     -2.59125700
| 38> *
| 39>
| 40>
| 41>                          ****END OF INPUT****

CARTESIAN COORDINATES (ANGSTROEM)
---------------------------------
  O     -0.312626   -0.146738   -0.700703
  C     -1.207465   -1.067218   -0.599590
  C     -3.012951   -0.118383    0.224987
  C     -2.391844    1.033730   -0.166092
  C     -2.539297    1.587726   -1.546818
  Fe     1.438593    0.087839    0.033258
  Cl     2.061708    2.034630   -0.752389
  C     -1.561867    1.865047    0.756426
  Cl     2.533815   -1.661603   -0.716341
  Cl     1.257813    0.058602    2.235619
  H     -3.708015   -0.564053   -0.483256
  H     -2.197998    2.674080    1.145028
  H     -1.165916    1.314560    1.609215
  H     -0.731359    2.336417    0.222845
  H     -2.856229    2.635929   -1.476618
  H     -1.564086    1.589934   -2.049180
  H     -3.270733    1.047469   -2.151591
  C     -3.220621   -0.523908    1.663881
  H     -4.093019    0.006958    2.066856
  H     -3.427285   -1.593150    1.755567
  H     -2.369000   -0.285240    2.304748
  C     -1.029944   -2.116122    0.467125
  H     -1.895477   -2.773042    0.559313
  H     -0.171925   -2.718753    0.134840
  H     -0.765239   -1.684239    1.431925
  C     -1.789209   -1.553618   -1.906785
  H     -0.999103   -2.164142   -2.365217
  H     -2.672154   -2.180214   -1.768223
  H     -2.002399   -0.733644   -2.591257

ORBITAL ENERGIES
----------------
                 SPIN UP ORBITALS
  NO   OCC          E(Eh)            E(eV)
   0   1.0000    -261.562919     -7117.4889
   1   1.0000    -104.784739     -2851.3377
   2   1.0000    -104.781666     -2851.2541
   3   1.0000    -104.781304     -2851.2442
   4   1.0000     -32.230746      -877.0432
   5   1.0000     -27.706944      -753.9443
   6   1.0000     -27.706255      -753.9255
   7   1.0000     -27.706086      -753.9209
   8   1.0000     -20.581001      -560.0375
   9   1.0000     -11.410969      -310.5083
  10   1.0000     -11.314646      -307.8872
  11   1.0000     -11.267734      -306.6106
  12   1.0000     -11.263439      -306.4938
  13   1.0000     -11.261277      -306.4349
  14   1.0000     -11.257787      -306.3400
  15   1.0000     -11.251568      -306.1707
  16   1.0000     -11.246303      -306.0275
  17   1.0000     -10.511391      -286.0295
  18   1.0000     -10.508289      -285.9451
  19   1.0000     -10.507889      -285.9342
  20   1.0000      -7.978256      -217.0994
  21   1.0000      -7.977439      -217.0772
  22   1.0000      -7.977404      -217.0762
  23   1.0000      -7.975155      -217.0150
  24   1.0000      -7.974693      -217.0024
  25   1.0000      -7.974385      -216.9940
  26   1.0000      -7.974308      -216.9920
  27   1.0000      -7.974003      -216.9837
  28   1.0000      -7.973935      -216.9818
  29   1.0000      -4.585927      -124.7894
  30   1.0000      -3.198811       -87.0441
  31   1.0000      -3.197669       -87.0130
  32   1.0000      -3.197350       -87.0043
  33   1.0000      -1.430460       -38.9248
  34   1.0000      -1.155127       -31.4326
  35   1.0000      -1.091136       -29.6913
  36   1.0000      -1.056724       -28.7549
  37   1.0000      -1.051214       -28.6050
  38   1.0000      -1.048920       -28.5426
  39   1.0000      -1.034697       -28.1555
  40   1.0000      -1.000409       -27.2225
  41   1.0000      -0.978121       -26.6160
  42   1.0000      -0.931923       -25.3589
  43   1.0000      -0.916436       -24.9375
  44   1.0000      -0.915177       -24.9032
  45   1.0000      -0.915024       -24.8991
  46   1.0000      -0.905305       -24.6346
  47   1.0000      -0.904912       -24.6239
  48   1.0000      -0.797420       -21.6989
  49   1.0000      -0.750216       -20.4144
  50   1.0000      -0.695795       -18.9336
  51   1.0000      -0.691712       -18.8225
  52   1.0000      -0.684367       -18.6226
  53   1.0000      -0.667683       -18.1686
  54   1.0000      -0.639294       -17.3961
  55   1.0000      -0.620871       -16.8948
  56   1.0000      -0.603789       -16.4299
  57   1.0000      -0.597339       -16.2544
  58   1.0000      -0.583038       -15.8653
  59   1.0000      -0.574541       -15.6341
  60   1.0000      -0.569475       -15.4962
  61   1.0000      -0.562087       -15.2952
  62   1.0000      -0.553216       -15.0538
  63   1.0000      -0.548910       -14.9366
  64   1.0000      -0.542287       -14.7564
  65   1.0000      -0.522617       -14.2211
  66   1.0000      -0.514044       -13.9879
  67   1.0000      -0.488342       -13.2885
  68   1.0000      -0.469494       -12.7756
  69   1.0000      -0.463911       -12.6237
  70   1.0000      -0.437148       -11.8954
  71   1.0000      -0.432465       -11.7680
  72   1.0000      -0.431037       -11.7291
  73   1.0000      -0.422378       -11.4935
  74   1.0000      -0.420926       -11.4540
  75   1.0000      -0.420414       -11.4400
  76   1.0000      -0.373951       -10.1757
  77   0.0000       0.011374         0.3095
  78   0.0000       0.021715         0.5909
  79   0.0000       0.022714         0.6181
  80   0.0000       0.030217         0.8223
  81   0.0000       0.038356         1.0437

                 SPIN DOWN ORBITALS
  NO   OCC          E(Eh)            E(eV)
   0   1.0000    -261.559362     -7117.3921
   1   1.0000    -104.783320     -2851.2991
   2   1.0000    -104.780178     -2851.2136
   3   1.0000    -104.779847     -2851.2046
   4   1.0000     -32.068698      -872.6336
   5   1.0000     -27.546656      -749.5826
   6   1.0000     -27.546587      -749.5807
   7   1.0000     -27.546297      -749.5728
   8   1.0000     -20.576651      -559.9191
   9   1.0000     -11.410876      -310.5057
  10   1.0000     -11.314568      -307.8850
  11   1.0000     -11.267625      -306.6077
  12   1.0000     -11.263312      -306.4903
  13   1.0000     -11.261260      -306.4345
  14   1.0000     -11.257793      -306.3401
  15   1.0000     -11.251582      -306.1711
  16   1.0000     -11.246337      -306.0284
  17   1.0000     -10.509870      -285.9881
  18   1.0000     -10.506697      -285.9018
  19   1.0000     -10.506336      -285.8919
  20   1.0000      -7.975757      -217.0314
  21   1.0000      -7.975153      -217.0149
  22   1.0000      -7.975088      -217.0132
  23   1.0000      -7.972596      -216.9454
  24   1.0000      -7.972317      -216.9378
  25   1.0000      -7.971937      -216.9274
  26   1.0000      -7.971845      -216.9249
  27   1.0000      -7.971537      -216.9165
  28   1.0000      -7.971449      -216.9142
  29   1.0000      -4.143642      -112.7542
  30   1.0000      -2.665287       -72.5261
  31   1.0000      -2.665273       -72.5258
  32   1.0000      -2.664628       -72.5082
  33   1.0000      -1.419443       -38.6250
  34   1.0000      -1.154403       -31.4129
  35   1.0000      -1.088463       -29.6186
  36   1.0000      -1.041932       -28.3524
  37   1.0000      -1.034326       -28.1454
  38   1.0000      -1.029814       -28.0227
  39   1.0000      -1.027543       -27.9609
  40   1.0000      -0.999585       -27.2001
  41   1.0000      -0.978011       -26.6130
  42   1.0000      -0.917611       -24.9695
  43   1.0000      -0.810961       -22.0674
  44   1.0000      -0.750332       -20.4176
  45   1.0000      -0.697893       -18.9906
  46   1.0000      -0.692229       -18.8365
  47   1.0000      -0.683199       -18.5908
  48   1.0000      -0.667178       -18.1548
  49   1.0000      -0.639191       -17.3933
  50   1.0000      -0.620485       -16.8843
  51   1.0000      -0.603199       -16.4139
  52   1.0000      -0.597310       -16.2536
  53   1.0000      -0.582812       -15.8591
  54   1.0000      -0.574145       -15.6233
  55   1.0000      -0.569238       -15.4898
  56   1.0000      -0.561902       -15.2901
  57   1.0000      -0.552861       -15.0441
  58   1.0000      -0.547040       -14.8857
  59   1.0000      -0.539844       -14.6899
  60   1.0000      -0.514048       -13.9880
  61   1.0000      -0.512821       -13.9546
  62   1.0000      -0.487301       -13.2601
  63   1.0000      -0.474888       -12.9224
  64   1.0000      -0.473592       -12.8871
  65   1.0000      -0.445234       -12.1154
  66   1.0000      -0.442229       -12.0337
  67   1.0000      -0.440185       -11.9780
  68   1.0000      -0.425358       -11.5746
  69   1.0000      -0.420776       -11.4499
  70   1.0000      -0.406291       -11.0557
  71   1.0000      -0.372128       -10.1261
  72   0.0000       0.011366         0.3093
  73   0.0000       0.021692         0.5903
  74   0.0000       0.022693         0.6175
  75   0.0000       0.030207         0.8220
  76   0.0000       0.038193         1.0393

E(0)                                       ...  -3028.433809784
E(0)                                       ...  -3028.433809784
E(CORR)(strong-pairs)                      ...     -2.872632589
E(CORR)(weak-pairs)                        ...     -0.036605249
E(CORR)(corrected)                         ...     -2.909237838
E(TOT)                                     ...  -3031.343047622
E(CCSD(T))                                 ...  -3031.462720908
FINAL SINGLE POINT ENERGY     -3031.462720907950

DIPOLE MOMENT
-------------
                                X             Y             Z
Electronic contribution:     41.93667       3.29066       2.20751
Nuclear contribution   :    -46.03075      -3.89943      -2.78504
                        -----------------------------------------
Total Dipole Moment    :     -4.09408      -0.60878      -0.57753
                        -----------------------------------------
Magnitude (a.u.)       :      4.17919
Magnitude (Debye)      :     10.62265

Rotational constants in cm-1:     0.019238     0.011206     0.010529
Rotational constants in MHz :   576.740679   335.943555   315.653637

                             ****ORCA TERMINATED NORMALLY****
TOTAL RUN TIME: 0 days 20 hours 28 minutes 33 seconds 335 msec
