                         Program Version 4.1.2  - RELEASE  -
|  1> ! aug-cc-pVTZ aug-cc-pVTZ/C DLPNO-CCSD(T1) TightSCF NormalPNO UNO MiniPrint AutoAux
|  2> %pal nproc 10 end
|  3> %maxcore 20000
|  4> %mdci
|  5>      density none
|  6> end
|  7>
|  8> * xyz 0 6
|  9>  O     -0.24795300     -0.38862600     -0.58477500
| 10>  C     -1.27607500     -1.16184100     -0.25180400
| 11>  C     -2.34744600     -0.23457100      0.85830000
| 12>  C     -2.99432300      0.67501500     -0.01365900
| 13>  C     -4.33558800      0.38972600     -0.58391200
| 14> Fe      1.49644400      0.12831000     -0.10420600
| 15> Cl      2.78938700     -0.52062000     -1.75043400
| 16>  C     -2.27268200      1.87195400     -0.47592200
| 17> Cl      2.06456500     -0.78829600      1.82221900
| 18> Cl      1.32733300      2.33342200      0.08886900
| 19>  H     -3.02373000     -1.01134100      1.22017800
| 20>  H     -2.82437000      2.45916300     -1.21182200
| 21>  H     -1.95131800      2.50964500      0.35558200
| 22>  H     -1.31563000      1.51019200     -0.90370400
| 23>  H     -5.02792300      1.15235700     -0.19434500
| 24>  H     -4.33930300      0.51143100     -1.67398900
| 25>  H     -4.71967000     -0.59520000     -0.31320600
| 26>  C     -1.46340800      0.35196500      1.95814700
| 27>  H     -2.08488700      0.92897300      2.65154400
| 28>  H     -0.96679500     -0.43207900      2.52887700
| 29>  H     -0.69457800      1.01264900      1.55805300
| 30>  C     -0.91120900     -2.37585000      0.61603600
| 31>  H     -1.79840200     -2.94069600      0.91442900
| 32>  H     -0.28149800     -3.02088100     -0.00694200
| 33>  H     -0.32636400     -2.10090100      1.49203800
| 34>  C     -2.05982000     -1.59619200     -1.49327700
| 35>  H     -1.43133800     -2.29924000     -2.04891900
| 36>  H     -2.99779300     -2.10012100     -1.24098300
| 37>  H     -2.25887400     -0.74885900     -2.15379300
| 38> *
| 39>
| 40>
| 41>                          ****END OF INPUT****

CARTESIAN COORDINATES (ANGSTROEM)
---------------------------------
  O     -0.247953   -0.388626   -0.584775
  C     -1.276075   -1.161841   -0.251804
  C     -2.347446   -0.234571    0.858300
  C     -2.994323    0.675015   -0.013659
  C     -4.335588    0.389726   -0.583912
  Fe     1.496444    0.128310   -0.104206
  Cl     2.789387   -0.520620   -1.750434
  C     -2.272682    1.871954   -0.475922
  Cl     2.064565   -0.788296    1.822219
  Cl     1.327333    2.333422    0.088869
  H     -3.023730   -1.011341    1.220178
  H     -2.824370    2.459163   -1.211822
  H     -1.951318    2.509645    0.355582
  H     -1.315630    1.510192   -0.903704
  H     -5.027923    1.152357   -0.194345
  H     -4.339303    0.511431   -1.673989
  H     -4.719670   -0.595200   -0.313206
  C     -1.463408    0.351965    1.958147
  H     -2.084887    0.928973    2.651544
  H     -0.966795   -0.432079    2.528877
  H     -0.694578    1.012649    1.558053
  C     -0.911209   -2.375850    0.616036
  H     -1.798402   -2.940696    0.914429
  H     -0.281498   -3.020881   -0.006942
  H     -0.326364   -2.100901    1.492038
  C     -2.059820   -1.596192   -1.493277
  H     -1.431338   -2.299240   -2.048919
  H     -2.997793   -2.100121   -1.240983
  H     -2.258874   -0.748859   -2.153793

ORBITAL ENERGIES
----------------
                 SPIN UP ORBITALS
  NO   OCC          E(Eh)            E(eV)
   0   1.0000    -261.543246     -7116.9535
   1   1.0000    -104.769960     -2850.9356
   2   1.0000    -104.768930     -2850.9075
   3   1.0000    -104.761893     -2850.7160
   4   1.0000     -32.211047      -876.5071
   5   1.0000     -27.687004      -753.4017
   6   1.0000     -27.686765      -753.3952
   7   1.0000     -27.686502      -753.3880
   8   1.0000     -20.545923      -559.0830
   9   1.0000     -11.388662      -309.9013
  10   1.0000     -11.365071      -309.2593
  11   1.0000     -11.303730      -307.5901
  12   1.0000     -11.287268      -307.1422
  13   1.0000     -11.277074      -306.8648
  14   1.0000     -11.252271      -306.1899
  15   1.0000     -11.250341      -306.1373
  16   1.0000     -11.241186      -305.8882
  17   1.0000     -10.496580      -285.6265
  18   1.0000     -10.495664      -285.6015
  19   1.0000     -10.488506      -285.4068
  20   1.0000      -7.963470      -216.6970
  21   1.0000      -7.962643      -216.6745
  22   1.0000      -7.962552      -216.6721
  23   1.0000      -7.962518      -216.6711
  24   1.0000      -7.961724      -216.6495
  25   1.0000      -7.961701      -216.6489
  26   1.0000      -7.955359      -216.4763
  27   1.0000      -7.954636      -216.4566
  28   1.0000      -7.954520      -216.4535
  29   1.0000      -4.566355      -124.2568
  30   1.0000      -3.178958       -86.5038
  31   1.0000      -3.178338       -86.4870
  32   1.0000      -3.178050       -86.4791
  33   1.0000      -1.379183       -37.5295
  34   1.0000      -1.196705       -32.5640
  35   1.0000      -1.081429       -29.4272
  36   1.0000      -1.048609       -28.5341
  37   1.0000      -1.040678       -28.3183
  38   1.0000      -1.036447       -28.2031
  39   1.0000      -1.030420       -28.0392
  40   1.0000      -1.019818       -27.7506
  41   1.0000      -0.973017       -26.4771
  42   1.0000      -0.930492       -25.3200
  43   1.0000      -0.910471       -24.7752
  44   1.0000      -0.896019       -24.3819
  45   1.0000      -0.895232       -24.3605
  46   1.0000      -0.887310       -24.1449
  47   1.0000      -0.886107       -24.1122
  48   1.0000      -0.797111       -21.6905
  49   1.0000      -0.769022       -20.9262
  50   1.0000      -0.708687       -19.2844
  51   1.0000      -0.694487       -18.8979
  52   1.0000      -0.672213       -18.2918
  53   1.0000      -0.659327       -17.9412
  54   1.0000      -0.649219       -17.6661
  55   1.0000      -0.635541       -17.2940
  56   1.0000      -0.606382       -16.5005
  57   1.0000      -0.601758       -16.3747
  58   1.0000      -0.591421       -16.0934
  59   1.0000      -0.581490       -15.8231
  60   1.0000      -0.579307       -15.7637
  61   1.0000      -0.564385       -15.3577
  62   1.0000      -0.557074       -15.1588
  63   1.0000      -0.541523       -14.7356
  64   1.0000      -0.533812       -14.5258
  65   1.0000      -0.524054       -14.2602
  66   1.0000      -0.503914       -13.7122
  67   1.0000      -0.464942       -12.6517
  68   1.0000      -0.457375       -12.4458
  69   1.0000      -0.444313       -12.0904
  70   1.0000      -0.422715       -11.5027
  71   1.0000      -0.418035       -11.3753
  72   1.0000      -0.417038       -11.3482
  73   1.0000      -0.407975       -11.1016
  74   1.0000      -0.406512       -11.0618
  75   1.0000      -0.403638       -10.9835
  76   1.0000      -0.401752       -10.9322
  77   0.0000      -0.000634        -0.0173
  78   0.0000       0.001678         0.0457
  79   0.0000       0.017373         0.4727
  80   0.0000       0.018225         0.4959
  81   0.0000       0.027180         0.7396

                 SPIN DOWN ORBITALS
  NO   OCC          E(Eh)            E(eV)
   0   1.0000    -261.539712     -7116.8574
   1   1.0000    -104.768632     -2850.8994
   2   1.0000    -104.767518     -2850.8691
   3   1.0000    -104.760420     -2850.6760
   4   1.0000     -32.048921      -872.0955
   5   1.0000     -27.527012      -749.0481
   6   1.0000     -27.526882      -749.0445
   7   1.0000     -27.526366      -749.0305
   8   1.0000     -20.540581      -558.9376
   9   1.0000     -11.388605      -309.8997
  10   1.0000     -11.364958      -309.2562
  11   1.0000     -11.303740      -307.5904
  12   1.0000     -11.287156      -307.1391
  13   1.0000     -11.277081      -306.8650
  14   1.0000     -11.252153      -306.1866
  15   1.0000     -11.250379      -306.1384
  16   1.0000     -11.241142      -305.8870
  17   1.0000     -10.495151      -285.5876
  18   1.0000     -10.494148      -285.5603
  19   1.0000     -10.486932      -285.3639
  20   1.0000      -7.961035      -216.6308
  21   1.0000      -7.960548      -216.6175
  22   1.0000      -7.960451      -216.6149
  23   1.0000      -7.960067      -216.6044
  24   1.0000      -7.959425      -216.5870
  25   1.0000      -7.959387      -216.5859
  26   1.0000      -7.952870      -216.4086
  27   1.0000      -7.952173      -216.3896
  28   1.0000      -7.952077      -216.3870
  29   1.0000      -4.123915      -112.2174
  30   1.0000      -2.645912       -71.9989
  31   1.0000      -2.645610       -71.9907
  32   1.0000      -2.644638       -71.9643
  33   1.0000      -1.365540       -37.1582
  34   1.0000      -1.195967       -32.5439
  35   1.0000      -1.078719       -29.3534
  36   1.0000      -1.047493       -28.5037
  37   1.0000      -1.026413       -27.9301
  38   1.0000      -1.020029       -27.7564
  39   1.0000      -1.015817       -27.6418
  40   1.0000      -1.009247       -27.4630
  41   1.0000      -0.972367       -26.4594
  42   1.0000      -0.930182       -25.3115
  43   1.0000      -0.804806       -21.8999
  44   1.0000      -0.775585       -21.1047
  45   1.0000      -0.709125       -19.2963
  46   1.0000      -0.693892       -18.8817
  47   1.0000      -0.672088       -18.2884
  48   1.0000      -0.662414       -18.0252
  49   1.0000      -0.647716       -17.6252
  50   1.0000      -0.634639       -17.2694
  51   1.0000      -0.606289       -16.4980
  52   1.0000      -0.601517       -16.3681
  53   1.0000      -0.590918       -16.0797
  54   1.0000      -0.581022       -15.8104
  55   1.0000      -0.578958       -15.7542
  56   1.0000      -0.563894       -15.3443
  57   1.0000      -0.557093       -15.1593
  58   1.0000      -0.540472       -14.7070
  59   1.0000      -0.533475       -14.5166
  60   1.0000      -0.518465       -14.1081
  61   1.0000      -0.496246       -13.5035
  62   1.0000      -0.463661       -12.6168
  63   1.0000      -0.458639       -12.4802
  64   1.0000      -0.452442       -12.3116
  65   1.0000      -0.431258       -11.7351
  66   1.0000      -0.428324       -11.6553
  67   1.0000      -0.426937       -11.6176
  68   1.0000      -0.420293       -11.4367
  69   1.0000      -0.405145       -11.0246
  70   1.0000      -0.392338       -10.6761
  71   1.0000      -0.390791       -10.6340
  72   0.0000      -0.001007        -0.0274
  73   0.0000       0.001683         0.0458
  74   0.0000       0.017362         0.4724
  75   0.0000       0.018195         0.4951
  76   0.0000       0.027194         0.7400

E(0)                                       ...  -3028.424585821
E(0)                                       ...  -3028.424585821
E(CORR)(strong-pairs)                      ...     -2.875382679
E(CORR)(weak-pairs)                        ...     -0.034943905
E(CORR)(corrected)                         ...     -2.910326583
E(TOT)                                     ...  -3031.334912404
E(CCSD(T))                                 ...  -3031.455038976
FINAL SINGLE POINT ENERGY     -3031.455038975723

DIPOLE MOMENT
-------------
                                X             Y             Z
Electronic contribution:     42.84520       6.60495      -1.05598
Nuclear contribution   :    -48.76914      -6.86772       1.09132
                        -----------------------------------------
Total Dipole Moment    :     -5.92394      -0.26277       0.03534
                        -----------------------------------------
Magnitude (a.u.)       :      5.92987
Magnitude (Debye)      :     15.07252

Rotational constants in cm-1:     0.020830     0.010199     0.009707
Rotational constants in MHz :   624.458656   305.756272   291.010896

                             ****ORCA TERMINATED NORMALLY****
TOTAL RUN TIME: 0 days 23 hours 45 minutes 36 seconds 397 msec
