                         Program Version 4.1.2  - RELEASE  -
|  1> ! aug-cc-pVTZ aug-cc-pVTZ/C DLPNO-CCSD(T1) TightSCF NormalPNO UNO MiniPrint AutoAux
|  2> %pal nproc 10 end
|  3> %maxcore 20000
|  4> %mdci
|  5>      density none
|  6> end
|  7>
|  8> * xyz 0 6
|  9>  O      0.15231900      0.40916900     -0.89421200
| 10>  C      0.95810200      1.34864000     -0.68945100
| 11>  C      3.03577200      0.18517600      0.58320200
| 12>  C      2.73853500     -0.91276900     -0.14322200
| 13>  C      3.29966200     -1.11767900     -1.52395800
| 14> Fe     -1.50200700     -0.17638000      0.00227900
| 15> Cl     -2.04060300     -2.01644300     -1.02315800
| 16>  C      1.83137500     -2.01158700      0.32854600
| 17> Cl     -2.79298700      1.55100300     -0.36192100
| 18> Cl     -1.05924500     -0.44663300      2.13468700
| 19>  H      3.74013500      0.89363900      0.14619200
| 20>  H      2.36607600     -2.97050700      0.32779900
| 21>  H      1.42556700     -1.84649200      1.32635800
| 22>  H      0.98898600     -2.13029400     -0.36662100
| 23>  H      3.88523800     -2.04574300     -1.55711300
| 24>  H      2.49420300     -1.23718700     -2.26135700
| 25>  H      3.95198800     -0.29776100     -1.83753800
| 26>  C      2.73445800      0.39560800      2.04475000
| 27>  H      3.51812900     -0.06891500      2.65860100
| 28>  H      2.72529800      1.45841600      2.30378700
| 29>  H      1.77866400     -0.03444700      2.35294100
| 30>  C      0.77660700      2.26935600      0.47640900
| 31>  H      1.66470100      2.87145300      0.67013600
| 32>  H     -0.05015100      2.94151000      0.20131800
| 33>  H      0.46989600      1.73178000      1.37396400
| 34>  C      1.80778800      1.79985100     -1.83907400
| 35>  H      1.22821400      2.57884400     -2.35634000
| 36>  H      2.74734500      2.24604200     -1.51146200
| 37>  H      1.98376100      0.98785600     -2.54276900
| 38> *
| 39>
| 40>
| 41>                          ****END OF INPUT****

CARTESIAN COORDINATES (ANGSTROEM)
---------------------------------
  O      0.152319    0.409169   -0.894212
  C      0.958102    1.348640   -0.689451
  C      3.035772    0.185176    0.583202
  C      2.738535   -0.912769   -0.143222
  C      3.299662   -1.117679   -1.523958
  Fe    -1.502007   -0.176380    0.002279
  Cl    -2.040603   -2.016443   -1.023158
  C      1.831375   -2.011587    0.328546
  Cl    -2.792987    1.551003   -0.361921
  Cl    -1.059245   -0.446633    2.134687
  H      3.740135    0.893639    0.146192
  H      2.366076   -2.970507    0.327799
  H      1.425567   -1.846492    1.326358
  H      0.988986   -2.130294   -0.366621
  H      3.885238   -2.045743   -1.557113
  H      2.494203   -1.237187   -2.261357
  H      3.951988   -0.297761   -1.837538
  C      2.734458    0.395608    2.044750
  H      3.518129   -0.068915    2.658601
  H      2.725298    1.458416    2.303787
  H      1.778664   -0.034447    2.352941
  C      0.776607    2.269356    0.476409
  H      1.664701    2.871453    0.670136
  H     -0.050151    2.941510    0.201318
  H      0.469896    1.731780    1.373964
  C      1.807788    1.799851   -1.839074
  H      1.228214    2.578844   -2.356340
  H      2.747345    2.246042   -1.511462
  H      1.983761    0.987856   -2.542769

ORBITAL ENERGIES
----------------
                 SPIN UP ORBITALS
  NO   OCC          E(Eh)            E(eV)
   0   1.0000    -261.575942     -7117.8433
   1   1.0000    -104.794391     -2851.6004
   2   1.0000    -104.790984     -2851.5077
   3   1.0000    -104.788669     -2851.4447
   4   1.0000     -32.243657      -877.3945
   5   1.0000     -27.720154      -754.3037
   6   1.0000     -27.718992      -754.2721
   7   1.0000     -27.718778      -754.2663
   8   1.0000     -20.623012      -561.1807
   9   1.0000     -11.421877      -310.8051
  10   1.0000     -11.278171      -306.8946
  11   1.0000     -11.273160      -306.7583
  12   1.0000     -11.266000      -306.5634
  13   1.0000     -11.243586      -305.9535
  14   1.0000     -11.243234      -305.9440
  15   1.0000     -11.235049      -305.7212
  16   1.0000     -11.229294      -305.5646
  17   1.0000     -10.521124      -286.2943
  18   1.0000     -10.517674      -286.2005
  19   1.0000     -10.515312      -286.1362
  20   1.0000      -7.987953      -217.3633
  21   1.0000      -7.987204      -217.3429
  22   1.0000      -7.987154      -217.3415
  23   1.0000      -7.984543      -217.2705
  24   1.0000      -7.983775      -217.2496
  25   1.0000      -7.983724      -217.2482
  26   1.0000      -7.982102      -217.2040
  27   1.0000      -7.981447      -217.1862
  28   1.0000      -7.981393      -217.1848
  29   1.0000      -4.598522      -125.1322
  30   1.0000      -3.211698       -87.3947
  31   1.0000      -3.209920       -87.3464
  32   1.0000      -3.209734       -87.3413
  33   1.0000      -1.465745       -39.8849
  34   1.0000      -1.124982       -30.6123
  35   1.0000      -1.100962       -29.9587
  36   1.0000      -1.067483       -29.0477
  37   1.0000      -1.061569       -28.8868
  38   1.0000      -1.058340       -28.7989
  39   1.0000      -1.021686       -27.8015
  40   1.0000      -1.009211       -27.4620
  41   1.0000      -0.957797       -26.0630
  42   1.0000      -0.943183       -25.6653
  43   1.0000      -0.927450       -25.2372
  44   1.0000      -0.927280       -25.2326
  45   1.0000      -0.916597       -24.9419
  46   1.0000      -0.915926       -24.9236
  47   1.0000      -0.894914       -24.3518
  48   1.0000      -0.815056       -22.1788
  49   1.0000      -0.728731       -19.8298
  50   1.0000      -0.713242       -19.4083
  51   1.0000      -0.703065       -19.1314
  52   1.0000      -0.683439       -18.5973
  53   1.0000      -0.653952       -17.7949
  54   1.0000      -0.621022       -16.8989
  55   1.0000      -0.620000       -16.8711
  56   1.0000      -0.605264       -16.4701
  57   1.0000      -0.599921       -16.3247
  58   1.0000      -0.585997       -15.9458
  59   1.0000      -0.578817       -15.7504
  60   1.0000      -0.561024       -15.2662
  61   1.0000      -0.551406       -15.0045
  62   1.0000      -0.545706       -14.8494
  63   1.0000      -0.539866       -14.6905
  64   1.0000      -0.537648       -14.6302
  65   1.0000      -0.524880       -14.2827
  66   1.0000      -0.504437       -13.7264
  67   1.0000      -0.491954       -13.3868
  68   1.0000      -0.477404       -12.9908
  69   1.0000      -0.476749       -12.9730
  70   1.0000      -0.447258       -12.1705
  71   1.0000      -0.440918       -11.9980
  72   1.0000      -0.438941       -11.9442
  73   1.0000      -0.430510       -11.7148
  74   1.0000      -0.429472       -11.6865
  75   1.0000      -0.428046       -11.6477
  76   1.0000      -0.359000        -9.7689
  77   0.0000       0.012562         0.3418
  78   0.0000       0.023616         0.6426
  79   0.0000       0.024300         0.6612
  80   0.0000       0.030659         0.8343
  81   0.0000       0.039265         1.0685

                 SPIN DOWN ORBITALS
  NO   OCC          E(Eh)            E(eV)
   0   1.0000    -261.572356     -7117.7457
   1   1.0000    -104.792899     -2851.5598
   2   1.0000    -104.789424     -2851.4652
   3   1.0000    -104.787098     -2851.4019
   4   1.0000     -32.081664      -872.9865
   5   1.0000     -27.559595      -749.9347
   6   1.0000     -27.559500      -749.9321
   7   1.0000     -27.559403      -749.9295
   8   1.0000     -20.619522      -561.0857
   9   1.0000     -11.421807      -310.8032
  10   1.0000     -11.278063      -306.8917
  11   1.0000     -11.273149      -306.7580
  12   1.0000     -11.266017      -306.5639
  13   1.0000     -11.243551      -305.9526
  14   1.0000     -11.243232      -305.9439
  15   1.0000     -11.235050      -305.7212
  16   1.0000     -11.229303      -305.5649
  17   1.0000     -10.519530      -286.2510
  18   1.0000     -10.516009      -286.1552
  19   1.0000     -10.513644      -286.0908
  20   1.0000      -7.985452      -217.2952
  21   1.0000      -7.984707      -217.2749
  22   1.0000      -7.984669      -217.2739
  23   1.0000      -7.981900      -217.1985
  24   1.0000      -7.981191      -217.1793
  25   1.0000      -7.981102      -217.1768
  26   1.0000      -7.979634      -217.1369
  27   1.0000      -7.978736      -217.1124
  28   1.0000      -7.978651      -217.1101
  29   1.0000      -4.156455      -113.1029
  30   1.0000      -2.678011       -72.8724
  31   1.0000      -2.677969       -72.8712
  32   1.0000      -2.677541       -72.8596
  33   1.0000      -1.457237       -39.6534
  34   1.0000      -1.124682       -30.6041
  35   1.0000      -1.098613       -29.8948
  36   1.0000      -1.051717       -28.6187
  37   1.0000      -1.039140       -28.2764
  38   1.0000      -1.035559       -28.1790
  39   1.0000      -1.020846       -27.7786
  40   1.0000      -1.008858       -27.4524
  41   1.0000      -0.957718       -26.0608
  42   1.0000      -0.895007       -24.3544
  43   1.0000      -0.828297       -22.5391
  44   1.0000      -0.728805       -19.8318
  45   1.0000      -0.715075       -19.4582
  46   1.0000      -0.702250       -19.1092
  47   1.0000      -0.682843       -18.5811
  48   1.0000      -0.653899       -17.7935
  49   1.0000      -0.620680       -16.8896
  50   1.0000      -0.619749       -16.8642
  51   1.0000      -0.605062       -16.4646
  52   1.0000      -0.599803       -16.3215
  53   1.0000      -0.585654       -15.9364
  54   1.0000      -0.577214       -15.7068
  55   1.0000      -0.560355       -15.2480
  56   1.0000      -0.551045       -14.9947
  57   1.0000      -0.544552       -14.8180
  58   1.0000      -0.539549       -14.6819
  59   1.0000      -0.527019       -14.3409
  60   1.0000      -0.523692       -14.2504
  61   1.0000      -0.506484       -13.7821
  62   1.0000      -0.491916       -13.3857
  63   1.0000      -0.485665       -13.2156
  64   1.0000      -0.482831       -13.1385
  65   1.0000      -0.454659       -12.3719
  66   1.0000      -0.451069       -12.2742
  67   1.0000      -0.448138       -12.1944
  68   1.0000      -0.431910       -11.7529
  69   1.0000      -0.429277       -11.6812
  70   1.0000      -0.413596       -11.2545
  71   1.0000      -0.358536        -9.7563
  72   0.0000       0.012545         0.3414
  73   0.0000       0.023592         0.6420
  74   0.0000       0.024259         0.6601
  75   0.0000       0.030588         0.8323
  76   0.0000       0.039166         1.0658

E(0)                                       ...  -3028.468498178
E(0)                                       ...  -3028.468498178
E(CORR)(strong-pairs)                      ...     -2.866188154
E(CORR)(weak-pairs)                        ...     -0.035190699
E(CORR)(corrected)                         ...     -2.901378853
E(TOT)                                     ...  -3031.369877032
E(CCSD(T))                                 ...  -3031.487658539
FINAL SINGLE POINT ENERGY     -3031.487658538942

DIPOLE MOMENT
-------------
                                X             Y             Z
Electronic contribution:    -44.02516      -5.29200       1.45323
Nuclear contribution   :     47.30715       6.80670      -2.08831
                        -----------------------------------------
Total Dipole Moment    :      3.28199       1.51470      -0.63508
                        -----------------------------------------
Magnitude (a.u.)       :      3.67002
Magnitude (Debye)      :      9.32846

Rotational constants in cm-1:     0.018845     0.010553     0.009925
Rotational constants in MHz :   564.965116   316.382932   297.548871

                             ****ORCA TERMINATED NORMALLY****
TOTAL RUN TIME: 0 days 16 hours 59 minutes 10 seconds 782 msec
