                         Program Version 4.1.2  - RELEASE  -
|  1> ! aug-cc-pVTZ aug-cc-pVTZ/C DLPNO-CCSD(T1) TightSCF NormalPNO UNO MiniPrint AutoAux
|  2> %pal nproc 10 end
|  3> %maxcore 20000
|  4> %mdci
|  5>      density none
|  6> end
|  7>
|  8> * xyz 0 6
|  9>  O     -0.37284100     -0.24130900     -0.57882900
| 10>  C     -1.44994000     -1.18322200     -0.35255600
| 11>  C     -2.73230300     -0.14834100     -0.26846500
| 12>  C     -1.97049100      1.15865200     -0.24704900
| 13>  C     -1.84660700      1.95890600     -1.48407500
| 14> Fe      1.37980400      0.02653900      0.01768300
| 15> Cl      1.80291800      2.03149700     -0.83662900
| 16>  C     -1.59555000      1.79798800      1.03246700
| 17> Cl      2.56843500     -1.66309000     -0.71561500
| 18> Cl      1.34025800      0.15165000      2.23225900
| 19>  H     -3.26696600     -0.21727800     -1.22052800
| 20>  H     -2.47925900      2.36670700      1.36790900
| 21>  H     -1.34898800      1.07764700      1.81289000
| 22>  H     -0.76818600      2.49915800      0.90317400
| 23>  H     -2.60073100      2.76217300     -1.43106000
| 24>  H     -0.86122000      2.43402000     -1.53299900
| 25>  H     -2.02894100      1.36716700     -2.38172800
| 26>  C     -3.71548300     -0.36429800      0.87968900
| 27>  H     -4.51493800      0.38506600      0.85993400
| 28>  H     -4.18487600     -1.34726600      0.77795600
| 29>  H     -3.23343700     -0.32449100      1.85907300
| 30>  C     -1.22273000     -1.97679700      0.92394300
| 31>  H     -2.04730400     -2.67292500      1.10742700
| 32>  H     -0.30318200     -2.56176100      0.81227400
| 33>  H     -1.09482900     -1.33283500      1.79598800
| 34>  C     -1.55680500     -2.08998000     -1.56791800
| 35>  H     -0.63286300     -2.66965100     -1.66551800
| 36>  H     -2.39950000     -2.78411700     -1.47030200
| 37>  H     -1.68487100     -1.49956100     -2.48009700
| 38> *
| 39>
| 40>
| 41>                          ****END OF INPUT****

CARTESIAN COORDINATES (ANGSTROEM)
---------------------------------
  O     -0.372841   -0.241309   -0.578829
  C     -1.449940   -1.183222   -0.352556
  C     -2.732303   -0.148341   -0.268465
  C     -1.970491    1.158652   -0.247049
  C     -1.846607    1.958906   -1.484075
  Fe     1.379804    0.026539    0.017683
  Cl     1.802918    2.031497   -0.836629
  C     -1.595550    1.797988    1.032467
  Cl     2.568435   -1.663090   -0.715615
  Cl     1.340258    0.151650    2.232259
  H     -3.266966   -0.217278   -1.220528
  H     -2.479259    2.366707    1.367909
  H     -1.348988    1.077647    1.812890
  H     -0.768186    2.499158    0.903174
  H     -2.600731    2.762173   -1.431060
  H     -0.861220    2.434020   -1.532999
  H     -2.028941    1.367167   -2.381728
  C     -3.715483   -0.364298    0.879689
  H     -4.514938    0.385066    0.859934
  H     -4.184876   -1.347266    0.777956
  H     -3.233437   -0.324491    1.859073
  C     -1.222730   -1.976797    0.923943
  H     -2.047304   -2.672925    1.107427
  H     -0.303182   -2.561761    0.812274
  H     -1.094829   -1.332835    1.795988
  C     -1.556805   -2.089980   -1.567918
  H     -0.632863   -2.669651   -1.665518
  H     -2.399500   -2.784117   -1.470302
  H     -1.684871   -1.499561   -2.480097

ORBITAL ENERGIES
----------------
                 SPIN UP ORBITALS
  NO   OCC          E(Eh)            E(eV)
   0   1.0000    -261.545624     -7117.0183
   1   1.0000    -104.775024     -2851.0734
   2   1.0000    -104.773437     -2851.0302
   3   1.0000    -104.770066     -2850.9384
   4   1.0000     -32.213529      -876.5747
   5   1.0000     -27.689413      -753.4672
   6   1.0000     -27.689294      -753.4640
   7   1.0000     -27.688938      -753.4543
   8   1.0000     -20.551278      -559.2287
   9   1.0000     -11.411447      -310.5213
  10   1.0000     -11.334730      -308.4337
  11   1.0000     -11.294776      -307.3465
  12   1.0000     -11.282641      -307.0163
  13   1.0000     -11.282235      -307.0052
  14   1.0000     -11.266947      -306.5892
  15   1.0000     -11.235489      -305.7332
  16   1.0000     -11.234041      -305.6938
  17   1.0000     -10.501608      -285.7633
  18   1.0000     -10.500138      -285.7233
  19   1.0000     -10.496677      -285.6291
  20   1.0000      -7.968446      -216.8324
  21   1.0000      -7.967685      -216.8117
  22   1.0000      -7.967598      -216.8094
  23   1.0000      -7.967025      -216.7938
  24   1.0000      -7.966170      -216.7705
  25   1.0000      -7.966148      -216.7699
  26   1.0000      -7.963478      -216.6973
  27   1.0000      -7.962803      -216.6789
  28   1.0000      -7.962713      -216.6764
  29   1.0000      -4.568942      -124.3272
  30   1.0000      -3.181315       -86.5680
  31   1.0000      -3.181168       -86.5640
  32   1.0000      -3.180576       -86.5479
  33   1.0000      -1.349133       -36.7118
  34   1.0000      -1.177767       -32.0487
  35   1.0000      -1.093862       -29.7655
  36   1.0000      -1.045877       -28.4597
  37   1.0000      -1.040771       -28.3208
  38   1.0000      -1.037628       -28.2353
  39   1.0000      -1.036154       -28.1952
  40   1.0000      -1.018276       -27.7087
  41   1.0000      -0.963810       -26.2266
  42   1.0000      -0.934264       -25.4226
  43   1.0000      -0.901458       -24.5299
  44   1.0000      -0.898281       -24.4435
  45   1.0000      -0.898007       -24.4360
  46   1.0000      -0.890363       -24.2280
  47   1.0000      -0.889844       -24.2139
  48   1.0000      -0.802319       -21.8322
  49   1.0000      -0.758933       -20.6516
  50   1.0000      -0.702424       -19.1139
  51   1.0000      -0.689172       -18.7533
  52   1.0000      -0.671808       -18.2808
  53   1.0000      -0.635748       -17.2996
  54   1.0000      -0.635125       -17.2826
  55   1.0000      -0.621164       -16.9027
  56   1.0000      -0.604939       -16.4612
  57   1.0000      -0.596687       -16.2367
  58   1.0000      -0.594630       -16.1807
  59   1.0000      -0.583315       -15.8728
  60   1.0000      -0.576191       -15.6790
  61   1.0000      -0.558764       -15.2047
  62   1.0000      -0.545038       -14.8312
  63   1.0000      -0.537251       -14.6193
  64   1.0000      -0.527327       -14.3493
  65   1.0000      -0.518894       -14.1198
  66   1.0000      -0.503347       -13.6968
  67   1.0000      -0.472091       -12.8463
  68   1.0000      -0.465744       -12.6735
  69   1.0000      -0.449448       -12.2301
  70   1.0000      -0.438533       -11.9331
  71   1.0000      -0.425999       -11.5920
  72   1.0000      -0.421359       -11.4658
  73   1.0000      -0.416597       -11.3362
  74   1.0000      -0.413124       -11.2417
  75   1.0000      -0.411952       -11.2098
  76   1.0000      -0.410121       -11.1600
  77   0.0000       0.005861         0.1595
  78   0.0000       0.018504         0.5035
  79   0.0000       0.021259         0.5785
  80   0.0000       0.030199         0.8218
  81   0.0000       0.031877         0.8674

                 SPIN DOWN ORBITALS
  NO   OCC          E(Eh)            E(eV)
   0   1.0000    -261.542077     -7116.9217
   1   1.0000    -104.773726     -2851.0380
   2   1.0000    -104.772070     -2850.9930
   3   1.0000    -104.768615     -2850.8989
   4   1.0000     -32.051525      -872.1663
   5   1.0000     -27.529638      -749.1195
   6   1.0000     -27.529403      -749.1131
   7   1.0000     -27.528926      -749.1002
   8   1.0000     -20.545360      -559.0677
   9   1.0000     -11.411501      -310.5227
  10   1.0000     -11.334515      -308.4278
  11   1.0000     -11.294666      -307.3435
  12   1.0000     -11.282620      -307.0157
  13   1.0000     -11.282241      -307.0054
  14   1.0000     -11.266940      -306.5890
  15   1.0000     -11.235442      -305.7319
  16   1.0000     -11.234023      -305.6933
  17   1.0000     -10.500211      -285.7253
  18   1.0000     -10.498666      -285.6832
  19   1.0000     -10.495125      -285.5869
  20   1.0000      -7.966151      -216.7700
  21   1.0000      -7.965587      -216.7546
  22   1.0000      -7.965509      -216.7525
  23   1.0000      -7.964552      -216.7265
  24   1.0000      -7.964009      -216.7117
  25   1.0000      -7.963956      -216.7103
  26   1.0000      -7.961109      -216.6328
  27   1.0000      -7.960334      -216.6117
  28   1.0000      -7.960274      -216.6101
  29   1.0000      -4.126849      -112.2973
  30   1.0000      -2.648794       -72.0773
  31   1.0000      -2.648731       -72.0756
  32   1.0000      -2.647650       -72.0462
  33   1.0000      -1.333806       -36.2947
  34   1.0000      -1.176080       -32.0028
  35   1.0000      -1.091363       -29.6975
  36   1.0000      -1.034459       -28.1491
  37   1.0000      -1.031754       -28.0755
  38   1.0000      -1.022359       -27.8198
  39   1.0000      -1.017827       -27.6965
  40   1.0000      -1.016294       -27.6548
  41   1.0000      -0.963035       -26.2055
  42   1.0000      -0.930480       -25.3196
  43   1.0000      -0.804818       -21.9002
  44   1.0000      -0.763389       -20.7729
  45   1.0000      -0.702543       -19.1172
  46   1.0000      -0.688941       -18.7470
  47   1.0000      -0.672970       -18.3124
  48   1.0000      -0.637151       -17.3378
  49   1.0000      -0.635009       -17.2795
  50   1.0000      -0.619669       -16.8621
  51   1.0000      -0.605048       -16.4642
  52   1.0000      -0.595711       -16.2101
  53   1.0000      -0.594232       -16.1699
  54   1.0000      -0.582466       -15.8497
  55   1.0000      -0.575227       -15.6527
  56   1.0000      -0.558219       -15.1899
  57   1.0000      -0.541381       -14.7317
  58   1.0000      -0.536818       -14.6076
  59   1.0000      -0.524914       -14.2836
  60   1.0000      -0.514211       -13.9924
  61   1.0000      -0.500301       -13.6139
  62   1.0000      -0.469317       -12.7708
  63   1.0000      -0.465523       -12.6675
  64   1.0000      -0.457483       -12.4488
  65   1.0000      -0.444641       -12.0993
  66   1.0000      -0.436551       -11.8792
  67   1.0000      -0.431816       -11.7503
  68   1.0000      -0.431261       -11.7352
  69   1.0000      -0.411207       -11.1895
  70   1.0000      -0.404076       -10.9955
  71   1.0000      -0.398249       -10.8369
  72   0.0000       0.005828         0.1586
  73   0.0000       0.018283         0.4975
  74   0.0000       0.021239         0.5780
  75   0.0000       0.030022         0.8170
  76   0.0000       0.030980         0.8430

E(0)                                       ...  -3028.438879633
E(0)                                       ...  -3028.438879633
E(CORR)(strong-pairs)                      ...     -2.870993163
E(CORR)(weak-pairs)                        ...     -0.034914597
E(CORR)(corrected)                         ...     -2.905907761
E(TOT)                                     ...  -3031.344787394
E(CCSD(T))                                 ...  -3031.462903504
FINAL SINGLE POINT ENERGY     -3031.462903503814

DIPOLE MOMENT
-------------
                                X             Y             Z
Electronic contribution:     40.33476       3.91008       1.54143
Nuclear contribution   :    -45.19577      -3.24451      -1.86468
                        -----------------------------------------
Total Dipole Moment    :     -4.86102       0.66556      -0.32324
                        -----------------------------------------
Magnitude (a.u.)       :      4.91701
Magnitude (Debye)      :     12.49803

Rotational constants in cm-1:     0.019067     0.011959     0.010648
Rotational constants in MHz :   571.609788   358.535404   319.218383

                             ****ORCA TERMINATED NORMALLY****
TOTAL RUN TIME: 0 days 18 hours 57 minutes 56 seconds 259 msec
