                         Program Version 4.1.2  - RELEASE  -
|  1> ! aug-cc-pVTZ aug-cc-pVTZ/C DLPNO-CCSD(T1) TightSCF NormalPNO UNO MiniPrint AutoAux
|  2> %pal nproc 10 end
|  3> %maxcore 20000
|  4> %mdci
|  5>      density none
|  6> end
|  7>
|  8> * xyz 0 6
|  9>  O     -0.32623400     -0.14298300     -0.45998000
| 10>  C     -1.19034100     -1.10566200     -0.27174700
| 11>  C     -2.62429300     -0.32809600      0.79674600
| 12>  C     -2.96238300      0.71301300     -0.06251300
| 13>  C     -4.01634700      0.55943300     -1.10643600
| 14> Fe      1.50437500      0.17519300     -0.08790700
| 15> Cl      1.81957000      2.17368600     -0.94029500
| 16>  C     -2.21508800      1.98636500     -0.03534900
| 17> Cl      2.54423500     -1.48890800     -1.07841400
| 18> Cl      1.77416200      0.14582900      2.10383500
| 19>  H     -3.31288400     -1.17305500      0.78172300
| 20>  H     -2.66001300      2.75755600     -0.66721400
| 21>  H     -2.06007700      2.36686100      0.97837700
| 22>  H     -1.20434800      1.74787800     -0.42223200
| 23>  H     -4.84122800      1.24215100     -0.85524300
| 24>  H     -3.65072800      0.87675400     -2.09098800
| 25>  H     -4.41723900     -0.45363600     -1.16872200
| 26>  C     -2.00203000     -0.01676900      2.14891200
| 27>  H     -2.62945300      0.69840300      2.69280100
| 28>  H     -1.92705400     -0.91788100      2.75927200
| 29>  H     -1.00108400      0.41079400      2.05627000
| 30>  C     -0.75320300     -2.22382400      0.67005000
| 31>  H     -1.57592600     -2.89335800      0.93296000
| 32>  H      0.00143700     -2.79788200      0.11760400
| 33>  H     -0.27520300     -1.83844100      1.56977100
| 34>  C     -1.81648100     -1.62627100     -1.55704400
| 35>  H     -1.05338300     -2.24247800     -2.04656700
| 36>  H     -2.69560600     -2.25053900     -1.37512000
| 37>  H     -2.06552500     -0.81375900     -2.24014100
| 38> *
| 39>
| 40>
| 41>                          ****END OF INPUT****

CARTESIAN COORDINATES (ANGSTROEM)
---------------------------------
  O     -0.326234   -0.142983   -0.459980
  C     -1.190341   -1.105662   -0.271747
  C     -2.624293   -0.328096    0.796746
  C     -2.962383    0.713013   -0.062513
  C     -4.016347    0.559433   -1.106436
  Fe     1.504375    0.175193   -0.087907
  Cl     1.819570    2.173686   -0.940295
  C     -2.215088    1.986365   -0.035349
  Cl     2.544235   -1.488908   -1.078414
  Cl     1.774162    0.145829    2.103835
  H     -3.312884   -1.173055    0.781723
  H     -2.660013    2.757556   -0.667214
  H     -2.060077    2.366861    0.978377
  H     -1.204348    1.747878   -0.422232
  H     -4.841228    1.242151   -0.855243
  H     -3.650728    0.876754   -2.090988
  H     -4.417239   -0.453636   -1.168722
  C     -2.002030   -0.016769    2.148912
  H     -2.629453    0.698403    2.692801
  H     -1.927054   -0.917881    2.759272
  H     -1.001084    0.410794    2.056270
  C     -0.753203   -2.223824    0.670050
  H     -1.575926   -2.893358    0.932960
  H      0.001437   -2.797882    0.117604
  H     -0.275203   -1.838441    1.569771
  C     -1.816481   -1.626271   -1.557044
  H     -1.053383   -2.242478   -2.046567
  H     -2.695606   -2.250539   -1.375120
  H     -2.065525   -0.813759   -2.240141

ORBITAL ENERGIES
----------------
                 SPIN UP ORBITALS
  NO   OCC          E(Eh)            E(eV)
   0   1.0000    -261.551250     -7117.1713
   1   1.0000    -104.775688     -2851.0914
   2   1.0000    -104.773161     -2851.0227
   3   1.0000    -104.772940     -2851.0166
   4   1.0000     -32.219134      -876.7272
   5   1.0000     -27.695234      -753.6256
   6   1.0000     -27.694693      -753.6109
   7   1.0000     -27.694528      -753.6064
   8   1.0000     -20.562442      -559.5325
   9   1.0000     -11.385672      -309.8199
  10   1.0000     -11.354763      -308.9788
  11   1.0000     -11.286549      -307.1226
  12   1.0000     -11.278962      -306.9162
  13   1.0000     -11.262664      -306.4727
  14   1.0000     -11.256837      -306.3141
  15   1.0000     -11.250018      -306.1286
  16   1.0000     -11.249181      -306.1058
  17   1.0000     -10.502322      -285.7827
  18   1.0000     -10.499751      -285.7127
  19   1.0000     -10.499565      -285.7077
  20   1.0000      -7.969185      -216.8525
  21   1.0000      -7.968373      -216.8305
  22   1.0000      -7.968336      -216.8294
  23   1.0000      -7.966569      -216.7814
  24   1.0000      -7.966421      -216.7773
  25   1.0000      -7.965868      -216.7623
  26   1.0000      -7.965775      -216.7598
  27   1.0000      -7.965664      -216.7567
  28   1.0000      -7.965584      -216.7545
  29   1.0000      -4.574467      -124.4776
  30   1.0000      -3.187242       -86.7293
  31   1.0000      -3.186361       -86.7053
  32   1.0000      -3.185958       -86.6943
  33   1.0000      -1.403450       -38.1898
  34   1.0000      -1.179149       -32.0863
  35   1.0000      -1.081268       -29.4228
  36   1.0000      -1.047336       -28.4995
  37   1.0000      -1.044399       -28.4195
  38   1.0000      -1.041481       -28.3401
  39   1.0000      -1.039825       -28.2951
  40   1.0000      -1.002940       -27.2914
  41   1.0000      -0.982479       -26.7346
  42   1.0000      -0.926663       -25.2158
  43   1.0000      -0.917489       -24.9661
  44   1.0000      -0.903848       -24.5950
  45   1.0000      -0.903817       -24.5941
  46   1.0000      -0.894491       -24.3403
  47   1.0000      -0.894111       -24.3300
  48   1.0000      -0.790257       -21.5040
  49   1.0000      -0.766958       -20.8700
  50   1.0000      -0.696647       -18.9567
  51   1.0000      -0.690535       -18.7904
  52   1.0000      -0.670516       -18.2457
  53   1.0000      -0.665114       -18.0987
  54   1.0000      -0.654743       -17.8165
  55   1.0000      -0.627989       -17.0884
  56   1.0000      -0.602868       -16.4049
  57   1.0000      -0.595689       -16.2095
  58   1.0000      -0.590723       -16.0744
  59   1.0000      -0.576854       -15.6970
  60   1.0000      -0.574386       -15.6298
  61   1.0000      -0.565725       -15.3942
  62   1.0000      -0.558069       -15.1858
  63   1.0000      -0.543223       -14.7819
  64   1.0000      -0.533295       -14.5117
  65   1.0000      -0.524685       -14.2774
  66   1.0000      -0.511797       -13.9267
  67   1.0000      -0.475359       -12.9352
  68   1.0000      -0.461915       -12.5693
  69   1.0000      -0.451507       -12.2861
  70   1.0000      -0.428643       -11.6640
  71   1.0000      -0.425446       -11.5770
  72   1.0000      -0.422329       -11.4922
  73   1.0000      -0.414189       -11.2707
  74   1.0000      -0.412306       -11.2194
  75   1.0000      -0.411893       -11.2082
  76   1.0000      -0.392495       -10.6803
  77   0.0000       0.006432         0.1750
  78   0.0000       0.017626         0.4796
  79   0.0000       0.019452         0.5293
  80   0.0000       0.021233         0.5778
  81   0.0000       0.029708         0.8084

                 SPIN DOWN ORBITALS
  NO   OCC          E(Eh)            E(eV)
   0   1.0000    -261.547694     -7117.0746
   1   1.0000    -104.774277     -2851.0530
   2   1.0000    -104.771741     -2850.9840
   3   1.0000    -104.771485     -2850.9770
   4   1.0000     -32.057060      -872.3169
   5   1.0000     -27.535063      -749.2672
   6   1.0000     -27.534959      -749.2643
   7   1.0000     -27.534593      -749.2544
   8   1.0000     -20.557690      -559.4032
   9   1.0000     -11.385662      -309.8196
  10   1.0000     -11.354428      -308.9697
  11   1.0000     -11.286595      -307.1239
  12   1.0000     -11.278946      -306.9157
  13   1.0000     -11.262713      -306.4740
  14   1.0000     -11.256731      -306.3112
  15   1.0000     -11.250009      -306.1283
  16   1.0000     -11.249200      -306.1063
  17   1.0000     -10.500808      -285.7415
  18   1.0000     -10.498233      -285.6714
  19   1.0000     -10.498007      -285.6653
  20   1.0000      -7.966701      -216.7850
  21   1.0000      -7.966101      -216.7686
  22   1.0000      -7.966031      -216.7667
  23   1.0000      -7.964203      -216.7170
  24   1.0000      -7.963928      -216.7095
  25   1.0000      -7.963491      -216.6976
  26   1.0000      -7.963389      -216.6948
  27   1.0000      -7.963267      -216.6915
  28   1.0000      -7.963179      -216.6891
  29   1.0000      -4.132153      -112.4416
  30   1.0000      -2.653899       -72.2163
  31   1.0000      -2.653858       -72.2152
  32   1.0000      -2.653106       -72.1947
  33   1.0000      -1.391309       -37.8594
  34   1.0000      -1.177967       -32.0541
  35   1.0000      -1.078658       -29.3518
  36   1.0000      -1.043910       -28.4062
  37   1.0000      -1.032380       -28.0925
  38   1.0000      -1.020726       -27.7754
  39   1.0000      -1.019074       -27.7304
  40   1.0000      -1.002781       -27.2871
  41   1.0000      -0.981814       -26.7165
  42   1.0000      -0.924932       -25.1687
  43   1.0000      -0.803212       -21.8565
  44   1.0000      -0.768330       -20.9073
  45   1.0000      -0.697378       -18.9766
  46   1.0000      -0.690007       -18.7761
  47   1.0000      -0.672264       -18.2932
  48   1.0000      -0.664742       -18.0885
  49   1.0000      -0.654027       -17.7970
  50   1.0000      -0.627484       -17.0747
  51   1.0000      -0.602679       -16.3997
  52   1.0000      -0.595179       -16.1956
  53   1.0000      -0.590347       -16.0642
  54   1.0000      -0.576631       -15.6909
  55   1.0000      -0.574261       -15.6264
  56   1.0000      -0.565209       -15.3801
  57   1.0000      -0.557966       -15.1830
  58   1.0000      -0.542476       -14.7615
  59   1.0000      -0.532340       -14.4857
  60   1.0000      -0.521508       -14.1909
  61   1.0000      -0.503740       -13.7075
  62   1.0000      -0.472952       -12.8697
  63   1.0000      -0.465864       -12.6768
  64   1.0000      -0.461509       -12.5583
  65   1.0000      -0.436905       -11.8888
  66   1.0000      -0.433946       -11.8083
  67   1.0000      -0.432053       -11.7568
  68   1.0000      -0.422249       -11.4900
  69   1.0000      -0.411846       -11.2069
  70   1.0000      -0.397914       -10.8278
  71   1.0000      -0.388489       -10.5713
  72   0.0000       0.006441         0.1753
  73   0.0000       0.017602         0.4790
  74   0.0000       0.019472         0.5299
  75   0.0000       0.021126         0.5749
  76   0.0000       0.029634         0.8064

E(0)                                       ...  -3028.428833209
E(0)                                       ...  -3028.428833209
E(CORR)(strong-pairs)                      ...     -2.875510427
E(CORR)(weak-pairs)                        ...     -0.035608470
E(CORR)(corrected)                         ...     -2.911118897
E(TOT)                                     ...  -3031.339952106
E(CCSD(T))                                 ...  -3031.460520079
FINAL SINGLE POINT ENERGY     -3031.460520078533

DIPOLE MOMENT
-------------
                                X             Y             Z
Electronic contribution:     42.96777       6.33210      -1.30008
Nuclear contribution   :    -48.09028      -6.88104       1.18499
                        -----------------------------------------
Total Dipole Moment    :     -5.12250      -0.54894      -0.11509
                        -----------------------------------------
Magnitude (a.u.)       :      5.15312
Magnitude (Debye)      :     13.09819

Rotational constants in cm-1:     0.019728     0.010359     0.009894
Rotational constants in MHz :   591.431911   310.558337   296.607130

                             ****ORCA TERMINATED NORMALLY****
TOTAL RUN TIME: 0 days 20 hours 37 minutes 55 seconds 861 msec
