                         Program Version 4.1.2  - RELEASE  -
|  1> ! aug-cc-pVTZ aug-cc-pVTZ/C DLPNO-CCSD(T1) TightSCF NormalPNO UNO MiniPrint AutoAux
|  2> %pal nproc 10 end
|  3> %maxcore 20000
|  4> %mdci
|  5>      density none
|  6> end
|  7>
|  8> * xyz 0 6
|  9>  O     -0.28688800     -0.16084400     -0.44079900
| 10>  C     -1.16166400     -1.08180400     -0.15703100
| 11>  C     -2.60335400     -0.18167700      0.89715300
| 12>  C     -3.15863400      0.63014500     -0.08382600
| 13>  C     -4.31932000      0.19523700     -0.91245700
| 14> Fe      1.56030400      0.16717900     -0.11030700
| 15> Cl      1.92351400      2.07019500     -1.13235000
| 16>  C     -2.51657100      1.92874800     -0.41130500
| 17> Cl      2.52841600     -1.60661200     -0.97678500
| 18> Cl      1.87420900      0.29910000      2.06758800
| 19>  H     -3.18842400     -1.06853400      1.13965800
| 20>  H     -3.03575000      2.47539200     -1.20109300
| 21>  H     -2.41320800      2.56850900      0.47230700
| 22>  H     -1.48320300      1.70637500     -0.73805200
| 23>  H     -5.15762900      0.87887600     -0.71444200
| 24>  H     -4.10114700      0.28693900     -1.98386800
| 25>  H     -4.64626800     -0.82246300     -0.68989200
| 26>  C     -1.84725000      0.44302000      2.05868400
| 27>  H     -2.46381800      1.21263000      2.53672800
| 28>  H     -1.60698000     -0.30313000      2.81695900
| 29>  H     -0.91155300      0.90674200      1.74102400
| 30>  C     -0.74282500     -2.10671600      0.89017000
| 31>  H     -1.57028100     -2.74512100      1.20765200
| 32>  H      0.01385800     -2.73380200      0.40060200
| 33>  H     -0.26773100     -1.63994600      1.75240100
| 34>  C     -1.83197200     -1.69069500     -1.37630500
| 35>  H     -1.09477800     -2.36098900     -1.83457800
| 36>  H     -2.71789800     -2.27782500     -1.12154300
| 37>  H     -2.08282300     -0.92671600     -2.11368200
| 38> *
| 39>
| 40>
| 41>                          ****END OF INPUT****

CARTESIAN COORDINATES (ANGSTROEM)
---------------------------------
  O     -0.286888   -0.160844   -0.440799
  C     -1.161664   -1.081804   -0.157031
  C     -2.603354   -0.181677    0.897153
  C     -3.158634    0.630145   -0.083826
  C     -4.319320    0.195237   -0.912457
  Fe     1.560304    0.167179   -0.110307
  Cl     1.923514    2.070195   -1.132350
  C     -2.516571    1.928748   -0.411305
  Cl     2.528416   -1.606612   -0.976785
  Cl     1.874209    0.299100    2.067588
  H     -3.188424   -1.068534    1.139658
  H     -3.035750    2.475392   -1.201093
  H     -2.413208    2.568509    0.472307
  H     -1.483203    1.706375   -0.738052
  H     -5.157629    0.878876   -0.714442
  H     -4.101147    0.286939   -1.983868
  H     -4.646268   -0.822463   -0.689892
  C     -1.847250    0.443020    2.058684
  H     -2.463818    1.212630    2.536728
  H     -1.606980   -0.303130    2.816959
  H     -0.911553    0.906742    1.741024
  C     -0.742825   -2.106716    0.890170
  H     -1.570281   -2.745121    1.207652
  H      0.013858   -2.733802    0.400602
  H     -0.267731   -1.639946    1.752401
  C     -1.831972   -1.690695   -1.376305
  H     -1.094778   -2.360989   -1.834578
  H     -2.717898   -2.277825   -1.121543
  H     -2.082823   -0.926716   -2.113682

ORBITAL ENERGIES
----------------
                 SPIN UP ORBITALS
  NO   OCC          E(Eh)            E(eV)
   0   1.0000    -261.552892     -7117.2160
   1   1.0000    -104.775914     -2851.0976
   2   1.0000    -104.773386     -2851.0288
   3   1.0000    -104.773042     -2851.0194
   4   1.0000     -32.220740      -876.7709
   5   1.0000     -27.696921      -753.6715
   6   1.0000     -27.696241      -753.6530
   7   1.0000     -27.696107      -753.6494
   8   1.0000     -20.569895      -559.7353
   9   1.0000     -11.391795      -309.9865
  10   1.0000     -11.348268      -308.8021
  11   1.0000     -11.285049      -307.0818
  12   1.0000     -11.275301      -306.8165
  13   1.0000     -11.265279      -306.5438
  14   1.0000     -11.259849      -306.3961
  15   1.0000     -11.253049      -306.2110
  16   1.0000     -11.247352      -306.0560
  17   1.0000     -10.502578      -285.7897
  18   1.0000     -10.500023      -285.7202
  19   1.0000     -10.499641      -285.7097
  20   1.0000      -7.969437      -216.8594
  21   1.0000      -7.968637      -216.8376
  22   1.0000      -7.968604      -216.8367
  23   1.0000      -7.966895      -216.7902
  24   1.0000      -7.966452      -216.7782
  25   1.0000      -7.966118      -216.7691
  26   1.0000      -7.966035      -216.7668
  27   1.0000      -7.965769      -216.7596
  28   1.0000      -7.965675      -216.7570
  29   1.0000      -4.575992      -124.5191
  30   1.0000      -3.188861       -86.7733
  31   1.0000      -3.187773       -86.7437
  32   1.0000      -3.187453       -86.7350
  33   1.0000      -1.408458       -38.3261
  34   1.0000      -1.175332       -31.9824
  35   1.0000      -1.080630       -29.4054
  36   1.0000      -1.047846       -28.5133
  37   1.0000      -1.043544       -28.3963
  38   1.0000      -1.041418       -28.3384
  39   1.0000      -1.040227       -28.3060
  40   1.0000      -1.001900       -27.2631
  41   1.0000      -0.985985       -26.8300
  42   1.0000      -0.923606       -25.1326
  43   1.0000      -0.918914       -25.0049
  44   1.0000      -0.905259       -24.6333
  45   1.0000      -0.905235       -24.6327
  46   1.0000      -0.895617       -24.3710
  47   1.0000      -0.895200       -24.3596
  48   1.0000      -0.791853       -21.5474
  49   1.0000      -0.764899       -20.8140
  50   1.0000      -0.692936       -18.8557
  51   1.0000      -0.688419       -18.7328
  52   1.0000      -0.673502       -18.3269
  53   1.0000      -0.667820       -18.1723
  54   1.0000      -0.654330       -17.8052
  55   1.0000      -0.628437       -17.1006
  56   1.0000      -0.604775       -16.4568
  57   1.0000      -0.593768       -16.1572
  58   1.0000      -0.590640       -16.0721
  59   1.0000      -0.578389       -15.7388
  60   1.0000      -0.572843       -15.5879
  61   1.0000      -0.566607       -15.4181
  62   1.0000      -0.559979       -15.2378
  63   1.0000      -0.544525       -14.8173
  64   1.0000      -0.532470       -14.4892
  65   1.0000      -0.526100       -14.3159
  66   1.0000      -0.512668       -13.9504
  67   1.0000      -0.477280       -12.9874
  68   1.0000      -0.461841       -12.5673
  69   1.0000      -0.453042       -12.3279
  70   1.0000      -0.429287       -11.6815
  71   1.0000      -0.425372       -11.5750
  72   1.0000      -0.422434       -11.4950
  73   1.0000      -0.414185       -11.2706
  74   1.0000      -0.412458       -11.2236
  75   1.0000      -0.411907       -11.2086
  76   1.0000      -0.388735       -10.5780
  77   0.0000       0.006335         0.1724
  78   0.0000       0.016285         0.4431
  79   0.0000       0.019370         0.5271
  80   0.0000       0.021335         0.5806
  81   0.0000       0.029305         0.7974

                 SPIN DOWN ORBITALS
  NO   OCC          E(Eh)            E(eV)
   0   1.0000    -261.549331     -7117.1191
   1   1.0000    -104.774480     -2851.0586
   2   1.0000    -104.771924     -2850.9890
   3   1.0000    -104.771593     -2850.9800
   4   1.0000     -32.058658      -872.3604
   5   1.0000     -27.536635      -749.3099
   6   1.0000     -27.536566      -749.3081
   7   1.0000     -27.536233      -749.2990
   8   1.0000     -20.565649      -559.6198
   9   1.0000     -11.391838      -309.9877
  10   1.0000     -11.347412      -308.7788
  11   1.0000     -11.285165      -307.0849
  12   1.0000     -11.275632      -306.8255
  13   1.0000     -11.265384      -306.5467
  14   1.0000     -11.259745      -306.3933
  15   1.0000     -11.253076      -306.2118
  16   1.0000     -11.247343      -306.0558
  17   1.0000     -10.501041      -285.7479
  18   1.0000     -10.498457      -285.6775
  19   1.0000     -10.498094      -285.6677
  20   1.0000      -7.966944      -216.7916
  21   1.0000      -7.966307      -216.7742
  22   1.0000      -7.966247      -216.7726
  23   1.0000      -7.964361      -216.7213
  24   1.0000      -7.964074      -216.7135
  25   1.0000      -7.963727      -216.7040
  26   1.0000      -7.963632      -216.7014
  27   1.0000      -7.963321      -216.6930
  28   1.0000      -7.963223      -216.6903
  29   1.0000      -4.133659      -112.4826
  30   1.0000      -2.655372       -72.2563
  31   1.0000      -2.655307       -72.2546
  32   1.0000      -2.654638       -72.2364
  33   1.0000      -1.397581       -38.0301
  34   1.0000      -1.173464       -31.9316
  35   1.0000      -1.078298       -29.3420
  36   1.0000      -1.042973       -28.3807
  37   1.0000      -1.032681       -28.1007
  38   1.0000      -1.020893       -27.7799
  39   1.0000      -1.019135       -27.7321
  40   1.0000      -1.001792       -27.2601
  41   1.0000      -0.985452       -26.8155
  42   1.0000      -0.921436       -25.0735
  43   1.0000      -0.805706       -21.9244
  44   1.0000      -0.765788       -20.8381
  45   1.0000      -0.693854       -18.8807
  46   1.0000      -0.688216       -18.7273
  47   1.0000      -0.675767       -18.3886
  48   1.0000      -0.666576       -18.1385
  49   1.0000      -0.653998       -17.7962
  50   1.0000      -0.627803       -17.0834
  51   1.0000      -0.604344       -16.4450
  52   1.0000      -0.593257       -16.1434
  53   1.0000      -0.590569       -16.0702
  54   1.0000      -0.578332       -15.7372
  55   1.0000      -0.572643       -15.5824
  56   1.0000      -0.566412       -15.4129
  57   1.0000      -0.559841       -15.2341
  58   1.0000      -0.543847       -14.7988
  59   1.0000      -0.530622       -14.4390
  60   1.0000      -0.525192       -14.2912
  61   1.0000      -0.504137       -13.7183
  62   1.0000      -0.474896       -12.9226
  63   1.0000      -0.466241       -12.6871
  64   1.0000      -0.463729       -12.6187
  65   1.0000      -0.437180       -11.8963
  66   1.0000      -0.434336       -11.8189
  67   1.0000      -0.432216       -11.7612
  68   1.0000      -0.420707       -11.4480
  69   1.0000      -0.412026       -11.2118
  70   1.0000      -0.397756       -10.8235
  71   1.0000      -0.386169       -10.5082
  72   0.0000       0.006337         0.1724
  73   0.0000       0.017100         0.4653
  74   0.0000       0.019413         0.5283
  75   0.0000       0.021368         0.5815
  76   0.0000       0.029289         0.7970

E(0)                                       ...  -3028.430563364
E(0)                                       ...  -3028.430563364
E(CORR)(strong-pairs)                      ...     -2.874661535
E(CORR)(weak-pairs)                        ...     -0.035585422
E(CORR)(corrected)                         ...     -2.910246956
E(TOT)                                     ...  -3031.340810320
E(CCSD(T))                                 ...  -3031.461544143
FINAL SINGLE POINT ENERGY     -3031.461544142840

DIPOLE MOMENT
-------------
                                X             Y             Z
Electronic contribution:     44.66105       5.70098      -2.07149
Nuclear contribution   :    -49.86499      -6.33652       2.06649
                        -----------------------------------------
Total Dipole Moment    :     -5.20394      -0.63555      -0.00501
                        -----------------------------------------
Magnitude (a.u.)       :      5.24261
Magnitude (Debye)      :     13.32566

Rotational constants in cm-1:     0.020240     0.009834     0.009430
Rotational constants in MHz :   606.779968   294.827339   282.696546

                             ****ORCA TERMINATED NORMALLY****
TOTAL RUN TIME: 0 days 19 hours 34 minutes 52 seconds 317 msec
