                         Program Version 4.1.2  - RELEASE  -
|  1> ! aug-cc-pVTZ aug-cc-pVTZ/C DLPNO-CCSD(T1) TightSCF NormalPNO UNO MiniPrint AutoAux
|  2> %pal nproc 10 end
|  3> %maxcore 20000
|  4> %mdci
|  5>      density none
|  6> end
|  7>
|  8> * xyz 0 6
|  9>  O     -0.35072400     -0.12781500     -0.44099800
| 10>  C     -1.27977400     -1.12120500     -0.28725000
| 11>  C     -2.47121400     -0.50477200      0.58480700
| 12>  C     -2.76039900      0.76692400     -0.04994600
| 13>  C     -3.77833500      0.86059100     -1.12302900
| 14> Fe      1.44012300      0.16924900     -0.07599300
| 15> Cl      1.59542500      2.29596700     -0.70589100
| 16>  C     -2.00008400      1.95505100      0.26648800
| 17> Cl      2.63080700     -1.29270100     -1.20947900
| 18> Cl      1.69288900     -0.02400800      2.12410400
| 19>  H     -3.31573500     -1.18712800      0.43997500
| 20>  H     -2.38033200      2.87625400     -0.17592400
| 21>  H     -1.74472600      2.06673600      1.32213700
| 22>  H     -1.01569500      1.68949800     -0.21006900
| 23>  H     -4.61216900      1.45772200     -0.71964900
| 24>  H     -3.39328100      1.42937400     -1.97864900
| 25>  H     -4.16641600     -0.10513000     -1.44554300
| 26>  C     -2.09631300     -0.39318200      2.07324200
| 27>  H     -2.81313300      0.24150100      2.60390800
| 28>  H     -2.12461700     -1.38121300      2.53548700
| 29>  H     -1.09142800      0.01345000      2.20701800
| 30>  C     -0.72227300     -2.34244500      0.46871600
| 31>  H     -1.50195300     -3.08638700      0.66352200
| 32>  H      0.04358500     -2.79531600     -0.16837200
| 33>  H     -0.24642700     -2.05556500      1.40662000
| 34>  C     -1.77343700     -1.57352100     -1.67363800
| 35>  H     -0.93935600     -2.07069000     -2.17577700
| 36>  H     -2.60958200     -2.27897200     -1.60801500
| 37>  H     -2.06019900     -0.72414700     -2.29767600
| 38> *
| 39>
| 40>
| 41>                          ****END OF INPUT****

CARTESIAN COORDINATES (ANGSTROEM)
---------------------------------
  O     -0.350724   -0.127815   -0.440998
  C     -1.279774   -1.121205   -0.287250
  C     -2.471214   -0.504772    0.584807
  C     -2.760399    0.766924   -0.049946
  C     -3.778335    0.860591   -1.123029
  Fe     1.440123    0.169249   -0.075993
  Cl     1.595425    2.295967   -0.705891
  C     -2.000084    1.955051    0.266488
  Cl     2.630807   -1.292701   -1.209479
  Cl     1.692889   -0.024008    2.124104
  H     -3.315735   -1.187128    0.439975
  H     -2.380332    2.876254   -0.175924
  H     -1.744726    2.066736    1.322137
  H     -1.015695    1.689498   -0.210069
  H     -4.612169    1.457722   -0.719649
  H     -3.393281    1.429374   -1.978649
  H     -4.166416   -0.105130   -1.445543
  C     -2.096313   -0.393182    2.073242
  H     -2.813133    0.241501    2.603908
  H     -2.124617   -1.381213    2.535487
  H     -1.091428    0.013450    2.207018
  C     -0.722273   -2.342445    0.468716
  H     -1.501953   -3.086387    0.663522
  H      0.043585   -2.795316   -0.168372
  H     -0.246427   -2.055565    1.406620
  C     -1.773437   -1.573521   -1.673638
  H     -0.939356   -2.070690   -2.175777
  H     -2.609582   -2.278972   -1.608015
  H     -2.060199   -0.724147   -2.297676

ORBITAL ENERGIES
----------------
                 SPIN UP ORBITALS
  NO   OCC          E(Eh)            E(eV)
   0   1.0000    -261.537425     -7116.7951
   1   1.0000    -104.766903     -2850.8524
   2   1.0000    -104.766852     -2850.8510
   3   1.0000    -104.764350     -2850.7829
   4   1.0000     -32.205353      -876.3522
   5   1.0000     -27.681228      -753.2445
   6   1.0000     -27.681088      -753.2407
   7   1.0000     -27.680819      -753.2334
   8   1.0000     -20.529036      -558.6235
   9   1.0000     -11.410612      -310.4985
  10   1.0000     -11.334281      -308.4215
  11   1.0000     -11.310195      -307.7661
  12   1.0000     -11.292219      -307.2769
  13   1.0000     -11.279050      -306.9186
  14   1.0000     -11.255869      -306.2878
  15   1.0000     -11.240326      -305.8648
  16   1.0000     -11.229924      -305.5818
  17   1.0000     -10.493465      -285.5417
  18   1.0000     -10.493343      -285.5384
  19   1.0000     -10.490913      -285.4723
  20   1.0000      -7.960351      -216.6122
  21   1.0000      -7.960188      -216.6077
  22   1.0000      -7.959509      -216.5892
  23   1.0000      -7.959444      -216.5875
  24   1.0000      -7.959419      -216.5868
  25   1.0000      -7.959322      -216.5842
  26   1.0000      -7.957712      -216.5404
  27   1.0000      -7.957024      -216.5216
  28   1.0000      -7.956942      -216.5194
  29   1.0000      -4.560903      -124.1085
  30   1.0000      -3.173384       -86.3522
  31   1.0000      -3.173115       -86.3448
  32   1.0000      -3.172559       -86.3297
  33   1.0000      -1.362372       -37.0720
  34   1.0000      -1.207321       -32.8529
  35   1.0000      -1.096731       -29.8436
  36   1.0000      -1.047250       -28.4971
  37   1.0000      -1.037547       -28.2331
  38   1.0000      -1.032448       -28.0943
  39   1.0000      -1.030624       -28.0447
  40   1.0000      -1.021728       -27.8026
  41   1.0000      -0.965444       -26.2711
  42   1.0000      -0.934498       -25.4290
  43   1.0000      -0.902217       -24.5506
  44   1.0000      -0.890645       -24.2357
  45   1.0000      -0.890492       -24.2315
  46   1.0000      -0.882578       -24.0162
  47   1.0000      -0.882392       -24.0111
  48   1.0000      -0.810574       -22.0568
  49   1.0000      -0.767356       -20.8808
  50   1.0000      -0.718354       -19.5474
  51   1.0000      -0.699835       -19.0435
  52   1.0000      -0.681798       -18.5527
  53   1.0000      -0.649321       -17.6689
  54   1.0000      -0.644567       -17.5396
  55   1.0000      -0.631228       -17.1766
  56   1.0000      -0.614056       -16.7093
  57   1.0000      -0.601216       -16.3599
  58   1.0000      -0.592200       -16.1146
  59   1.0000      -0.583474       -15.8771
  60   1.0000      -0.569825       -15.5057
  61   1.0000      -0.562127       -15.2962
  62   1.0000      -0.552822       -15.0431
  63   1.0000      -0.536316       -14.5939
  64   1.0000      -0.525702       -14.3051
  65   1.0000      -0.516936       -14.0666
  66   1.0000      -0.497907       -13.5487
  67   1.0000      -0.464122       -12.6294
  68   1.0000      -0.458706       -12.4820
  69   1.0000      -0.438470       -11.9314
  70   1.0000      -0.431403       -11.7391
  71   1.0000      -0.417807       -11.3691
  72   1.0000      -0.413069       -11.2402
  73   1.0000      -0.410307       -11.1650
  74   1.0000      -0.406501       -11.0615
  75   1.0000      -0.404955       -11.0194
  76   1.0000      -0.403961       -10.9923
  77   0.0000      -0.005308        -0.1445
  78   0.0000       0.000892         0.0243
  79   0.0000       0.016932         0.4607
  80   0.0000       0.017728         0.4824
  81   0.0000       0.027486         0.7479

                 SPIN DOWN ORBITALS
  NO   OCC          E(Eh)            E(eV)
   0   1.0000    -261.533878     -7116.6986
   1   1.0000    -104.765566     -2850.8160
   2   1.0000    -104.765561     -2850.8159
   3   1.0000    -104.762955     -2850.7449
   4   1.0000     -32.043321      -871.9431
   5   1.0000     -27.521463      -748.8971
   6   1.0000     -27.521222      -748.8905
   7   1.0000     -27.520673      -748.8756
   8   1.0000     -20.522804      -558.4539
   9   1.0000     -11.410625      -310.4989
  10   1.0000     -11.334108      -308.4168
  11   1.0000     -11.310194      -307.7660
  12   1.0000     -11.292093      -307.2735
  13   1.0000     -11.279064      -306.9189
  14   1.0000     -11.255889      -306.2883
  15   1.0000     -11.240227      -305.8621
  16   1.0000     -11.229879      -305.5805
  17   1.0000     -10.492024      -285.5025
  18   1.0000     -10.491954      -285.5006
  19   1.0000     -10.489418      -285.4316
  20   1.0000      -7.957904      -216.5456
  21   1.0000      -7.957874      -216.5448
  22   1.0000      -7.957402      -216.5319
  23   1.0000      -7.957357      -216.5307
  24   1.0000      -7.957326      -216.5299
  25   1.0000      -7.957245      -216.5276
  26   1.0000      -7.955414      -216.4778
  27   1.0000      -7.954672      -216.4576
  28   1.0000      -7.954604      -216.4558
  29   1.0000      -4.118765      -112.0773
  30   1.0000      -2.640701       -71.8571
  31   1.0000      -2.640606       -71.8545
  32   1.0000      -2.639752       -71.8313
  33   1.0000      -1.346751       -36.6470
  34   1.0000      -1.205939       -32.8153
  35   1.0000      -1.094008       -29.7695
  36   1.0000      -1.046490       -28.4764
  37   1.0000      -1.023674       -27.8556
  38   1.0000      -1.020514       -27.7696
  39   1.0000      -1.012828       -27.5605
  40   1.0000      -1.011046       -27.5120
  41   1.0000      -0.964663       -26.2498
  42   1.0000      -0.933773       -25.4093
  43   1.0000      -0.814712       -22.1694
  44   1.0000      -0.775028       -21.0896
  45   1.0000      -0.719326       -19.5738
  46   1.0000      -0.699420       -19.0322
  47   1.0000      -0.682070       -18.5601
  48   1.0000      -0.648807       -17.6549
  49   1.0000      -0.646143       -17.5824
  50   1.0000      -0.630066       -17.1450
  51   1.0000      -0.614223       -16.7139
  52   1.0000      -0.601223       -16.3601
  53   1.0000      -0.592218       -16.1151
  54   1.0000      -0.582062       -15.8387
  55   1.0000      -0.568060       -15.4577
  56   1.0000      -0.562017       -15.2932
  57   1.0000      -0.552181       -15.0256
  58   1.0000      -0.535952       -14.5840
  59   1.0000      -0.522675       -14.2227
  60   1.0000      -0.513855       -13.9827
  61   1.0000      -0.493280       -13.4228
  62   1.0000      -0.460696       -12.5362
  63   1.0000      -0.459388       -12.5006
  64   1.0000      -0.442530       -12.0418
  65   1.0000      -0.440688       -11.9917
  66   1.0000      -0.428367       -11.6565
  67   1.0000      -0.424860       -11.5610
  68   1.0000      -0.423976       -11.5370
  69   1.0000      -0.404027       -10.9941
  70   1.0000      -0.396263       -10.7829
  71   1.0000      -0.391455       -10.6520
  72   0.0000      -0.005429        -0.1477
  73   0.0000       0.000882         0.0240
  74   0.0000       0.016924         0.4605
  75   0.0000       0.017715         0.4821
  76   0.0000       0.027505         0.7484

E(0)                                       ...  -3028.424378621
E(0)                                       ...  -3028.424378621
E(CORR)(strong-pairs)                      ...     -2.871907278
E(CORR)(weak-pairs)                        ...     -0.035037718
E(CORR)(corrected)                         ...     -2.906944996
E(TOT)                                     ...  -3031.331323616
E(CCSD(T))                                 ...  -3031.449045041
FINAL SINGLE POINT ENERGY     -3031.449045040881

DIPOLE MOMENT
-------------
                                X             Y             Z
Electronic contribution:     40.37335       7.71527      -0.48178
Nuclear contribution   :    -46.20620      -7.67024       0.37015
                        -----------------------------------------
Total Dipole Moment    :     -5.83286       0.04504      -0.11163
                        -----------------------------------------
Magnitude (a.u.)       :      5.83410
Magnitude (Debye)      :     14.82910

Rotational constants in cm-1:     0.019508     0.011007     0.010355
Rotational constants in MHz :   584.837401   329.970024   310.426930

                             ****ORCA TERMINATED NORMALLY****
TOTAL RUN TIME: 0 days 20 hours 20 minutes 52 seconds 376 msec
