                         Program Version 4.1.2  - RELEASE  -
|  1> ! aug-cc-pVTZ aug-cc-pVTZ/C DLPNO-CCSD(T1) TightSCF NormalPNO UNO MiniPrint AutoAux
|  2> %pal nproc 10 end
|  3> %maxcore 20000
|  4> %mdci
|  5>      density none
|  6> end
|  7>
|  8> * xyz 0 6
|  9>  O      0.16567500      0.41878300     -0.89006600
| 10>  C      0.94021900      1.37965200     -0.68106100
| 11>  C      3.10345100      0.11092900      0.56423800
| 12>  C      2.69349400     -0.92986900     -0.18738800
| 13>  C      3.18113800     -1.11779300     -1.59913000
| 14> Fe     -1.49219400     -0.17338900      0.01322500
| 15> Cl     -2.05798100     -1.99126300     -1.03393200
| 16>  C      1.76234200     -2.00596200      0.29165900
| 17> Cl     -2.76641800      1.57097200     -0.33160600
| 18> Cl     -1.04963000     -0.46143800      2.14213000
| 19>  H      3.82410300      0.79566200      0.11508600
| 20>  H      2.27795000     -2.97567600      0.28639400
| 21>  H      1.37210700     -1.83474600      1.29457700
| 22>  H      0.91169700     -2.11024100     -0.39433600
| 23>  H      3.71236500     -2.07427600     -1.69041900
| 24>  H      2.33793700     -1.16732400     -2.30120400
| 25>  H      3.86321600     -0.32341800     -1.91604000
| 26>  C      2.85007500      0.31881600      2.03343500
| 27>  H      3.65987800     -0.13062600      2.62451000
| 28>  H      2.83267400      1.38302500      2.29014600
| 29>  H      1.91073400     -0.12443900      2.37276500
| 30>  C      0.78324500      2.24929500      0.52546400
| 31>  H      1.66800500      2.85961900      0.70960600
| 32>  H     -0.06640600      2.91595100      0.31450000
| 33>  H      0.52425600      1.66671400      1.41021600
| 34>  C      1.78605300      1.86579700     -1.81708600
| 35>  H      1.22801400      2.69052600     -2.28484500
| 36>  H      2.74158800      2.26534100     -1.47442900
| 37>  H      1.93193400      1.08595700     -2.56269400
| 38> *
| 39>
| 40>
| 41>                          ****END OF INPUT****

CARTESIAN COORDINATES (ANGSTROEM)
---------------------------------
  O      0.165675    0.418783   -0.890066
  C      0.940219    1.379652   -0.681061
  C      3.103451    0.110929    0.564238
  C      2.693494   -0.929869   -0.187388
  C      3.181138   -1.117793   -1.599130
  Fe    -1.492194   -0.173389    0.013225
  Cl    -2.057981   -1.991263   -1.033932
  C      1.762342   -2.005962    0.291659
  Cl    -2.766418    1.570972   -0.331606
  Cl    -1.049630   -0.461438    2.142130
  H      3.824103    0.795662    0.115086
  H      2.277950   -2.975676    0.286394
  H      1.372107   -1.834746    1.294577
  H      0.911697   -2.110241   -0.394336
  H      3.712365   -2.074276   -1.690419
  H      2.337937   -1.167324   -2.301204
  H      3.863216   -0.323418   -1.916040
  C      2.850075    0.318816    2.033435
  H      3.659878   -0.130626    2.624510
  H      2.832674    1.383025    2.290146
  H      1.910734   -0.124439    2.372765
  C      0.783245    2.249295    0.525464
  H      1.668005    2.859619    0.709606
  H     -0.066406    2.915951    0.314500
  H      0.524256    1.666714    1.410216
  C      1.786053    1.865797   -1.817086
  H      1.228014    2.690526   -2.284845
  H      2.741588    2.265341   -1.474429
  H      1.931934    1.085957   -2.562694

ORBITAL ENERGIES
----------------
                 SPIN UP ORBITALS
  NO   OCC          E(Eh)            E(eV)
   0   1.0000    -261.577603     -7117.8884
   1   1.0000    -104.795257     -2851.6239
   2   1.0000    -104.792021     -2851.5359
   3   1.0000    -104.789910     -2851.4784
   4   1.0000     -32.245287      -877.4389
   5   1.0000     -27.721811      -754.3488
   6   1.0000     -27.720603      -754.3160
   7   1.0000     -27.720400      -754.3104
   8   1.0000     -20.625706      -561.2540
   9   1.0000     -11.422153      -310.8126
  10   1.0000     -11.278991      -306.9170
  11   1.0000     -11.273497      -306.7675
  12   1.0000     -11.261755      -306.4479
  13   1.0000     -11.241525      -305.8974
  14   1.0000     -11.240677      -305.8744
  15   1.0000     -11.234810      -305.7147
  16   1.0000     -11.227200      -305.5077
  17   1.0000     -10.521991      -286.3179
  18   1.0000     -10.518719      -286.2289
  19   1.0000     -10.516559      -286.1701
  20   1.0000      -7.988815      -217.3867
  21   1.0000      -7.988076      -217.3666
  22   1.0000      -7.988021      -217.3651
  23   1.0000      -7.985598      -217.2992
  24   1.0000      -7.984816      -217.2779
  25   1.0000      -7.984763      -217.2765
  26   1.0000      -7.983344      -217.2378
  27   1.0000      -7.982692      -217.2201
  28   1.0000      -7.982645      -217.2188
  29   1.0000      -4.600091      -125.1748
  30   1.0000      -3.213263       -87.4373
  31   1.0000      -3.211455       -87.3881
  32   1.0000      -3.211302       -87.3840
  33   1.0000      -1.468882       -39.9703
  34   1.0000      -1.121962       -30.5301
  35   1.0000      -1.102363       -29.9968
  36   1.0000      -1.068570       -29.0773
  37   1.0000      -1.062701       -28.9176
  38   1.0000      -1.059707       -28.8361
  39   1.0000      -1.021205       -27.7884
  40   1.0000      -1.009163       -27.4607
  41   1.0000      -0.955511       -26.0008
  42   1.0000      -0.944228       -25.6938
  43   1.0000      -0.928964       -25.2784
  44   1.0000      -0.928813       -25.2743
  45   1.0000      -0.917997       -24.9800
  46   1.0000      -0.917357       -24.9626
  47   1.0000      -0.893108       -24.3027
  48   1.0000      -0.816423       -22.2160
  49   1.0000      -0.726002       -19.7555
  50   1.0000      -0.715040       -19.4572
  51   1.0000      -0.704841       -19.1797
  52   1.0000      -0.684245       -18.6192
  53   1.0000      -0.651843       -17.7375
  54   1.0000      -0.621299       -16.9064
  55   1.0000      -0.618156       -16.8209
  56   1.0000      -0.604639       -16.4531
  57   1.0000      -0.599869       -16.3233
  58   1.0000      -0.586250       -15.9527
  59   1.0000      -0.579830       -15.7780
  60   1.0000      -0.561094       -15.2681
  61   1.0000      -0.549402       -14.9500
  62   1.0000      -0.546239       -14.8639
  63   1.0000      -0.538200       -14.6452
  64   1.0000      -0.537504       -14.6262
  65   1.0000      -0.523728       -14.2514
  66   1.0000      -0.505684       -13.7604
  67   1.0000      -0.489894       -13.3307
  68   1.0000      -0.478056       -13.0086
  69   1.0000      -0.477971       -13.0062
  70   1.0000      -0.448284       -12.1984
  71   1.0000      -0.441872       -12.0239
  72   1.0000      -0.439991       -11.9728
  73   1.0000      -0.431436       -11.7400
  74   1.0000      -0.430485       -11.7141
  75   1.0000      -0.429140       -11.6775
  76   1.0000      -0.357247        -9.7212
  77   0.0000       0.012670         0.3448
  78   0.0000       0.023824         0.6483
  79   0.0000       0.024568         0.6685
  80   0.0000       0.030801         0.8381
  81   0.0000       0.039399         1.0721

                 SPIN DOWN ORBITALS
  NO   OCC          E(Eh)            E(eV)
   0   1.0000    -261.574016     -7117.7908
   1   1.0000    -104.793760     -2851.5832
   2   1.0000    -104.790457     -2851.4933
   3   1.0000    -104.788333     -2851.4355
   4   1.0000     -32.083308      -873.0312
   5   1.0000     -27.561253      -749.9798
   6   1.0000     -27.561134      -749.9766
   7   1.0000     -27.561050      -749.9743
   8   1.0000     -20.622302      -561.1614
   9   1.0000     -11.422089      -310.8109
  10   1.0000     -11.278885      -306.9141
  11   1.0000     -11.273489      -306.7672
  12   1.0000     -11.261790      -306.4489
  13   1.0000     -11.241475      -305.8961
  14   1.0000     -11.240672      -305.8742
  15   1.0000     -11.234813      -305.7148
  16   1.0000     -11.227209      -305.5079
  17   1.0000     -10.520393      -286.2744
  18   1.0000     -10.517049      -286.1835
  19   1.0000     -10.514884      -286.1245
  20   1.0000      -7.986320      -217.3188
  21   1.0000      -7.985558      -217.2981
  22   1.0000      -7.985522      -217.2971
  23   1.0000      -7.982928      -217.2265
  24   1.0000      -7.982237      -217.2077
  25   1.0000      -7.982145      -217.2052
  26   1.0000      -7.980879      -217.1708
  27   1.0000      -7.979964      -217.1459
  28   1.0000      -7.979882      -217.1436
  29   1.0000      -4.158055      -113.1464
  30   1.0000      -2.679593       -72.9154
  31   1.0000      -2.679564       -72.9146
  32   1.0000      -2.679134       -72.9029
  33   1.0000      -1.460615       -39.7453
  34   1.0000      -1.121665       -30.5221
  35   1.0000      -1.100120       -29.9358
  36   1.0000      -1.052781       -28.6476
  37   1.0000      -1.040165       -28.3043
  38   1.0000      -1.036809       -28.2130
  39   1.0000      -1.020285       -27.7634
  40   1.0000      -1.008887       -27.4532
  41   1.0000      -0.955401       -25.9978
  42   1.0000      -0.893190       -24.3049
  43   1.0000      -0.829083       -22.5605
  44   1.0000      -0.726078       -19.7576
  45   1.0000      -0.716714       -19.5028
  46   1.0000      -0.704072       -19.1588
  47   1.0000      -0.683670       -18.6036
  48   1.0000      -0.651793       -17.7362
  49   1.0000      -0.620741       -16.8912
  50   1.0000      -0.618079       -16.8188
  51   1.0000      -0.604473       -16.4485
  52   1.0000      -0.599784       -16.3210
  53   1.0000      -0.585954       -15.9446
  54   1.0000      -0.578330       -15.7372
  55   1.0000      -0.560298       -15.2465
  56   1.0000      -0.548969       -14.9382
  57   1.0000      -0.544538       -14.8176
  58   1.0000      -0.537695       -14.6314
  59   1.0000      -0.527135       -14.3441
  60   1.0000      -0.523144       -14.2355
  61   1.0000      -0.507685       -13.8148
  62   1.0000      -0.489838       -13.3292
  63   1.0000      -0.486531       -13.2392
  64   1.0000      -0.484064       -13.1720
  65   1.0000      -0.455404       -12.3922
  66   1.0000      -0.452146       -12.3035
  67   1.0000      -0.449090       -12.2204
  68   1.0000      -0.432710       -11.7746
  69   1.0000      -0.430534       -11.7154
  70   1.0000      -0.414510       -11.2794
  71   1.0000      -0.356848        -9.7103
  72   0.0000       0.012653         0.3443
  73   0.0000       0.023800         0.6476
  74   0.0000       0.024528         0.6675
  75   0.0000       0.030744         0.8366
  76   0.0000       0.039315         1.0698

E(0)                                       ...  -3028.471448604
E(0)                                       ...  -3028.471448604
E(CORR)(strong-pairs)                      ...     -2.865457650
E(CORR)(weak-pairs)                        ...     -0.035467094
E(CORR)(corrected)                         ...     -2.900924744
E(TOT)                                     ...  -3031.372373347
E(CCSD(T))                                 ...  -3031.489986387
FINAL SINGLE POINT ENERGY     -3031.489986387119

DIPOLE MOMENT
-------------
                                X             Y             Z
Electronic contribution:    -43.88452      -5.04017       1.66227
Nuclear contribution   :     47.06411       6.60354      -2.29497
                        -----------------------------------------
Total Dipole Moment    :      3.17959       1.56337      -0.63270
                        -----------------------------------------
Magnitude (a.u.)       :      3.59920
Magnitude (Debye)      :      9.14843

Rotational constants in cm-1:     0.018758     0.010596     0.009974
Rotational constants in MHz :   562.345485   317.666857   299.010375

                             ****ORCA TERMINATED NORMALLY****
TOTAL RUN TIME: 0 days 16 hours 46 minutes 30 seconds 824 msec
