                         Program Version 4.1.2  - RELEASE  -
|  1> ! aug-cc-pVTZ aug-cc-pVTZ/C DLPNO-CCSD(T1) TightSCF NormalPNO UNO MiniPrint AutoAux
|  2> %pal nproc 10 end
|  3> %maxcore 20000
|  4> %mdci
|  5>      density none
|  6> end
|  7>
|  8> * xyz 0 6
|  9>  O      0.20709300      0.35996800     -0.86584000
| 10>  C      1.00322600      1.31185300     -0.67278600
| 11>  C      3.04344400      0.13258200      0.53937800
| 12>  C      2.64204100     -0.94559800     -0.16650800
| 13>  C      3.12582000     -1.19409000     -1.56863800
| 14> Fe     -1.47766200     -0.15876500      0.01072100
| 15> Cl     -2.06282200     -2.00042700     -0.98765800
| 16>  C      1.71778000     -2.00141600      0.36313000
| 17> Cl     -2.71330600      1.59669600     -0.41485900
| 18> Cl     -1.09035800     -0.38990900      2.16001900
| 19>  H      3.76611900      0.79693600      0.06508700
| 20>  H      2.24299100     -2.96482300      0.41041700
| 21>  H      1.32021600     -1.78164300      1.35339800
| 22>  H      0.87324300     -2.14818900     -0.32236400
| 23>  H      3.64280400     -2.16117700     -1.61906800
| 24>  H      2.28057700     -1.26120500     -2.26672900
| 25>  H      3.81957500     -0.42392700     -1.91718100
| 26>  C      2.81890800      0.36898200      2.01018400
| 27>  H      3.61499000     -0.11415200      2.59289600
| 28>  H      2.85527100      1.43458600      2.25581500
| 29>  H      1.86524900     -0.02715600      2.36749900
| 30>  C      0.82641300      2.23463100      0.49263200
| 31>  H      1.71355200      2.84154400      0.67620000
| 32>  H     -0.00478700      2.90297900      0.22167800
| 33>  H      0.52956700      1.69962700      1.39476100
| 34>  C      1.82203100      1.78568000     -1.83625800
| 35>  H      1.22134900      2.56524900     -2.32788200
| 36>  H      2.76395900      2.23871900     -1.52458100
| 37>  H      1.99008200      0.98692100     -2.55630500
| 38> *
| 39>
| 40>
| 41>                          ****END OF INPUT****

CARTESIAN COORDINATES (ANGSTROEM)
---------------------------------
  O      0.207093    0.359968   -0.865840
  C      1.003226    1.311853   -0.672786
  C      3.043444    0.132582    0.539378
  C      2.642041   -0.945598   -0.166508
  C      3.125820   -1.194090   -1.568638
  Fe    -1.477662   -0.158765    0.010721
  Cl    -2.062822   -2.000427   -0.987658
  C      1.717780   -2.001416    0.363130
  Cl    -2.713306    1.596696   -0.414859
  Cl    -1.090358   -0.389909    2.160019
  H      3.766119    0.796936    0.065087
  H      2.242991   -2.964823    0.410417
  H      1.320216   -1.781643    1.353398
  H      0.873243   -2.148189   -0.322364
  H      3.642804   -2.161177   -1.619068
  H      2.280577   -1.261205   -2.266729
  H      3.819575   -0.423927   -1.917181
  C      2.818908    0.368982    2.010184
  H      3.614990   -0.114152    2.592896
  H      2.855271    1.434586    2.255815
  H      1.865249   -0.027156    2.367499
  C      0.826413    2.234631    0.492632
  H      1.713552    2.841544    0.676200
  H     -0.004787    2.902979    0.221678
  H      0.529567    1.699627    1.394761
  C      1.822031    1.785680   -1.836258
  H      1.221349    2.565249   -2.327882
  H      2.763959    2.238719   -1.524581
  H      1.990082    0.986921   -2.556305

ORBITAL ENERGIES
----------------
                 SPIN UP ORBITALS
  NO   OCC          E(Eh)            E(eV)
   0   1.0000    -261.575783     -7117.8389
   1   1.0000    -104.793966     -2851.5888
   2   1.0000    -104.790679     -2851.4993
   3   1.0000    -104.788683     -2851.4450
   4   1.0000     -32.243490      -877.3900
   5   1.0000     -27.719967      -754.2986
   6   1.0000     -27.718834      -754.2678
   7   1.0000     -27.718638      -754.2625
   8   1.0000     -20.619966      -561.0978
   9   1.0000     -11.421664      -310.7993
  10   1.0000     -11.277669      -306.8810
  11   1.0000     -11.272127      -306.7302
  12   1.0000     -11.267711      -306.6100
  13   1.0000     -11.244095      -305.9674
  14   1.0000     -11.243362      -305.9474
  15   1.0000     -11.236632      -305.7643
  16   1.0000     -11.229424      -305.5682
  17   1.0000     -10.520684      -286.2824
  18   1.0000     -10.517370      -286.1922
  19   1.0000     -10.515324      -286.1365
  20   1.0000      -7.987515      -217.3513
  21   1.0000      -7.986762      -217.3308
  22   1.0000      -7.986711      -217.3295
  23   1.0000      -7.984249      -217.2625
  24   1.0000      -7.983466      -217.2412
  25   1.0000      -7.983412      -217.2397
  26   1.0000      -7.982113      -217.2043
  27   1.0000      -7.981454      -217.1864
  28   1.0000      -7.981406      -217.1851
  29   1.0000      -4.598348      -125.1274
  30   1.0000      -3.211486       -87.3890
  31   1.0000      -3.209752       -87.3418
  32   1.0000      -3.209600       -87.3377
  33   1.0000      -1.463979       -39.8369
  34   1.0000      -1.126597       -30.6563
  35   1.0000      -1.100877       -29.9564
  36   1.0000      -1.067042       -29.0357
  37   1.0000      -1.061224       -28.8774
  38   1.0000      -1.058287       -28.7975
  39   1.0000      -1.021954       -27.8088
  40   1.0000      -1.009232       -27.4626
  41   1.0000      -0.958640       -26.0859
  42   1.0000      -0.942720       -25.6527
  43   1.0000      -0.927256       -25.2319
  44   1.0000      -0.927135       -25.2286
  45   1.0000      -0.916470       -24.9384
  46   1.0000      -0.915808       -24.9204
  47   1.0000      -0.896348       -24.3909
  48   1.0000      -0.813933       -22.1482
  49   1.0000      -0.729619       -19.8539
  50   1.0000      -0.712249       -19.3813
  51   1.0000      -0.702272       -19.1098
  52   1.0000      -0.684664       -18.6307
  53   1.0000      -0.655163       -17.8279
  54   1.0000      -0.621530       -16.9127
  55   1.0000      -0.621167       -16.9028
  56   1.0000      -0.604642       -16.4532
  57   1.0000      -0.599526       -16.3139
  58   1.0000      -0.585932       -15.9440
  59   1.0000      -0.578747       -15.7485
  60   1.0000      -0.560875       -15.2622
  61   1.0000      -0.551469       -15.0062
  62   1.0000      -0.547058       -14.8862
  63   1.0000      -0.540518       -14.7082
  64   1.0000      -0.536644       -14.6028
  65   1.0000      -0.525944       -14.3117
  66   1.0000      -0.503529       -13.7017
  67   1.0000      -0.493071       -13.4171
  68   1.0000      -0.476970       -12.9790
  69   1.0000      -0.476361       -12.9624
  70   1.0000      -0.446832       -12.1589
  71   1.0000      -0.440696       -11.9920
  72   1.0000      -0.438836       -11.9413
  73   1.0000      -0.430225       -11.7070
  74   1.0000      -0.429255       -11.6806
  75   1.0000      -0.427949       -11.6451
  76   1.0000      -0.359577        -9.7846
  77   0.0000       0.012631         0.3437
  78   0.0000       0.023601         0.6422
  79   0.0000       0.024271         0.6604
  80   0.0000       0.030635         0.8336
  81   0.0000       0.039305         1.0695

                 SPIN DOWN ORBITALS
  NO   OCC          E(Eh)            E(eV)
   0   1.0000    -261.572203     -7117.7415
   1   1.0000    -104.792481     -2851.5484
   2   1.0000    -104.789123     -2851.4570
   3   1.0000    -104.787119     -2851.4025
   4   1.0000     -32.081498      -872.9820
   5   1.0000     -27.559423      -749.9300
   6   1.0000     -27.559339      -749.9277
   7   1.0000     -27.559236      -749.9249
   8   1.0000     -20.616460      -561.0024
   9   1.0000     -11.421588      -310.7972
  10   1.0000     -11.277561      -306.8780
  11   1.0000     -11.272118      -306.7299
  12   1.0000     -11.267736      -306.6107
  13   1.0000     -11.244042      -305.9659
  14   1.0000     -11.243358      -305.9473
  15   1.0000     -11.236636      -305.7644
  16   1.0000     -11.229435      -305.5685
  17   1.0000     -10.519098      -286.2392
  18   1.0000     -10.515709      -286.1470
  19   1.0000     -10.513664      -286.0913
  20   1.0000      -7.985018      -217.2834
  21   1.0000      -7.984281      -217.2633
  22   1.0000      -7.984242      -217.2623
  23   1.0000      -7.981590      -217.1901
  24   1.0000      -7.980903      -217.1714
  25   1.0000      -7.980812      -217.1689
  26   1.0000      -7.979655      -217.1375
  27   1.0000      -7.978759      -217.1131
  28   1.0000      -7.978677      -217.1108
  29   1.0000      -4.156264      -113.0977
  30   1.0000      -2.677808       -72.8669
  31   1.0000      -2.677792       -72.8664
  32   1.0000      -2.677323       -72.8537
  33   1.0000      -1.455386       -39.6031
  34   1.0000      -1.126287       -30.6478
  35   1.0000      -1.098547       -29.8930
  36   1.0000      -1.051408       -28.6103
  37   1.0000      -1.038850       -28.2686
  38   1.0000      -1.035566       -28.1792
  39   1.0000      -1.021206       -27.7884
  40   1.0000      -1.008770       -27.4500
  41   1.0000      -0.958530       -26.0829
  42   1.0000      -0.896477       -24.3944
  43   1.0000      -0.826798       -22.4983
  44   1.0000      -0.729689       -19.8559
  45   1.0000      -0.714219       -19.4349
  46   1.0000      -0.701426       -19.0868
  47   1.0000      -0.684039       -18.6136
  48   1.0000      -0.655099       -17.8262
  49   1.0000      -0.621370       -16.9083
  50   1.0000      -0.620723       -16.8907
  51   1.0000      -0.604401       -16.4466
  52   1.0000      -0.599430       -16.3113
  53   1.0000      -0.585657       -15.9365
  54   1.0000      -0.577362       -15.7108
  55   1.0000      -0.560067       -15.2402
  56   1.0000      -0.551233       -14.9998
  57   1.0000      -0.545383       -14.8406
  58   1.0000      -0.540400       -14.7050
  59   1.0000      -0.527418       -14.3518
  60   1.0000      -0.523468       -14.2443
  61   1.0000      -0.505299       -13.7499
  62   1.0000      -0.492907       -13.4127
  63   1.0000      -0.485345       -13.2069
  64   1.0000      -0.482774       -13.1369
  65   1.0000      -0.454108       -12.3569
  66   1.0000      -0.450914       -12.2700
  67   1.0000      -0.447969       -12.1899
  68   1.0000      -0.431649       -11.7458
  69   1.0000      -0.429239       -11.6802
  70   1.0000      -0.413436       -11.2502
  71   1.0000      -0.359006        -9.7691
  72   0.0000       0.012615         0.3433
  73   0.0000       0.023578         0.6416
  74   0.0000       0.024234         0.6594
  75   0.0000       0.030565         0.8317
  76   0.0000       0.039200         1.0667

E(0)                                       ...  -3028.464974617
E(0)                                       ...  -3028.464974617
E(CORR)(strong-pairs)                      ...     -2.867560951
E(CORR)(weak-pairs)                        ...     -0.035541441
E(CORR)(corrected)                         ...     -2.903102392
E(TOT)                                     ...  -3031.368077008
E(CCSD(T))                                 ...  -3031.486101522
FINAL SINGLE POINT ENERGY     -3031.486101522333

DIPOLE MOMENT
-------------
                                X             Y             Z
Electronic contribution:    -43.45189      -4.68081       1.61669
Nuclear contribution   :     46.77406       6.10187      -2.24961
                        -----------------------------------------
Total Dipole Moment    :      3.32217       1.42106      -0.63292
                        -----------------------------------------
Magnitude (a.u.)       :      3.66835
Magnitude (Debye)      :      9.32421

Rotational constants in cm-1:     0.018849     0.010757     0.010127
Rotational constants in MHz :   565.084169   322.474975   303.591559

                             ****ORCA TERMINATED NORMALLY****
TOTAL RUN TIME: 0 days 17 hours 30 minutes 37 seconds 958 msec
