                         Program Version 4.1.2  - RELEASE  -
|  1> ! aug-cc-pVTZ aug-cc-pVTZ/C DLPNO-CCSD(T1) TightSCF NormalPNO UNO MiniPrint AutoAux
|  2> %pal nproc 10 end
|  3> %maxcore 20000
|  4> %mdci
|  5>      density none
|  6> end
|  7>
|  8> * xyz 0 6
|  9>  O      0.18604600      0.39468800     -0.87830800
| 10>  C      0.96480100      1.35509300     -0.67603800
| 11>  C      3.08738900      0.10961800      0.55111900
| 12>  C      2.66615800     -0.93865700     -0.18463100
| 13>  C      3.14287400     -1.14945700     -1.59639000
| 14> Fe     -1.48520200     -0.16679800      0.01367000
| 15> Cl     -2.06311600     -1.99101000     -1.01709000
| 16>  C      1.73482400     -2.00361400      0.31666300
| 17> Cl     -2.73923300      1.58610700     -0.36317300
| 18> Cl     -1.06794100     -0.43436800      2.15123300
| 19>  H      3.81053000      0.78316400      0.08969700
| 20>  H      2.25217700     -2.97230900      0.33399000
| 21>  H      1.34286700     -1.81053400      1.31485000
| 22>  H      0.88610300     -2.12443500     -0.36868200
| 23>  H      3.66202600     -2.11339700     -1.67765300
| 24>  H      2.29453900     -1.19835600     -2.29220300
| 25>  H      3.83273500     -0.36780800     -1.92743300
| 26>  C      2.85223600      0.32873300      2.02200800
| 27>  H      3.65938200     -0.13397100      2.60635200
| 28>  H      2.85715600      1.39389400      2.27448500
| 29>  H      1.90848400     -0.09609600      2.37267600
| 30>  C      0.80369800      2.24001500      0.51921400
| 31>  H      1.69021400      2.84796700      0.70269300
| 32>  H     -0.03965700      2.90911600      0.29118400
| 33>  H      0.53316500      1.67154200      1.40943800
| 34>  C      1.79892900      1.84040600     -1.82178600
| 35>  H      1.22522000      2.65161300     -2.29422400
| 36>  H      2.75080200      2.25747600     -1.49015800
| 37>  H      1.95062700      1.05615700     -2.56139600
| 38> *
| 39>
| 40>
| 41>                          ****END OF INPUT****

CARTESIAN COORDINATES (ANGSTROEM)
---------------------------------
  O      0.186046    0.394688   -0.878308
  C      0.964801    1.355093   -0.676038
  C      3.087389    0.109618    0.551119
  C      2.666158   -0.938657   -0.184631
  C      3.142874   -1.149457   -1.596390
  Fe    -1.485202   -0.166798    0.013670
  Cl    -2.063116   -1.991010   -1.017090
  C      1.734824   -2.003614    0.316663
  Cl    -2.739233    1.586107   -0.363173
  Cl    -1.067941   -0.434368    2.151233
  H      3.810530    0.783164    0.089697
  H      2.252177   -2.972309    0.333990
  H      1.342867   -1.810534    1.314850
  H      0.886103   -2.124435   -0.368682
  H      3.662026   -2.113397   -1.677653
  H      2.294539   -1.198356   -2.292203
  H      3.832735   -0.367808   -1.927433
  C      2.852236    0.328733    2.022008
  H      3.659382   -0.133971    2.606352
  H      2.857156    1.393894    2.274485
  H      1.908484   -0.096096    2.372676
  C      0.803698    2.240015    0.519214
  H      1.690214    2.847967    0.702693
  H     -0.039657    2.909116    0.291184
  H      0.533165    1.671542    1.409438
  C      1.798929    1.840406   -1.821786
  H      1.225220    2.651613   -2.294224
  H      2.750802    2.257476   -1.490158
  H      1.950627    1.056157   -2.561396

ORBITAL ENERGIES
----------------
                 SPIN UP ORBITALS
  NO   OCC          E(Eh)            E(eV)
   0   1.0000    -261.577141     -7117.8759
   1   1.0000    -104.794868     -2851.6133
   2   1.0000    -104.791664     -2851.5261
   3   1.0000    -104.789607     -2851.4702
   4   1.0000     -32.244830      -877.4264
   5   1.0000     -27.721340      -754.3360
   6   1.0000     -27.720154      -754.3037
   7   1.0000     -27.719955      -754.2983
   8   1.0000     -20.623876      -561.2042
   9   1.0000     -11.422044      -310.8096
  10   1.0000     -11.278597      -306.9062
  11   1.0000     -11.273048      -306.7552
  12   1.0000     -11.263408      -306.4929
  13   1.0000     -11.242190      -305.9155
  14   1.0000     -11.241361      -305.8930
  15   1.0000     -11.235485      -305.7331
  16   1.0000     -11.227777      -305.5233
  17   1.0000     -10.521596      -286.3072
  18   1.0000     -10.518360      -286.2191
  19   1.0000     -10.516254      -286.1618
  20   1.0000      -7.988422      -217.3760
  21   1.0000      -7.987679      -217.3558
  22   1.0000      -7.987625      -217.3543
  23   1.0000      -7.985241      -217.2895
  24   1.0000      -7.984456      -217.2681
  25   1.0000      -7.984403      -217.2666
  26   1.0000      -7.983039      -217.2295
  27   1.0000      -7.982386      -217.2118
  28   1.0000      -7.982339      -217.2105
  29   1.0000      -4.599647      -125.1628
  30   1.0000      -3.212807       -87.4249
  31   1.0000      -3.211020       -87.3763
  32   1.0000      -3.210874       -87.3723
  33   1.0000      -1.467466       -39.9318
  34   1.0000      -1.123345       -30.5678
  35   1.0000      -1.101999       -29.9869
  36   1.0000      -1.068124       -29.0651
  37   1.0000      -1.062292       -28.9064
  38   1.0000      -1.059352       -28.8264
  39   1.0000      -1.021338       -27.7920
  40   1.0000      -1.009295       -27.4643
  41   1.0000      -0.956424       -26.0256
  42   1.0000      -0.943814       -25.6825
  43   1.0000      -0.928527       -25.2665
  44   1.0000      -0.928390       -25.2628
  45   1.0000      -0.917610       -24.9694
  46   1.0000      -0.916966       -24.9519
  47   1.0000      -0.894106       -24.3299
  48   1.0000      -0.815669       -22.1955
  49   1.0000      -0.727033       -19.7836
  50   1.0000      -0.714238       -19.4354
  51   1.0000      -0.704136       -19.1605
  52   1.0000      -0.684548       -18.6275
  53   1.0000      -0.652860       -17.7652
  54   1.0000      -0.621424       -16.9098
  55   1.0000      -0.619097       -16.8465
  56   1.0000      -0.604525       -16.4500
  57   1.0000      -0.599745       -16.3199
  58   1.0000      -0.586194       -15.9511
  59   1.0000      -0.579557       -15.7706
  60   1.0000      -0.560996       -15.2655
  61   1.0000      -0.549949       -14.9649
  62   1.0000      -0.546669       -14.8756
  63   1.0000      -0.538630       -14.6569
  64   1.0000      -0.537376       -14.6228
  65   1.0000      -0.524430       -14.2705
  66   1.0000      -0.505041       -13.7429
  67   1.0000      -0.490830       -13.3562
  68   1.0000      -0.477703       -12.9990
  69   1.0000      -0.477567       -12.9953
  70   1.0000      -0.447874       -12.1873
  71   1.0000      -0.441554       -12.0153
  72   1.0000      -0.439686       -11.9645
  73   1.0000      -0.431104       -11.7309
  74   1.0000      -0.430151       -11.7050
  75   1.0000      -0.428830       -11.6691
  76   1.0000      -0.357908        -9.7392
  77   0.0000       0.012679         0.3450
  78   0.0000       0.023767         0.6467
  79   0.0000       0.024488         0.6663
  80   0.0000       0.030746         0.8366
  81   0.0000       0.039386         1.0718

                 SPIN DOWN ORBITALS
  NO   OCC          E(Eh)            E(eV)
   0   1.0000    -261.573557     -7117.7783
   1   1.0000    -104.793375     -2851.5727
   2   1.0000    -104.790102     -2851.4837
   3   1.0000    -104.788034     -2851.4274
   4   1.0000     -32.082848      -873.0187
   5   1.0000     -27.560786      -749.9671
   6   1.0000     -27.560678      -749.9642
   7   1.0000     -27.560590      -749.9618
   8   1.0000     -20.620448      -561.1109
   9   1.0000     -11.421975      -310.8077
  10   1.0000     -11.278490      -306.9033
  11   1.0000     -11.273040      -306.7550
  12   1.0000     -11.263443      -306.4939
  13   1.0000     -11.242135      -305.9140
  14   1.0000     -11.241356      -305.8928
  15   1.0000     -11.235489      -305.7332
  16   1.0000     -11.227786      -305.5236
  17   1.0000     -10.520001      -286.2638
  18   1.0000     -10.516694      -286.1738
  19   1.0000     -10.514584      -286.1164
  20   1.0000      -7.985926      -217.3081
  21   1.0000      -7.985172      -217.2876
  22   1.0000      -7.985135      -217.2866
  23   1.0000      -7.982571      -217.2168
  24   1.0000      -7.981884      -217.1981
  25   1.0000      -7.981792      -217.1956
  26   1.0000      -7.980578      -217.1626
  27   1.0000      -7.979668      -217.1378
  28   1.0000      -7.979586      -217.1356
  29   1.0000      -4.157595      -113.1339
  30   1.0000      -2.679134       -72.9029
  31   1.0000      -2.679109       -72.9023
  32   1.0000      -2.678668       -72.8903
  33   1.0000      -1.459112       -39.7045
  34   1.0000      -1.123046       -30.5596
  35   1.0000      -1.099736       -29.9253
  36   1.0000      -1.052392       -28.6370
  37   1.0000      -1.039799       -28.2944
  38   1.0000      -1.036506       -28.2048
  39   1.0000      -1.020472       -27.7685
  40   1.0000      -1.008959       -27.4552
  41   1.0000      -0.956309       -26.0225
  42   1.0000      -0.894203       -24.3325
  43   1.0000      -0.828342       -22.5403
  44   1.0000      -0.727105       -19.7855
  45   1.0000      -0.716011       -19.4836
  46   1.0000      -0.703341       -19.1389
  47   1.0000      -0.683958       -18.6114
  48   1.0000      -0.652806       -17.7637
  49   1.0000      -0.620887       -16.8952
  50   1.0000      -0.619009       -16.8441
  51   1.0000      -0.604334       -16.4448
  52   1.0000      -0.599657       -16.3175
  53   1.0000      -0.585912       -15.9435
  54   1.0000      -0.578119       -15.7314
  55   1.0000      -0.560175       -15.2431
  56   1.0000      -0.549613       -14.9557
  57   1.0000      -0.544913       -14.8278
  58   1.0000      -0.538494       -14.6532
  59   1.0000      -0.526940       -14.3388
  60   1.0000      -0.523477       -14.2445
  61   1.0000      -0.506948       -13.7948
  62   1.0000      -0.490670       -13.3518
  63   1.0000      -0.486262       -13.2319
  64   1.0000      -0.483751       -13.1635
  65   1.0000      -0.455013       -12.3815
  66   1.0000      -0.451818       -12.2946
  67   1.0000      -0.448796       -12.2124
  68   1.0000      -0.432412       -11.7665
  69   1.0000      -0.430204       -11.7065
  70   1.0000      -0.414221       -11.2715
  71   1.0000      -0.357453        -9.7268
  72   0.0000       0.012663         0.3446
  73   0.0000       0.023743         0.6461
  74   0.0000       0.024449         0.6653
  75   0.0000       0.030685         0.8350
  76   0.0000       0.039296         1.0693

E(0)                                       ...  -3028.469279136
E(0)                                       ...  -3028.469279136
E(CORR)(strong-pairs)                      ...     -2.866325712
E(CORR)(weak-pairs)                        ...     -0.035408915
E(CORR)(corrected)                         ...     -2.901734626
E(TOT)                                     ...  -3031.371013762
E(CCSD(T))                                 ...  -3031.488781559
FINAL SINGLE POINT ENERGY     -3031.488781559323

DIPOLE MOMENT
-------------
                                X             Y             Z
Electronic contribution:    -43.70137      -4.84559       1.66568
Nuclear contribution   :     46.92396       6.35845      -2.29853
                        -----------------------------------------
Total Dipole Moment    :      3.22259       1.51287      -0.63285
                        -----------------------------------------
Magnitude (a.u.)       :      3.61585
Magnitude (Debye)      :      9.19075

Rotational constants in cm-1:     0.018786     0.010667     0.010043
Rotational constants in MHz :   563.177301   319.774374   301.076879

                             ****ORCA TERMINATED NORMALLY****
TOTAL RUN TIME: 0 days 17 hours 12 minutes 33 seconds 735 msec
