                         Program Version 4.1.2  - RELEASE  -
|  1> ! aug-cc-pVTZ aug-cc-pVTZ/C DLPNO-CCSD(T1) TightSCF NormalPNO UNO MiniPrint AutoAux
|  2> %pal nproc 10 end
|  3> %maxcore 20000
|  4> %mdci
|  5>      density none
|  6> end
|  7>
|  8> * xyz 0 6
|  9>  O     -0.30547000     -0.19503900     -0.74122900
| 10>  C     -1.21290200     -1.11221500     -0.58568100
| 11>  C     -2.76619700     -0.30106200      0.47818300
| 12>  C     -2.54467200      0.94390900     -0.07130800
| 13>  C     -3.13530000      1.34668900     -1.38295800
| 14> Fe      1.42355700      0.12850000     -0.02132100
| 15> Cl      1.96758400      2.09208900     -0.83616100
| 16>  C     -1.65142800      1.95476200      0.55461300
| 17> Cl      2.64922000     -1.56212700     -0.69483200
| 18> Cl      1.19914500      0.16733900      2.18429600
| 19>  H     -3.55264000     -0.89021300      0.00924100
| 20>  H     -2.22753700      2.86980800      0.74864100
| 21>  H     -1.18811000      1.62544100      1.48247200
| 22>  H     -0.85866900      2.23251800     -0.15255500
| 23>  H     -3.65336500      2.30663500     -1.26418100
| 24>  H     -2.33386400      1.51949800     -2.11381300
| 25>  H     -3.84337700      0.61652800     -1.77847400
| 26>  C     -2.57008700     -0.57163200      1.95819300
| 27>  H     -3.31503600     -0.00663300      2.53128000
| 28>  H     -2.72046200     -1.62881000      2.18519400
| 29>  H     -1.58084100     -0.28451600      2.31984800
| 30>  C     -0.87442800     -2.26889000      0.33514600
| 31>  H     -1.72254000     -2.93696400      0.49781200
| 32>  H     -0.08479100     -2.82761300     -0.18510300
| 33>  H     -0.46313300     -1.93595300      1.28728500
| 34>  C     -1.88667200     -1.54106500     -1.87811000
| 35>  H     -1.14646500     -2.15286400     -2.40882300
| 36>  H     -2.77690400     -2.15124700     -1.70979300
| 37>  H     -2.12198800     -0.69340300     -2.51948200
| 38> *
| 39>
| 40>
| 41>                          ****END OF INPUT****

CARTESIAN COORDINATES (ANGSTROEM)
---------------------------------
  O     -0.305470   -0.195039   -0.741229
  C     -1.212902   -1.112215   -0.585681
  C     -2.766197   -0.301062    0.478183
  C     -2.544672    0.943909   -0.071308
  C     -3.135300    1.346689   -1.382958
  Fe     1.423557    0.128500   -0.021321
  Cl     1.967584    2.092089   -0.836161
  C     -1.651428    1.954762    0.554613
  Cl     2.649220   -1.562127   -0.694832
  Cl     1.199145    0.167339    2.184296
  H     -3.552640   -0.890213    0.009241
  H     -2.227537    2.869808    0.748641
  H     -1.188110    1.625441    1.482472
  H     -0.858669    2.232518   -0.152555
  H     -3.653365    2.306635   -1.264181
  H     -2.333864    1.519498   -2.113813
  H     -3.843377    0.616528   -1.778474
  C     -2.570087   -0.571632    1.958193
  H     -3.315036   -0.006633    2.531280
  H     -2.720462   -1.628810    2.185194
  H     -1.580841   -0.284516    2.319848
  C     -0.874428   -2.268890    0.335146
  H     -1.722540   -2.936964    0.497812
  H     -0.084791   -2.827613   -0.185103
  H     -0.463133   -1.935953    1.287285
  C     -1.886672   -1.541065   -1.878110
  H     -1.146465   -2.152864   -2.408823
  H     -2.776904   -2.151247   -1.709793
  H     -2.121988   -0.693403   -2.519482

ORBITAL ENERGIES
----------------
                 SPIN UP ORBITALS
  NO   OCC          E(Eh)            E(eV)
   0   1.0000    -261.557042     -7117.3289
   1   1.0000    -104.781844     -2851.2589
   2   1.0000    -104.777241     -2851.1337
   3   1.0000    -104.776991     -2851.1269
   4   1.0000     -32.224917      -876.8846
   5   1.0000     -27.700995      -753.7824
   6   1.0000     -27.700505      -753.7691
   7   1.0000     -27.700296      -753.7634
   8   1.0000     -20.568961      -559.7099
   9   1.0000     -11.398084      -310.1576
  10   1.0000     -11.337516      -308.5095
  11   1.0000     -11.272525      -306.7410
  12   1.0000     -11.271664      -306.7176
  13   1.0000     -11.261056      -306.4289
  14   1.0000     -11.254574      -306.2525
  15   1.0000     -11.253687      -306.2284
  16   1.0000     -11.248537      -306.0882
  17   1.0000     -10.508490      -285.9505
  18   1.0000     -10.503841      -285.8241
  19   1.0000     -10.503635      -285.8184
  20   1.0000      -7.975371      -217.0209
  21   1.0000      -7.974521      -216.9977
  22   1.0000      -7.974490      -216.9969
  23   1.0000      -7.970654      -216.8925
  24   1.0000      -7.970482      -216.8878
  25   1.0000      -7.969948      -216.8733
  26   1.0000      -7.969875      -216.8713
  27   1.0000      -7.969736      -216.8675
  28   1.0000      -7.969667      -216.8657
  29   1.0000      -4.580161      -124.6325
  30   1.0000      -3.192873       -86.8825
  31   1.0000      -3.192036       -86.8597
  32   1.0000      -3.191682       -86.8501
  33   1.0000      -1.413046       -38.4509
  34   1.0000      -1.166916       -31.7534
  35   1.0000      -1.085088       -29.5267
  36   1.0000      -1.052935       -28.6518
  37   1.0000      -1.047148       -28.4943
  38   1.0000      -1.044406       -28.4197
  39   1.0000      -1.039005       -28.2728
  40   1.0000      -0.993690       -27.0397
  41   1.0000      -0.985796       -26.8249
  42   1.0000      -0.927600       -25.2413
  43   1.0000      -0.918981       -25.0067
  44   1.0000      -0.909421       -24.7466
  45   1.0000      -0.909358       -24.7449
  46   1.0000      -0.900245       -24.4969
  47   1.0000      -0.899512       -24.4770
  48   1.0000      -0.791242       -21.5308
  49   1.0000      -0.759421       -20.6649
  50   1.0000      -0.692707       -18.8495
  51   1.0000      -0.688767       -18.7423
  52   1.0000      -0.677402       -18.4330
  53   1.0000      -0.663056       -18.0427
  54   1.0000      -0.646687       -17.5973
  55   1.0000      -0.625970       -17.0335
  56   1.0000      -0.601904       -16.3786
  57   1.0000      -0.593250       -16.1432
  58   1.0000      -0.583393       -15.8749
  59   1.0000      -0.575398       -15.6574
  60   1.0000      -0.570504       -15.5242
  61   1.0000      -0.562910       -15.3176
  62   1.0000      -0.553852       -15.0711
  63   1.0000      -0.549213       -14.9448
  64   1.0000      -0.539795       -14.6886
  65   1.0000      -0.521295       -14.1852
  66   1.0000      -0.518893       -14.1198
  67   1.0000      -0.480784       -13.0828
  68   1.0000      -0.465375       -12.6635
  69   1.0000      -0.458958       -12.4889
  70   1.0000      -0.432265       -11.7625
  71   1.0000      -0.429363       -11.6835
  72   1.0000      -0.427619       -11.6361
  73   1.0000      -0.418599       -11.3906
  74   1.0000      -0.417263       -11.3543
  75   1.0000      -0.416423       -11.3314
  76   1.0000      -0.383663       -10.4400
  77   0.0000       0.009641         0.2624
  78   0.0000       0.020101         0.5470
  79   0.0000       0.022000         0.5986
  80   0.0000       0.026793         0.7291
  81   0.0000       0.033086         0.9003

                 SPIN DOWN ORBITALS
  NO   OCC          E(Eh)            E(eV)
   0   1.0000    -261.553489     -7117.2323
   1   1.0000    -104.780465     -2851.2214
   2   1.0000    -104.775815     -2851.0949
   3   1.0000    -104.775511     -2851.0866
   4   1.0000     -32.062843      -872.4743
   5   1.0000     -27.540846      -749.4245
   6   1.0000     -27.540741      -749.4217
   7   1.0000     -27.540381      -749.4119
   8   1.0000     -20.564257      -559.5819
   9   1.0000     -11.398055      -310.1568
  10   1.0000     -11.337345      -308.5048
  11   1.0000     -11.272548      -306.7416
  12   1.0000     -11.271600      -306.7158
  13   1.0000     -11.260941      -306.4258
  14   1.0000     -11.254551      -306.2519
  15   1.0000     -11.253732      -306.2296
  16   1.0000     -11.248544      -306.0884
  17   1.0000     -10.507008      -285.9102
  18   1.0000     -10.502318      -285.7826
  19   1.0000     -10.502052      -285.7754
  20   1.0000      -7.972880      -216.9531
  21   1.0000      -7.972338      -216.9383
  22   1.0000      -7.972275      -216.9366
  23   1.0000      -7.968291      -216.8282
  24   1.0000      -7.967978      -216.8197
  25   1.0000      -7.967556      -216.8082
  26   1.0000      -7.967465      -216.8057
  27   1.0000      -7.967281      -216.8007
  28   1.0000      -7.967198      -216.7985
  29   1.0000      -4.137840      -112.5963
  30   1.0000      -2.659588       -72.3711
  31   1.0000      -2.659541       -72.3698
  32   1.0000      -2.658687       -72.3466
  33   1.0000      -1.401079       -38.1253
  34   1.0000      -1.166075       -31.7305
  35   1.0000      -1.082322       -29.4515
  36   1.0000      -1.039940       -28.2982
  37   1.0000      -1.037161       -28.2226
  38   1.0000      -1.026192       -27.9241
  39   1.0000      -1.023264       -27.8444
  40   1.0000      -0.993367       -27.0309
  41   1.0000      -0.985213       -26.8090
  42   1.0000      -0.922269       -25.0962
  43   1.0000      -0.804291       -21.8859
  44   1.0000      -0.760016       -20.6811
  45   1.0000      -0.694036       -18.8857
  46   1.0000      -0.688194       -18.7267
  47   1.0000      -0.678429       -18.4610
  48   1.0000      -0.662351       -18.0235
  49   1.0000      -0.646451       -17.5908
  50   1.0000      -0.625507       -17.0209
  51   1.0000      -0.601043       -16.3552
  52   1.0000      -0.593369       -16.1464
  53   1.0000      -0.583224       -15.8703
  54   1.0000      -0.574811       -15.6414
  55   1.0000      -0.570226       -15.5166
  56   1.0000      -0.562615       -15.3095
  57   1.0000      -0.553620       -15.0648
  58   1.0000      -0.548433       -14.9236
  59   1.0000      -0.535574       -14.5737
  60   1.0000      -0.521170       -14.1818
  61   1.0000      -0.509085       -13.8529
  62   1.0000      -0.479522       -13.0485
  63   1.0000      -0.470795       -12.8110
  64   1.0000      -0.468122       -12.7382
  65   1.0000      -0.441960       -12.0263
  66   1.0000      -0.438790       -11.9401
  67   1.0000      -0.436531       -11.8786
  68   1.0000      -0.423171       -11.5151
  69   1.0000      -0.416651       -11.3376
  70   1.0000      -0.403047       -10.9675
  71   1.0000      -0.380395       -10.3511
  72   0.0000       0.009637         0.2622
  73   0.0000       0.020051         0.5456
  74   0.0000       0.021992         0.5984
  75   0.0000       0.026392         0.7182
  76   0.0000       0.032781         0.8920

E(0)                                       ...  -3028.430137923
E(0)                                       ...  -3028.430137923
E(CORR)(strong-pairs)                      ...     -2.874412887
E(CORR)(weak-pairs)                        ...     -0.036429523
E(CORR)(corrected)                         ...     -2.910842410
E(TOT)                                     ...  -3031.340980333
E(CCSD(T))                                 ...  -3031.461180668
FINAL SINGLE POINT ENERGY     -3031.461180668147

DIPOLE MOMENT
-------------
                                X             Y             Z
Electronic contribution:     41.15963       5.13024       1.38635
Nuclear contribution   :    -45.63441      -5.61748      -1.86464
                        -----------------------------------------
Total Dipole Moment    :     -4.47478      -0.48724      -0.47829
                        -----------------------------------------
Magnitude (a.u.)       :      4.52657
Magnitude (Debye)      :     11.50561

Rotational constants in cm-1:     0.019162     0.011281     0.010563
Rotational constants in MHz :   574.454344   338.191740   316.664461

                             ****ORCA TERMINATED NORMALLY****
TOTAL RUN TIME: 0 days 21 hours 38 minutes 23 seconds 955 msec
