                         Program Version 4.1.2  - RELEASE  -
|  1> ! aug-cc-pVTZ aug-cc-pVTZ/C DLPNO-CCSD(T1) TightSCF NormalPNO UNO MiniPrint AutoAux
|  2> %pal nproc 10 end
|  3> %maxcore 20000
|  4> %mdci
|  5>      density none
|  6> end
|  7>
|  8> * xyz 0 6
|  9>  O     -0.35288500     -0.08814400     -0.41484300
| 10>  C     -1.26910200     -1.08207200     -0.27347100
| 11>  C     -2.50261100     -0.47244100      0.63719200
| 12>  C     -2.83899900      0.75073300     -0.04326900
| 13>  C     -3.88952700      0.77369800     -1.09136000
| 14> Fe      1.46100300      0.17169300     -0.07671400
| 15> Cl      1.69876600      2.26553400     -0.75173500
| 16>  C     -2.06858000      1.95347300      0.17877200
| 17> Cl      2.56177300     -1.36051100     -1.20987600
| 18> Cl      1.74151800     -0.00773900      2.11777800
| 19>  H     -3.30605300     -1.20686200      0.52808700
| 20>  H     -2.43965500      2.84288500     -0.33066800
| 21>  H     -1.80763500      2.14375700      1.22217900
| 22>  H     -1.08773800      1.62623100     -0.27398700
| 23>  H     -4.72876000      1.36474300     -0.69101200
| 24>  H     -3.54558000      1.30986200     -1.98429300
| 25>  H     -4.26081700     -0.21577100     -1.35850500
| 26>  C     -2.06939400     -0.30721100      2.10196100
| 27>  H     -2.77504500      0.33442600      2.63926700
| 28>  H     -2.06079700     -1.27824400      2.59938600
| 29>  H     -1.06772100      0.12072700      2.18198000
| 30>  C     -0.72426800     -2.29712400      0.50039400
| 31>  H     -1.51087200     -3.03144300      0.70149200
| 32>  H      0.03937500     -2.76286100     -0.13035800
| 33>  H     -0.24761300     -2.00202200      1.43510400
| 34>  C     -1.77020600     -1.53517500     -1.65382300
| 35>  H     -0.93818600     -2.03535000     -2.15723000
| 36>  H     -2.60641900     -2.23956000     -1.58331700
| 37>  H     -2.05832000     -0.68647700     -2.27803500
| 38> *
| 39>
| 40>
| 41>                          ****END OF INPUT****

CARTESIAN COORDINATES (ANGSTROEM)
---------------------------------
  O     -0.352885   -0.088144   -0.414843
  C     -1.269102   -1.082072   -0.273471
  C     -2.502611   -0.472441    0.637192
  C     -2.838999    0.750733   -0.043269
  C     -3.889527    0.773698   -1.091360
  Fe     1.461003    0.171693   -0.076714
  Cl     1.698766    2.265534   -0.751735
  C     -2.068580    1.953473    0.178772
  Cl     2.561773   -1.360511   -1.209876
  Cl     1.741518   -0.007739    2.117778
  H     -3.306053   -1.206862    0.528087
  H     -2.439655    2.842885   -0.330668
  H     -1.807635    2.143757    1.222179
  H     -1.087738    1.626231   -0.273987
  H     -4.728760    1.364743   -0.691012
  H     -3.545580    1.309862   -1.984293
  H     -4.260817   -0.215771   -1.358505
  C     -2.069394   -0.307211    2.101961
  H     -2.775045    0.334426    2.639267
  H     -2.060797   -1.278244    2.599386
  H     -1.067721    0.120727    2.181980
  C     -0.724268   -2.297124    0.500394
  H     -1.510872   -3.031443    0.701492
  H      0.039375   -2.762861   -0.130358
  H     -0.247613   -2.002022    1.435104
  C     -1.770206   -1.535175   -1.653823
  H     -0.938186   -2.035350   -2.157230
  H     -2.606419   -2.239560   -1.583317
  H     -2.058320   -0.686477   -2.278035

ORBITAL ENERGIES
----------------
                 SPIN UP ORBITALS
  NO   OCC          E(Eh)            E(eV)
   0   1.0000    -261.538959     -7116.8369
   1   1.0000    -104.767566     -2850.8704
   2   1.0000    -104.766963     -2850.8540
   3   1.0000    -104.765146     -2850.8046
   4   1.0000     -32.206896      -876.3942
   5   1.0000     -27.682730      -753.2854
   6   1.0000     -27.682650      -753.2832
   7   1.0000     -27.682370      -753.2756
   8   1.0000     -20.533686      -558.7500
   9   1.0000     -11.403375      -310.3016
  10   1.0000     -11.341555      -308.6194
  11   1.0000     -11.307911      -307.7039
  12   1.0000     -11.291914      -307.2686
  13   1.0000     -11.276893      -306.8599
  14   1.0000     -11.255494      -306.2776
  15   1.0000     -11.242447      -305.9225
  16   1.0000     -11.232023      -305.6389
  17   1.0000     -10.494143      -285.5601
  18   1.0000     -10.493499      -285.5426
  19   1.0000     -10.491734      -285.4946
  20   1.0000      -7.961023      -216.6305
  21   1.0000      -7.960336      -216.6118
  22   1.0000      -7.960191      -216.6078
  23   1.0000      -7.960128      -216.6061
  24   1.0000      -7.959590      -216.5915
  25   1.0000      -7.959494      -216.5889
  26   1.0000      -7.958549      -216.5631
  27   1.0000      -7.957837      -216.5437
  28   1.0000      -7.957762      -216.5417
  29   1.0000      -4.562400      -124.1492
  30   1.0000      -3.174872       -86.3927
  31   1.0000      -3.174600       -86.3852
  32   1.0000      -3.174026       -86.3696
  33   1.0000      -1.367730       -37.2178
  34   1.0000      -1.205398       -32.8005
  35   1.0000      -1.092571       -29.7304
  36   1.0000      -1.046896       -28.4875
  37   1.0000      -1.038500       -28.2590
  38   1.0000      -1.033265       -28.1166
  39   1.0000      -1.031582       -28.0708
  40   1.0000      -1.021210       -27.7885
  41   1.0000      -0.966492       -26.2996
  42   1.0000      -0.934158       -25.4197
  43   1.0000      -0.903971       -24.5983
  44   1.0000      -0.892054       -24.2740
  45   1.0000      -0.891953       -24.2713
  46   1.0000      -0.883783       -24.0490
  47   1.0000      -0.883460       -24.0402
  48   1.0000      -0.805157       -21.9094
  49   1.0000      -0.768638       -20.9157
  50   1.0000      -0.716703       -19.5025
  51   1.0000      -0.700069       -19.0499
  52   1.0000      -0.679202       -18.4820
  53   1.0000      -0.648964       -17.6592
  54   1.0000      -0.647061       -17.6074
  55   1.0000      -0.633369       -17.2349
  56   1.0000      -0.612265       -16.6606
  57   1.0000      -0.600343       -16.3362
  58   1.0000      -0.591403       -16.0929
  59   1.0000      -0.584155       -15.8957
  60   1.0000      -0.570848       -15.5336
  61   1.0000      -0.562567       -15.3082
  62   1.0000      -0.553780       -15.0691
  63   1.0000      -0.537615       -14.6292
  64   1.0000      -0.528568       -14.3831
  65   1.0000      -0.513616       -13.9762
  66   1.0000      -0.499756       -13.5991
  67   1.0000      -0.464096       -12.6287
  68   1.0000      -0.458738       -12.4829
  69   1.0000      -0.439333       -11.9549
  70   1.0000      -0.431210       -11.7338
  71   1.0000      -0.418351       -11.3839
  72   1.0000      -0.414067       -11.2673
  73   1.0000      -0.409878       -11.1534
  74   1.0000      -0.406715       -11.0673
  75   1.0000      -0.405381       -11.0310
  76   1.0000      -0.404704       -11.0126
  77   0.0000      -0.002044        -0.0556
  78   0.0000       0.001344         0.0366
  79   0.0000       0.017124         0.4660
  80   0.0000       0.017874         0.4864
  81   0.0000       0.027402         0.7457

                 SPIN DOWN ORBITALS
  NO   OCC          E(Eh)            E(eV)
   0   1.0000    -261.535411     -7116.7404
   1   1.0000    -104.766217     -2850.8337
   2   1.0000    -104.765634     -2850.8178
   3   1.0000    -104.763742     -2850.7663
   4   1.0000     -32.044852      -871.9848
   5   1.0000     -27.522953      -748.9376
   6   1.0000     -27.522752      -748.9321
   7   1.0000     -27.522247      -748.9184
   8   1.0000     -20.527759      -558.5887
   9   1.0000     -11.403376      -310.3016
  10   1.0000     -11.341416      -308.6156
  11   1.0000     -11.307912      -307.7039
  12   1.0000     -11.291777      -307.2649
  13   1.0000     -11.276902      -306.8601
  14   1.0000     -11.255516      -306.2782
  15   1.0000     -11.242351      -305.9199
  16   1.0000     -11.231982      -305.6378
  17   1.0000     -10.492691      -285.5206
  18   1.0000     -10.492072      -285.5038
  19   1.0000     -10.490229      -285.4536
  20   1.0000      -7.958578      -216.5639
  21   1.0000      -7.958056      -216.5497
  22   1.0000      -7.958015      -216.5486
  23   1.0000      -7.957977      -216.5476
  24   1.0000      -7.957431      -216.5327
  25   1.0000      -7.957323      -216.5298
  26   1.0000      -7.956203      -216.4993
  27   1.0000      -7.955491      -216.4799
  28   1.0000      -7.955421      -216.4780
  29   1.0000      -4.120213      -112.1167
  30   1.0000      -2.642135       -71.8962
  31   1.0000      -2.642035       -71.8934
  32   1.0000      -2.641124       -71.8686
  33   1.0000      -1.352787       -36.8112
  34   1.0000      -1.204210       -32.7682
  35   1.0000      -1.090044       -29.6616
  36   1.0000      -1.046087       -28.4655
  37   1.0000      -1.024454       -27.8768
  38   1.0000      -1.020097       -27.7582
  39   1.0000      -1.013276       -27.5726
  40   1.0000      -1.011804       -27.5326
  41   1.0000      -0.965751       -26.2794
  42   1.0000      -0.933543       -25.4030
  43   1.0000      -0.809805       -22.0359
  44   1.0000      -0.775897       -21.1132
  45   1.0000      -0.717450       -19.5228
  46   1.0000      -0.699507       -19.0345
  47   1.0000      -0.679427       -18.4881
  48   1.0000      -0.649330       -17.6692
  49   1.0000      -0.647590       -17.6218
  50   1.0000      -0.632479       -17.2106
  51   1.0000      -0.612348       -16.6628
  52   1.0000      -0.600310       -16.3353
  53   1.0000      -0.591226       -16.0881
  54   1.0000      -0.582862       -15.8605
  55   1.0000      -0.569273       -15.4907
  56   1.0000      -0.562363       -15.3027
  57   1.0000      -0.553487       -15.0612
  58   1.0000      -0.537418       -14.6239
  59   1.0000      -0.526208       -14.3189
  60   1.0000      -0.509860       -13.8740
  61   1.0000      -0.494484       -13.4556
  62   1.0000      -0.461827       -12.5670
  63   1.0000      -0.459557       -12.5052
  64   1.0000      -0.444496       -12.0953
  65   1.0000      -0.438548       -11.9335
  66   1.0000      -0.428915       -11.6714
  67   1.0000      -0.425751       -11.5853
  68   1.0000      -0.424685       -11.5563
  69   1.0000      -0.404474       -11.0063
  70   1.0000      -0.396780       -10.7969
  71   1.0000      -0.391696       -10.6586
  72   0.0000      -0.002124        -0.0578
  73   0.0000       0.001326         0.0361
  74   0.0000       0.017117         0.4658
  75   0.0000       0.017860         0.4860
  76   0.0000       0.027420         0.7461

E(0)                                       ...  -3028.424363055
E(0)                                       ...  -3028.424363055
E(CORR)(strong-pairs)                      ...     -2.873343077
E(CORR)(weak-pairs)                        ...     -0.035471408
E(CORR)(corrected)                         ...     -2.908814485
E(TOT)                                     ...  -3031.333177540
E(CCSD(T))                                 ...  -3031.451587601
FINAL SINGLE POINT ENERGY     -3031.451587601202

DIPOLE MOMENT
-------------
                                X             Y             Z
Electronic contribution:     40.99266       7.36434      -0.65923
Nuclear contribution   :    -46.81221      -7.37867       0.56235
                        -----------------------------------------
Total Dipole Moment    :     -5.81955      -0.01433      -0.09688
                        -----------------------------------------
Magnitude (a.u.)       :      5.82037
Magnitude (Debye)      :     14.79421

Rotational constants in cm-1:     0.019674     0.010782     0.010218
Rotational constants in MHz :   589.819724   323.233529   306.331115

                             ****ORCA TERMINATED NORMALLY****
TOTAL RUN TIME: 0 days 20 hours 15 minutes 22 seconds 451 msec
