                         Program Version 4.1.2  - RELEASE  -
|  1> ! aug-cc-pVTZ aug-cc-pVTZ/C DLPNO-CCSD(T1) TightSCF NormalPNO UNO MiniPrint AutoAux
|  2> %pal nproc 10 end
|  3> %maxcore 20000
|  4> %mdci
|  5>      density none
|  6> end
|  7>
|  8> * xyz 0 6
|  9>  O     -0.33587300     -0.11724300     -0.44122200
| 10>  C     -1.21693800     -1.08900000     -0.27341300
| 11>  C     -2.58635900     -0.37799200      0.74720100
| 12>  C     -2.92541400      0.72390900     -0.05488600
| 13>  C     -3.97443600      0.62780200     -1.10671500
| 14> Fe      1.48965100      0.17399400     -0.08403300
| 15> Cl      1.79005400      2.20450700     -0.87763000
| 16>  C     -2.17080600      1.97945400      0.04086600
| 17> Cl      2.54185800     -1.45222000     -1.12620700
| 18> Cl      1.76643000      0.09079300      2.10952900
| 19>  H     -3.30964400     -1.19316300      0.69647800
| 20>  H     -2.59400500      2.79041900     -0.55427100
| 21>  H     -1.99458800      2.29991700      1.07135900
| 22>  H     -1.16453300      1.72168700     -0.35727200
| 23>  H     -4.80259800      1.28913700     -0.81059100
| 24>  H     -3.60964500      1.01391000     -2.06666900
| 25>  H     -4.36883300     -0.38122300     -1.23418900
| 26>  C     -2.02273600     -0.11671800      2.14020400
| 27>  H     -2.67754300      0.57039500      2.68708000
| 28>  H     -1.96785400     -1.04413200      2.71196600
| 29>  H     -1.02051500      0.31594600      2.10406100
| 30>  C     -0.74608800     -2.24689200      0.61059800
| 31>  H     -1.55767200     -2.93873400      0.85183900
| 32>  H      0.01109700     -2.78413800      0.02733900
| 33>  H     -0.26741400     -1.89530300      1.52386000
| 34>  C     -1.79968300     -1.58696800     -1.59344300
| 35>  H     -1.01202300     -2.16551200     -2.08792700
| 36>  H     -2.66696100     -2.23875000     -1.45113200
| 37>  H     -2.05825200     -0.76028700     -2.25656000
| 38> *
| 39>
| 40>
| 41>                          ****END OF INPUT****

CARTESIAN COORDINATES (ANGSTROEM)
---------------------------------
  O     -0.335873   -0.117243   -0.441222
  C     -1.216938   -1.089000   -0.273413
  C     -2.586359   -0.377992    0.747201
  C     -2.925414    0.723909   -0.054886
  C     -3.974436    0.627802   -1.106715
  Fe     1.489651    0.173994   -0.084033
  Cl     1.790054    2.204507   -0.877630
  C     -2.170806    1.979454    0.040866
  Cl     2.541858   -1.452220   -1.126207
  Cl     1.766430    0.090793    2.109529
  H     -3.309644   -1.193163    0.696478
  H     -2.594005    2.790419   -0.554271
  H     -1.994588    2.299917    1.071359
  H     -1.164533    1.721687   -0.357272
  H     -4.802598    1.289137   -0.810591
  H     -3.609645    1.013910   -2.066669
  H     -4.368833   -0.381223   -1.234189
  C     -2.022736   -0.116718    2.140204
  H     -2.677543    0.570395    2.687080
  H     -1.967854   -1.044132    2.711966
  H     -1.020515    0.315946    2.104061
  C     -0.746088   -2.246892    0.610598
  H     -1.557672   -2.938734    0.851839
  H      0.011097   -2.784138    0.027339
  H     -0.267414   -1.895303    1.523860
  C     -1.799683   -1.586968   -1.593443
  H     -1.012023   -2.165512   -2.087927
  H     -2.666961   -2.238750   -1.451132
  H     -2.058252   -0.760287   -2.256560

ORBITAL ENERGIES
----------------
                 SPIN UP ORBITALS
  NO   OCC          E(Eh)            E(eV)
   0   1.0000    -261.546137     -7117.0322
   1   1.0000    -104.772275     -2850.9985
   2   1.0000    -104.770411     -2850.9478
   3   1.0000    -104.769492     -2850.9228
   4   1.0000     -32.214050      -876.5889
   5   1.0000     -27.690046      -753.4844
   6   1.0000     -27.689678      -753.4745
   7   1.0000     -27.689483      -753.4691
   8   1.0000     -20.550489      -559.2072
   9   1.0000     -11.374238      -309.5088
  10   1.0000     -11.371593      -309.4368
  11   1.0000     -11.295102      -307.3553
  12   1.0000     -11.284829      -307.0758
  13   1.0000     -11.268729      -306.6377
  14   1.0000     -11.251741      -306.1754
  15   1.0000     -11.251374      -306.1654
  16   1.0000     -11.243244      -305.9442
  17   1.0000     -10.498892      -285.6894
  18   1.0000     -10.496989      -285.6376
  19   1.0000     -10.496108      -285.6136
  20   1.0000      -7.965761      -216.7594
  21   1.0000      -7.964943      -216.7371
  22   1.0000      -7.964894      -216.7358
  23   1.0000      -7.963813      -216.7064
  24   1.0000      -7.963099      -216.6869
  25   1.0000      -7.963003      -216.6843
  26   1.0000      -7.962954      -216.6830
  27   1.0000      -7.962208      -216.6627
  28   1.0000      -7.962128      -216.6605
  29   1.0000      -4.569455      -124.3412
  30   1.0000      -3.182093       -86.5891
  31   1.0000      -3.181488       -86.5727
  32   1.0000      -3.181001       -86.5594
  33   1.0000      -1.389734       -37.8166
  34   1.0000      -1.189690       -32.3731
  35   1.0000      -1.081938       -29.4410
  36   1.0000      -1.046180       -28.4680
  37   1.0000      -1.043472       -28.3943
  38   1.0000      -1.038171       -28.2501
  39   1.0000      -1.036309       -28.1994
  40   1.0000      -1.011445       -27.5228
  41   1.0000      -0.975909       -26.5558
  42   1.0000      -0.930398       -25.3174
  43   1.0000      -0.912578       -24.8325
  44   1.0000      -0.898929       -24.4611
  45   1.0000      -0.898892       -24.4601
  46   1.0000      -0.889997       -24.2180
  47   1.0000      -0.889630       -24.2081
  48   1.0000      -0.791098       -21.5269
  49   1.0000      -0.769806       -20.9475
  50   1.0000      -0.704172       -19.1615
  51   1.0000      -0.693798       -18.8792
  52   1.0000      -0.669953       -18.2304
  53   1.0000      -0.658853       -17.9283
  54   1.0000      -0.652847       -17.7649
  55   1.0000      -0.631240       -17.1769
  56   1.0000      -0.603194       -16.4137
  57   1.0000      -0.599105       -16.3025
  58   1.0000      -0.592075       -16.1112
  59   1.0000      -0.580811       -15.8047
  60   1.0000      -0.574641       -15.6368
  61   1.0000      -0.563359       -15.3298
  62   1.0000      -0.558055       -15.1855
  63   1.0000      -0.539754       -14.6875
  64   1.0000      -0.535669       -14.5763
  65   1.0000      -0.520892       -14.1742
  66   1.0000      -0.507252       -13.8030
  67   1.0000      -0.469961       -12.7883
  68   1.0000      -0.459448       -12.5022
  69   1.0000      -0.446291       -12.1442
  70   1.0000      -0.426466       -11.6047
  71   1.0000      -0.422793       -11.5048
  72   1.0000      -0.419089       -11.4040
  73   1.0000      -0.411290       -11.1918
  74   1.0000      -0.409312       -11.1379
  75   1.0000      -0.408817       -11.1245
  76   1.0000      -0.400321       -10.8933
  77   0.0000       0.004345         0.1182
  78   0.0000       0.010145         0.2761
  79   0.0000       0.018439         0.5018
  80   0.0000       0.019638         0.5344
  81   0.0000       0.028515         0.7759

                 SPIN DOWN ORBITALS
  NO   OCC          E(Eh)            E(eV)
   0   1.0000    -261.542585     -7116.9356
   1   1.0000    -104.770889     -2850.9608
   2   1.0000    -104.769025     -2850.9101
   3   1.0000    -104.768056     -2850.8837
   4   1.0000     -32.051979      -872.1787
   5   1.0000     -27.530016      -749.1298
   6   1.0000     -27.529881      -749.1261
   7   1.0000     -27.529459      -749.1147
   8   1.0000     -20.545269      -559.0652
   9   1.0000     -11.374112      -309.5053
  10   1.0000     -11.371547      -309.4355
  11   1.0000     -11.295121      -307.3559
  12   1.0000     -11.284692      -307.0721
  13   1.0000     -11.268754      -306.6384
  14   1.0000     -11.251770      -306.1762
  15   1.0000     -11.251269      -306.1626
  16   1.0000     -11.243218      -305.9435
  17   1.0000     -10.497403      -285.6489
  18   1.0000     -10.495506      -285.5972
  19   1.0000     -10.494569      -285.5717
  20   1.0000      -7.963294      -216.6923
  21   1.0000      -7.962725      -216.6768
  22   1.0000      -7.962650      -216.6747
  23   1.0000      -7.961471      -216.6426
  24   1.0000      -7.960800      -216.6244
  25   1.0000      -7.960695      -216.6215
  26   1.0000      -7.960505      -216.6164
  27   1.0000      -7.959834      -216.5981
  28   1.0000      -7.959752      -216.5959
  29   1.0000      -4.127165      -112.3059
  30   1.0000      -2.648978       -72.0823
  31   1.0000      -2.648924       -72.0809
  32   1.0000      -2.648078       -72.0579
  33   1.0000      -1.376400       -37.4538
  34   1.0000      -1.188727       -32.3469
  35   1.0000      -1.079372       -29.3712
  36   1.0000      -1.045306       -28.4442
  37   1.0000      -1.029016       -28.0010
  38   1.0000      -1.017587       -27.6900
  39   1.0000      -1.015946       -27.6453
  40   1.0000      -1.011086       -27.5130
  41   1.0000      -0.975208       -26.5367
  42   1.0000      -0.929540       -25.2941
  43   1.0000      -0.800774       -21.7902
  44   1.0000      -0.773792       -21.0559
  45   1.0000      -0.704736       -19.1769
  46   1.0000      -0.693060       -18.8591
  47   1.0000      -0.670140       -18.2354
  48   1.0000      -0.661227       -17.9929
  49   1.0000      -0.651206       -17.7202
  50   1.0000      -0.630674       -17.1615
  51   1.0000      -0.603336       -16.4176
  52   1.0000      -0.598906       -16.2971
  53   1.0000      -0.590946       -16.0805
  54   1.0000      -0.580734       -15.8026
  55   1.0000      -0.574015       -15.6198
  56   1.0000      -0.562890       -15.3170
  57   1.0000      -0.558055       -15.1854
  58   1.0000      -0.538603       -14.6561
  59   1.0000      -0.535467       -14.5708
  60   1.0000      -0.516261       -14.0482
  61   1.0000      -0.500028       -13.6065
  62   1.0000      -0.467920       -12.7328
  63   1.0000      -0.462685       -12.5903
  64   1.0000      -0.454975       -12.3805
  65   1.0000      -0.433599       -11.7988
  66   1.0000      -0.430901       -11.7254
  67   1.0000      -0.429040       -11.6748
  68   1.0000      -0.424510       -11.5515
  69   1.0000      -0.408550       -11.1172
  70   1.0000      -0.395213       -10.7543
  71   1.0000      -0.393263       -10.7012
  72   0.0000       0.004356         0.1185
  73   0.0000       0.009989         0.2718
  74   0.0000       0.018438         0.5017
  75   0.0000       0.019610         0.5336
  76   0.0000       0.028509         0.7758

E(0)                                       ...  -3028.426516785
E(0)                                       ...  -3028.426516785
E(CORR)(strong-pairs)                      ...     -2.875300406
E(CORR)(weak-pairs)                        ...     -0.035391254
E(CORR)(corrected)                         ...     -2.910691660
E(TOT)                                     ...  -3031.337208446
E(CCSD(T))                                 ...  -3031.457305846
FINAL SINGLE POINT ENERGY     -3031.457305845736

DIPOLE MOMENT
-------------
                                X             Y             Z
Electronic contribution:     42.25656       6.67205      -1.09313
Nuclear contribution   :    -47.68540      -7.00827       0.98156
                        -----------------------------------------
Total Dipole Moment    :     -5.42884      -0.33623      -0.11157
                        -----------------------------------------
Magnitude (a.u.)       :      5.44039
Magnitude (Debye)      :     13.82837

Rotational constants in cm-1:     0.019718     0.010490     0.010002
Rotational constants in MHz :   591.137451   314.474076   299.845661

                             ****ORCA TERMINATED NORMALLY****
TOTAL RUN TIME: 0 days 21 hours 23 minutes 17 seconds 49 msec
