                         Program Version 4.1.2  - RELEASE  -
|  1> ! aug-cc-pVTZ aug-cc-pVTZ/C DLPNO-CCSD(T1) TightSCF NormalPNO UNO MiniPrint AutoAux
|  2> %pal nproc 10 end
|  3> %maxcore 20000
|  4> %mdci
|  5>      density none
|  6> end
|  7>
|  8> * xyz 0 6
|  9>  O     -0.35130600     -0.08681600     -0.51555600
| 10>  C     -1.26836500     -1.02968600     -0.46249600
| 11>  C     -3.06742600     -0.00558800     -0.10950900
| 12>  C     -2.20130100      1.06713400     -0.22240300
| 13>  C     -1.99410400      1.76014700     -1.52817500
| 14> Fe      1.44016500      0.05072400      0.05156500
| 15> Cl      2.02501600      1.99944600     -0.78747700
| 16>  C     -1.60057000      1.73433300      0.97195800
| 17> Cl      2.40433500     -1.74608800     -0.77921500
| 18> Cl      1.41424800      0.03767900      2.26243300
| 19>  H     -3.60569300     -0.27972600     -1.01403700
| 20>  H     -2.35300100      2.43360200      1.36653700
| 21>  H     -1.34684000      1.03894300      1.77301200
| 22>  H     -0.70894400      2.30479800      0.70635800
| 23>  H     -2.54205800      2.71261600     -1.47174100
| 24>  H     -0.93910700      1.99454500     -1.68916400
| 25>  H     -2.39240800      1.19874300     -2.37574500
| 26>  C     -3.72952300     -0.43603500      1.17565900
| 27>  H     -4.64290000      0.15276700      1.33214800
| 28>  H     -4.02964500     -1.48722300      1.13654500
| 29>  H     -3.09537400     -0.29573500      2.05334700
| 30>  C     -1.20535600     -1.96133400      0.71851700
| 31>  H     -2.06353400     -2.63214400      0.77663700
| 32>  H     -0.30234200     -2.56899600      0.56060800
| 33>  H     -1.06586200     -1.42443200      1.65736200
| 34>  C     -1.59632900     -1.66541000     -1.79113000
| 35>  H     -0.70814000     -2.25235900     -2.06429800
| 36>  H     -2.45956100     -2.33257700     -1.73519300
| 37>  H     -1.74175800     -0.91612800     -2.57073900
| 38> *
| 39>
| 40>
| 41>                          ****END OF INPUT****

CARTESIAN COORDINATES (ANGSTROEM)
---------------------------------
  O     -0.351306   -0.086816   -0.515556
  C     -1.268365   -1.029686   -0.462496
  C     -3.067426   -0.005588   -0.109509
  C     -2.201301    1.067134   -0.222403
  C     -1.994104    1.760147   -1.528175
  Fe     1.440165    0.050724    0.051565
  Cl     2.025016    1.999446   -0.787477
  C     -1.600570    1.734333    0.971958
  Cl     2.404335   -1.746088   -0.779215
  Cl     1.414248    0.037679    2.262433
  H     -3.605693   -0.279726   -1.014037
  H     -2.353001    2.433602    1.366537
  H     -1.346840    1.038943    1.773012
  H     -0.708944    2.304798    0.706358
  H     -2.542058    2.712616   -1.471741
  H     -0.939107    1.994545   -1.689164
  H     -2.392408    1.198743   -2.375745
  C     -3.729523   -0.436035    1.175659
  H     -4.642900    0.152767    1.332148
  H     -4.029645   -1.487223    1.136545
  H     -3.095374   -0.295735    2.053347
  C     -1.205356   -1.961334    0.718517
  H     -2.063534   -2.632144    0.776637
  H     -0.302342   -2.568996    0.560608
  H     -1.065862   -1.424432    1.657362
  C     -1.596329   -1.665410   -1.791130
  H     -0.708140   -2.252359   -2.064298
  H     -2.459561   -2.332577   -1.735193
  H     -1.741758   -0.916128   -2.570739

ORBITAL ENERGIES
----------------
                 SPIN UP ORBITALS
  NO   OCC          E(Eh)            E(eV)
   0   1.0000    -261.556879     -7117.3245
   1   1.0000    -104.779863     -2851.2050
   2   1.0000    -104.779559     -2851.1968
   3   1.0000    -104.779444     -2851.1936
   4   1.0000     -32.224746      -876.8799
   5   1.0000     -27.700827      -753.7778
   6   1.0000     -27.700325      -753.7642
   7   1.0000     -27.700159      -753.7597
   8   1.0000     -20.564540      -559.5896
   9   1.0000     -11.403138      -310.2952
  10   1.0000     -11.342957      -308.6575
  11   1.0000     -11.269802      -306.6669
  12   1.0000     -11.262186      -306.4597
  13   1.0000     -11.260328      -306.4091
  14   1.0000     -11.258172      -306.3504
  15   1.0000     -11.258092      -306.3482
  16   1.0000     -11.257184      -306.3235
  17   1.0000     -10.506472      -285.8956
  18   1.0000     -10.506086      -285.8851
  19   1.0000     -10.506001      -285.8828
  20   1.0000      -7.973352      -216.9659
  21   1.0000      -7.972887      -216.9533
  22   1.0000      -7.972845      -216.9522
  23   1.0000      -7.972532      -216.9436
  24   1.0000      -7.972481      -216.9422
  25   1.0000      -7.972195      -216.9345
  26   1.0000      -7.972110      -216.9321
  27   1.0000      -7.972100      -216.9319
  28   1.0000      -7.972015      -216.9296
  29   1.0000      -4.580141      -124.6320
  30   1.0000      -3.192972       -86.8852
  31   1.0000      -3.192059       -86.8603
  32   1.0000      -3.191581       -86.8473
  33   1.0000      -1.415328       -38.5130
  34   1.0000      -1.163624       -31.6638
  35   1.0000      -1.090251       -29.6673
  36   1.0000      -1.052498       -28.6399
  37   1.0000      -1.046909       -28.4878
  38   1.0000      -1.045742       -28.4561
  39   1.0000      -1.037320       -28.2269
  40   1.0000      -0.999201       -27.1896
  41   1.0000      -0.985108       -26.8061
  42   1.0000      -0.931305       -25.3421
  43   1.0000      -0.917933       -24.9782
  44   1.0000      -0.909732       -24.7551
  45   1.0000      -0.909688       -24.7539
  46   1.0000      -0.900450       -24.5025
  47   1.0000      -0.899899       -24.4875
  48   1.0000      -0.790864       -21.5205
  49   1.0000      -0.757105       -20.6019
  50   1.0000      -0.698397       -19.0043
  51   1.0000      -0.691291       -18.8110
  52   1.0000      -0.681798       -18.5527
  53   1.0000      -0.663662       -18.0592
  54   1.0000      -0.641350       -17.4520
  55   1.0000      -0.621162       -16.9027
  56   1.0000      -0.601222       -16.3601
  57   1.0000      -0.595255       -16.1977
  58   1.0000      -0.584432       -15.9032
  59   1.0000      -0.578018       -15.7287
  60   1.0000      -0.573861       -15.6155
  61   1.0000      -0.567827       -15.4514
  62   1.0000      -0.552754       -15.0412
  63   1.0000      -0.549463       -14.9517
  64   1.0000      -0.543165       -14.7803
  65   1.0000      -0.524296       -14.2668
  66   1.0000      -0.514171       -13.9913
  67   1.0000      -0.485094       -13.2001
  68   1.0000      -0.467466       -12.7204
  69   1.0000      -0.456877       -12.4322
  70   1.0000      -0.435295       -11.8450
  71   1.0000      -0.429788       -11.6951
  72   1.0000      -0.427631       -11.6364
  73   1.0000      -0.420517       -11.4428
  74   1.0000      -0.418243       -11.3810
  75   1.0000      -0.417728       -11.3670
  76   1.0000      -0.374352       -10.1866
  77   0.0000       0.010617         0.2889
  78   0.0000       0.021144         0.5754
  79   0.0000       0.022800         0.6204
  80   0.0000       0.030330         0.8253
  81   0.0000       0.038511         1.0479

                 SPIN DOWN ORBITALS
  NO   OCC          E(Eh)            E(eV)
   0   1.0000    -261.553328     -7117.2279
   1   1.0000    -104.778450     -2851.1666
   2   1.0000    -104.778168     -2851.1589
   3   1.0000    -104.778001     -2851.1544
   4   1.0000     -32.062728      -872.4712
   5   1.0000     -27.540719      -749.4211
   6   1.0000     -27.540621      -749.4184
   7   1.0000     -27.540256      -749.4085
   8   1.0000     -20.559617      -559.4556
   9   1.0000     -11.403085      -310.2937
  10   1.0000     -11.342983      -308.6583
  11   1.0000     -11.269390      -306.6557
  12   1.0000     -11.262094      -306.4572
  13   1.0000     -11.260312      -306.4087
  14   1.0000     -11.258216      -306.3516
  15   1.0000     -11.258057      -306.3473
  16   1.0000     -11.257197      -306.3239
  17   1.0000     -10.504955      -285.8544
  18   1.0000     -10.504600      -285.8447
  19   1.0000     -10.504456      -285.8408
  20   1.0000      -7.970848      -216.8978
  21   1.0000      -7.970581      -216.8905
  22   1.0000      -7.970377      -216.8850
  23   1.0000      -7.970259      -216.8818
  24   1.0000      -7.970184      -216.8797
  25   1.0000      -7.969863      -216.8710
  26   1.0000      -7.969771      -216.8685
  27   1.0000      -7.969718      -216.8670
  28   1.0000      -7.969632      -216.8647
  29   1.0000      -4.137927      -112.5987
  30   1.0000      -2.659654       -72.3729
  31   1.0000      -2.659546       -72.3699
  32   1.0000      -2.659105       -72.3579
  33   1.0000      -1.402810       -38.1724
  34   1.0000      -1.162472       -31.6325
  35   1.0000      -1.087577       -29.5945
  36   1.0000      -1.037821       -28.2405
  37   1.0000      -1.036594       -28.2071
  38   1.0000      -1.026004       -27.9190
  39   1.0000      -1.025444       -27.9037
  40   1.0000      -0.998476       -27.1699
  41   1.0000      -0.984975       -26.8025
  42   1.0000      -0.924372       -25.1534
  43   1.0000      -0.804277       -21.8855
  44   1.0000      -0.757377       -20.6093
  45   1.0000      -0.698193       -18.9988
  46   1.0000      -0.692928       -18.8555
  47   1.0000      -0.682186       -18.5632
  48   1.0000      -0.662918       -18.0389
  49   1.0000      -0.641240       -17.4490
  50   1.0000      -0.621114       -16.9014
  51   1.0000      -0.600290       -16.3347
  52   1.0000      -0.595106       -16.1937
  53   1.0000      -0.584330       -15.9004
  54   1.0000      -0.577922       -15.7261
  55   1.0000      -0.573588       -15.6081
  56   1.0000      -0.567551       -15.4438
  57   1.0000      -0.552239       -15.0272
  58   1.0000      -0.549270       -14.9464
  59   1.0000      -0.538056       -14.6412
  60   1.0000      -0.523904       -14.2561
  61   1.0000      -0.508284       -13.8311
  62   1.0000      -0.481553       -13.1037
  63   1.0000      -0.471425       -12.8281
  64   1.0000      -0.467802       -12.7295
  65   1.0000      -0.441742       -12.0204
  66   1.0000      -0.439248       -11.9526
  67   1.0000      -0.437114       -11.8945
  68   1.0000      -0.424773       -11.5587
  69   1.0000      -0.416870       -11.3436
  70   1.0000      -0.404131       -10.9970
  71   1.0000      -0.372773       -10.1437
  72   0.0000       0.010618         0.2889
  73   0.0000       0.021097         0.5741
  74   0.0000       0.022778         0.6198
  75   0.0000       0.030365         0.8263
  76   0.0000       0.038483         1.0472

E(0)                                       ...  -3028.418556132
E(0)                                       ...  -3028.418556132
E(CORR)(strong-pairs)                      ...     -2.873588286
E(CORR)(weak-pairs)                        ...     -0.035485047
E(CORR)(corrected)                         ...     -2.909073333
E(TOT)                                     ...  -3031.327629465
E(CCSD(T))                                 ...  -3031.447484885
FINAL SINGLE POINT ENERGY     -3031.447484885471

DIPOLE MOMENT
-------------
                                X             Y             Z
Electronic contribution:     41.83620       2.58082       2.16648
Nuclear contribution   :    -46.12703      -2.85698      -2.65852
                        -----------------------------------------
Total Dipole Moment    :     -4.29082      -0.27616      -0.49204
                        -----------------------------------------
Magnitude (a.u.)       :      4.32776
Magnitude (Debye)      :     11.00030

Rotational constants in cm-1:     0.019551     0.011326     0.010542
Rotational constants in MHz :   586.129833   339.552264   316.042886

                             ****ORCA TERMINATED NORMALLY****
TOTAL RUN TIME: 0 days 22 hours 26 minutes 25 seconds 337 msec
