                         Program Version 4.1.2  - RELEASE  -
|  1> ! aug-cc-pVTZ aug-cc-pVTZ/C DLPNO-CCSD(T1) TightSCF NormalPNO UNO MiniPrint AutoAux
|  2> %pal nproc 10 end
|  3> %maxcore 20000
|  4> %mdci
|  5>      density none
|  6> end
|  7>
|  8> * xyz 0 6
|  9>  O     -0.30448600     -0.16800400     -0.73472300
| 10>  C     -1.18379600     -1.09302300     -0.61775300
| 11>  C     -3.00254400     -0.12996900      0.29174300
| 12>  C     -2.42778700      1.02003700     -0.16009900
| 13>  C     -2.65103100      1.52943500     -1.54936500
| 14> Fe      1.43999600      0.09847500      0.02811200
| 15> Cl      2.07026000      2.03242300     -0.77546300
| 16>  C     -1.56901300      1.89677400      0.69251300
| 17> Cl      2.55380600     -1.65359000     -0.68317600
| 18> Cl      1.22633000      0.09456100      2.22622500
| 19>  H     -3.71377400     -0.61804200     -0.37145300
| 20>  H     -2.18132300      2.74185400      1.03953300
| 21>  H     -1.16158300      1.39672800      1.57023900
| 22>  H     -0.74324800      2.32015300      0.11209100
| 23>  H     -2.98834300      2.57231500     -1.49871400
| 24>  H     -1.70151300      1.53654400     -2.09942000
| 25>  H     -3.39718400      0.95492100     -2.10274300
| 26>  C     -3.11610200     -0.51242100      1.74698100
| 27>  H     -3.97080600      0.01167800      2.19446000
| 28>  H     -3.29919200     -1.58292200      1.86948400
| 29>  H     -2.23078000     -0.24961000      2.33044000
| 30>  C     -0.99525300     -2.13859700      0.44846700
| 31>  H     -1.86433300     -2.78840700      0.55636000
| 32>  H     -0.14723700     -2.74863300      0.10385600
| 33>  H     -0.71200300     -1.70621600      1.40760500
| 34>  C     -1.81479400     -1.56905700     -1.90400100
| 35>  H     -1.05318300     -2.20097600     -2.38179100
| 36>  H     -2.70679400     -2.17520900     -1.73729100
| 37>  H     -2.02753100     -0.74724500     -2.58568100
| 38> *
| 39>
| 40>
| 41>                          ****END OF INPUT****

CARTESIAN COORDINATES (ANGSTROEM)
---------------------------------
  O     -0.304486   -0.168004   -0.734723
  C     -1.183796   -1.093023   -0.617753
  C     -3.002544   -0.129969    0.291743
  C     -2.427787    1.020037   -0.160099
  C     -2.651031    1.529435   -1.549365
  Fe     1.439996    0.098475    0.028112
  Cl     2.070260    2.032423   -0.775463
  C     -1.569013    1.896774    0.692513
  Cl     2.553806   -1.653590   -0.683176
  Cl     1.226330    0.094561    2.226225
  H     -3.713774   -0.618042   -0.371453
  H     -2.181323    2.741854    1.039533
  H     -1.161583    1.396728    1.570239
  H     -0.743248    2.320153    0.112091
  H     -2.988343    2.572315   -1.498714
  H     -1.701513    1.536544   -2.099420
  H     -3.397184    0.954921   -2.102743
  C     -3.116102   -0.512421    1.746981
  H     -3.970806    0.011678    2.194460
  H     -3.299192   -1.582922    1.869484
  H     -2.230780   -0.249610    2.330440
  C     -0.995253   -2.138597    0.448467
  H     -1.864333   -2.788407    0.556360
  H     -0.147237   -2.748633    0.103856
  H     -0.712003   -1.706216    1.407605
  C     -1.814794   -1.569057   -1.904001
  H     -1.053183   -2.200976   -2.381791
  H     -2.706794   -2.175209   -1.737291
  H     -2.027531   -0.747245   -2.585681

ORBITAL ENERGIES
----------------
                 SPIN UP ORBITALS
  NO   OCC          E(Eh)            E(eV)
   0   1.0000    -261.565255     -7117.5524
   1   1.0000    -104.786409     -2851.3831
   2   1.0000    -104.783154     -2851.2946
   3   1.0000    -104.782514     -2851.2772
   4   1.0000     -32.233065      -877.1063
   5   1.0000     -27.709306      -754.0085
   6   1.0000     -27.708546      -753.9879
   7   1.0000     -27.708377      -753.9833
   8   1.0000     -20.587382      -560.2111
   9   1.0000     -11.413741      -310.5837
  10   1.0000     -11.305945      -307.6504
  11   1.0000     -11.269595      -306.6613
  12   1.0000     -11.263074      -306.4838
  13   1.0000     -11.259930      -306.3983
  14   1.0000     -11.255685      -306.2828
  15   1.0000     -11.248929      -306.0989
  16   1.0000     -11.243010      -305.9379
  17   1.0000     -10.513075      -286.0753
  18   1.0000     -10.509793      -285.9860
  19   1.0000     -10.509111      -285.9674
  20   1.0000      -7.979936      -217.1451
  21   1.0000      -7.979126      -217.1231
  22   1.0000      -7.979090      -217.1221
  23   1.0000      -7.976663      -217.0560
  24   1.0000      -7.975912      -217.0356
  25   1.0000      -7.975887      -217.0349
  26   1.0000      -7.975815      -217.0330
  27   1.0000      -7.975227      -217.0170
  28   1.0000      -7.975163      -217.0152
  29   1.0000      -4.588184      -124.8508
  30   1.0000      -3.201101       -87.1064
  31   1.0000      -3.199867       -87.0728
  32   1.0000      -3.199585       -87.0651
  33   1.0000      -1.436093       -39.0781
  34   1.0000      -1.150515       -31.3071
  35   1.0000      -1.092677       -29.7333
  36   1.0000      -1.058510       -28.8035
  37   1.0000      -1.052939       -28.6519
  38   1.0000      -1.050547       -28.5868
  39   1.0000      -1.032494       -28.0956
  40   1.0000      -1.002039       -27.2669
  41   1.0000      -0.974915       -26.5288
  42   1.0000      -0.933577       -25.4039
  43   1.0000      -0.917384       -24.9633
  44   1.0000      -0.917273       -24.9603
  45   1.0000      -0.913431       -24.8557
  46   1.0000      -0.907355       -24.6904
  47   1.0000      -0.906839       -24.6763
  48   1.0000      -0.800076       -21.7712
  49   1.0000      -0.746968       -20.3260
  50   1.0000      -0.697530       -18.9807
  51   1.0000      -0.692039       -18.8313
  52   1.0000      -0.685133       -18.6434
  53   1.0000      -0.667417       -18.1613
  54   1.0000      -0.636601       -17.3228
  55   1.0000      -0.621008       -16.8985
  56   1.0000      -0.604175       -16.4404
  57   1.0000      -0.597696       -16.2641
  58   1.0000      -0.583026       -15.8649
  59   1.0000      -0.574660       -15.6373
  60   1.0000      -0.566919       -15.4266
  61   1.0000      -0.560266       -15.2456
  62   1.0000      -0.552348       -15.0302
  63   1.0000      -0.548988       -14.9387
  64   1.0000      -0.540501       -14.7078
  65   1.0000      -0.524971       -14.2852
  66   1.0000      -0.510583       -13.8937
  67   1.0000      -0.490738       -13.3537
  68   1.0000      -0.470712       -12.8087
  69   1.0000      -0.466279       -12.6881
  70   1.0000      -0.438698       -11.9376
  71   1.0000      -0.433875       -11.8063
  72   1.0000      -0.432405       -11.7663
  73   1.0000      -0.423677       -11.5288
  74   1.0000      -0.422336       -11.4923
  75   1.0000      -0.421700       -11.4750
  76   1.0000      -0.371429       -10.1071
  77   0.0000       0.011721         0.3190
  78   0.0000       0.022050         0.6000
  79   0.0000       0.022946         0.6244
  80   0.0000       0.030250         0.8231
  81   0.0000       0.038473         1.0469

                 SPIN DOWN ORBITALS
  NO   OCC          E(Eh)            E(eV)
   0   1.0000    -261.561695     -7117.4556
   1   1.0000    -104.784983     -2851.3443
   2   1.0000    -104.781654     -2851.2537
   3   1.0000    -104.781038     -2851.2370
   4   1.0000     -32.071020      -872.6968
   5   1.0000     -27.548963      -749.6454
   6   1.0000     -27.548905      -749.6438
   7   1.0000     -27.548647      -749.6368
   8   1.0000     -20.583204      -560.0974
   9   1.0000     -11.413645      -310.5811
  10   1.0000     -11.305859      -307.6481
  11   1.0000     -11.269485      -306.6583
  12   1.0000     -11.263060      -306.4835
  13   1.0000     -11.259845      -306.3960
  14   1.0000     -11.255693      -306.2830
  15   1.0000     -11.248938      -306.0992
  16   1.0000     -11.243045      -305.9388
  17   1.0000     -10.511547      -286.0337
  18   1.0000     -10.508188      -285.9423
  19   1.0000     -10.507538      -285.9247
  20   1.0000      -7.977437      -217.0771
  21   1.0000      -7.976818      -217.0602
  22   1.0000      -7.976756      -217.0586
  23   1.0000      -7.974082      -216.9858
  24   1.0000      -7.973522      -216.9706
  25   1.0000      -7.973421      -216.9678
  26   1.0000      -7.973329      -216.9653
  27   1.0000      -7.972719      -216.9487
  28   1.0000      -7.972634      -216.9464
  29   1.0000      -4.145914      -112.8161
  30   1.0000      -2.667538       -72.5874
  31   1.0000      -2.667531       -72.5872
  32   1.0000      -2.666887       -72.5697
  33   1.0000      -1.425541       -38.7909
  34   1.0000      -1.149876       -31.2897
  35   1.0000      -1.090043       -29.6616
  36   1.0000      -1.043616       -28.3982
  37   1.0000      -1.032301       -28.0903
  38   1.0000      -1.031300       -28.0631
  39   1.0000      -1.028858       -27.9966
  40   1.0000      -1.001204       -27.2442
  41   1.0000      -0.974807       -26.5258
  42   1.0000      -0.914201       -24.8767
  43   1.0000      -0.813446       -22.1350
  44   1.0000      -0.747061       -20.3286
  45   1.0000      -0.700216       -19.0538
  46   1.0000      -0.691953       -18.8290
  47   1.0000      -0.683766       -18.6062
  48   1.0000      -0.667093       -18.1525
  49   1.0000      -0.636504       -17.3202
  50   1.0000      -0.620546       -16.8859
  51   1.0000      -0.603669       -16.4267
  52   1.0000      -0.597660       -16.2631
  53   1.0000      -0.582775       -15.8581
  54   1.0000      -0.574165       -15.6238
  55   1.0000      -0.566622       -15.4186
  56   1.0000      -0.560106       -15.2413
  57   1.0000      -0.551835       -15.0162
  58   1.0000      -0.546600       -14.8737
  59   1.0000      -0.539093       -14.6695
  60   1.0000      -0.514800       -14.0084
  61   1.0000      -0.510468       -13.8905
  62   1.0000      -0.490267       -13.3408
  63   1.0000      -0.476770       -12.9736
  64   1.0000      -0.475337       -12.9346
  65   1.0000      -0.446720       -12.1559
  66   1.0000      -0.443770       -12.0756
  67   1.0000      -0.441545       -12.0151
  68   1.0000      -0.426235       -11.5984
  69   1.0000      -0.422299       -11.4913
  70   1.0000      -0.407505       -11.0888
  71   1.0000      -0.369830       -10.0636
  72   0.0000       0.011711         0.3187
  73   0.0000       0.022026         0.5994
  74   0.0000       0.022927         0.6239
  75   0.0000       0.030221         0.8223
  76   0.0000       0.038302         1.0422

E(0)                                       ...  -3028.437713580
E(0)                                       ...  -3028.437713580
E(CORR)(strong-pairs)                      ...     -2.872801349
E(CORR)(weak-pairs)                        ...     -0.036166464
E(CORR)(corrected)                         ...     -2.908967813
E(TOT)                                     ...  -3031.346681393
E(CCSD(T))                                 ...  -3031.466232061
FINAL SINGLE POINT ENERGY     -3031.466232061050

DIPOLE MOMENT
-------------
                                X             Y             Z
Electronic contribution:     42.06600       3.44617       2.11193
Nuclear contribution   :    -46.04031      -4.18148      -2.70783
                        -----------------------------------------
Total Dipole Moment    :     -3.97431      -0.73531      -0.59590
                        -----------------------------------------
Magnitude (a.u.)       :      4.08545
Magnitude (Debye)      :     10.38439

Rotational constants in cm-1:     0.019177     0.011174     0.010510
Rotational constants in MHz :   574.914327   334.989771   315.091778

                             ****ORCA TERMINATED NORMALLY****
TOTAL RUN TIME: 0 days 19 hours 19 minutes 40 seconds 459 msec
