                         Program Version 4.1.2  - RELEASE  -
|  1> ! aug-cc-pVTZ aug-cc-pVTZ/C DLPNO-CCSD(T1) TightSCF NormalPNO UNO MiniPrint AutoAux
|  2> %pal nproc 10 end
|  3> %maxcore 20000
|  4> %mdci
|  5>      density none
|  6> end
|  7>
|  8> * xyz 0 6
|  9>  O     -0.31805100     -0.19036100     -0.53826100
| 10>  C     -1.15465000     -1.15270300     -0.35124600
| 11>  C     -2.70253700     -0.30750200      0.78879300
| 12>  C     -2.91351600      0.74863500     -0.06732200
| 13>  C     -3.89313200      0.67060000     -1.19483800
| 14> Fe      1.50147700      0.17687900     -0.07605400
| 15> Cl      1.84462100      2.14226300     -0.97847900
| 16>  C     -2.13037100      2.00607500      0.04437600
| 17> Cl      2.58862800     -1.51097300     -0.96317600
| 18> Cl      1.66700600      0.21486100      2.12141700
| 19>  H     -3.38816000     -1.14836600      0.69007000
| 20>  H     -2.59067500      2.83076100     -0.50530700
| 21>  H     -1.94803900      2.30591500      1.07927900
| 22>  H     -1.14105000      1.81259500     -0.40537500
| 23>  H     -4.69680600      1.39546600     -1.00406100
| 24>  H     -3.43253300      0.97048300     -2.14473200
| 25>  H     -4.34515300     -0.31728100     -1.30290100
| 26>  C     -2.09390600     -0.10014500      2.16098000
| 27>  H     -2.70814500      0.60294100      2.73629600
| 28>  H     -2.05797600     -1.03549300      2.72210000
| 29>  H     -1.07996900      0.30460300      2.11541300
| 30>  C     -0.76643400     -2.23841000      0.63518200
| 31>  H     -1.60569500     -2.88551500      0.89921400
| 32>  H     -0.01037600     -2.84373400      0.11677100
| 33>  H     -0.29885800     -1.83311800      1.53141400
| 34>  C     -1.84058800     -1.66092600     -1.60301500
| 35>  H     -1.11485600     -2.31659700     -2.10091600
| 36>  H     -2.73608600     -2.24802000     -1.38625000
| 37>  H     -2.07314100     -0.84894300     -2.29093100
| 38> *
| 39>
| 40>
| 41>                          ****END OF INPUT****

CARTESIAN COORDINATES (ANGSTROEM)
---------------------------------
  O     -0.318051   -0.190361   -0.538261
  C     -1.154650   -1.152703   -0.351246
  C     -2.702537   -0.307502    0.788793
  C     -2.913516    0.748635   -0.067322
  C     -3.893132    0.670600   -1.194838
  Fe     1.501477    0.176879   -0.076054
  Cl     1.844621    2.142263   -0.978479
  C     -2.130371    2.006075    0.044376
  Cl     2.588628   -1.510973   -0.963176
  Cl     1.667006    0.214861    2.121417
  H     -3.388160   -1.148366    0.690070
  H     -2.590675    2.830761   -0.505307
  H     -1.948039    2.305915    1.079279
  H     -1.141050    1.812595   -0.405375
  H     -4.696806    1.395466   -1.004061
  H     -3.432533    0.970483   -2.144732
  H     -4.345153   -0.317281   -1.302901
  C     -2.093906   -0.100145    2.160980
  H     -2.708145    0.602941    2.736296
  H     -2.057976   -1.035493    2.722100
  H     -1.079969    0.304603    2.115413
  C     -0.766434   -2.238410    0.635182
  H     -1.605695   -2.885515    0.899214
  H     -0.010376   -2.843734    0.116771
  H     -0.298858   -1.833118    1.531414
  C     -1.840588   -1.660926   -1.603015
  H     -1.114856   -2.316597   -2.100916
  H     -2.736086   -2.248020   -1.386250
  H     -2.073141   -0.848943   -2.290931

ORBITAL ENERGIES
----------------
                 SPIN UP ORBITALS
  NO   OCC          E(Eh)            E(eV)
   0   1.0000    -261.559200     -7117.3877
   1   1.0000    -104.781631     -2851.2531
   2   1.0000    -104.778845     -2851.1773
   3   1.0000    -104.777926     -2851.1523
   4   1.0000     -32.227041      -876.9424
   5   1.0000     -27.703266      -753.8442
   6   1.0000     -27.702528      -753.8241
   7   1.0000     -27.702369      -753.8198
   8   1.0000     -20.580118      -560.0135
   9   1.0000     -11.402346      -310.2736
  10   1.0000     -11.325413      -308.1802
  11   1.0000     -11.272894      -306.7510
  12   1.0000     -11.268661      -306.6359
  13   1.0000     -11.264296      -306.5171
  14   1.0000     -11.259117      -306.3762
  15   1.0000     -11.251760      -306.1760
  16   1.0000     -11.245100      -305.9947
  17   1.0000     -10.508277      -285.9448
  18   1.0000     -10.505483      -285.8687
  19   1.0000     -10.504524      -285.8426
  20   1.0000      -7.975131      -217.0144
  21   1.0000      -7.974326      -216.9925
  22   1.0000      -7.974305      -216.9919
  23   1.0000      -7.972343      -216.9385
  24   1.0000      -7.971584      -216.9178
  25   1.0000      -7.971507      -216.9157
  26   1.0000      -7.971339      -216.9112
  27   1.0000      -7.970647      -216.8923
  28   1.0000      -7.970562      -216.8900
  29   1.0000      -4.582267      -124.6898
  30   1.0000      -3.195209       -86.9461
  31   1.0000      -3.193980       -86.9126
  32   1.0000      -3.193681       -86.9045
  33   1.0000      -1.423566       -38.7372
  34   1.0000      -1.162741       -31.6398
  35   1.0000      -1.085997       -29.5515
  36   1.0000      -1.053529       -28.6680
  37   1.0000      -1.048226       -28.5237
  38   1.0000      -1.045687       -28.4546
  39   1.0000      -1.037491       -28.2316
  40   1.0000      -0.992979       -27.0203
  41   1.0000      -0.987902       -26.8822
  42   1.0000      -0.928610       -25.2688
  43   1.0000      -0.916156       -24.9299
  44   1.0000      -0.911524       -24.8038
  45   1.0000      -0.911471       -24.8024
  46   1.0000      -0.901647       -24.5351
  47   1.0000      -0.901218       -24.5234
  48   1.0000      -0.795988       -21.6599
  49   1.0000      -0.757357       -20.6087
  50   1.0000      -0.692073       -18.8323
  51   1.0000      -0.685396       -18.6506
  52   1.0000      -0.679865       -18.5001
  53   1.0000      -0.672717       -18.3056
  54   1.0000      -0.646141       -17.5824
  55   1.0000      -0.624066       -16.9817
  56   1.0000      -0.603045       -16.4097
  57   1.0000      -0.596775       -16.2391
  58   1.0000      -0.581761       -15.8305
  59   1.0000      -0.577811       -15.7230
  60   1.0000      -0.570902       -15.5350
  61   1.0000      -0.564811       -15.3693
  62   1.0000      -0.557347       -15.1662
  63   1.0000      -0.542812       -14.7707
  64   1.0000      -0.535741       -14.5782
  65   1.0000      -0.519854       -14.1460
  66   1.0000      -0.519512       -14.1367
  67   1.0000      -0.484289       -13.1782
  68   1.0000      -0.467105       -12.7106
  69   1.0000      -0.459759       -12.5107
  70   1.0000      -0.434223       -11.8158
  71   1.0000      -0.430169       -11.7055
  72   1.0000      -0.427611       -11.6359
  73   1.0000      -0.419336       -11.4107
  74   1.0000      -0.417764       -11.3679
  75   1.0000      -0.416985       -11.3467
  76   1.0000      -0.380402       -10.3513
  77   0.0000       0.009467         0.2576
  78   0.0000       0.020572         0.5598
  79   0.0000       0.021924         0.5966
  80   0.0000       0.027272         0.7421
  81   0.0000       0.034393         0.9359

                 SPIN DOWN ORBITALS
  NO   OCC          E(Eh)            E(eV)
   0   1.0000    -261.555639     -7117.2908
   1   1.0000    -104.780190     -2851.2139
   2   1.0000    -104.777362     -2851.1370
   3   1.0000    -104.776459     -2851.1124
   4   1.0000     -32.064985      -872.5326
   5   1.0000     -27.542945      -749.4816
   6   1.0000     -27.542871      -749.4796
   7   1.0000     -27.542587      -749.4719
   8   1.0000     -20.575889      -559.8984
   9   1.0000     -11.402284      -310.2719
  10   1.0000     -11.324878      -308.1656
  11   1.0000     -11.272966      -306.7530
  12   1.0000     -11.268876      -306.6417
  13   1.0000     -11.264191      -306.5142
  14   1.0000     -11.259116      -306.3761
  15   1.0000     -11.251836      -306.1780
  16   1.0000     -11.245087      -305.9944
  17   1.0000     -10.506732      -285.9027
  18   1.0000     -10.503897      -285.8256
  19   1.0000     -10.502960      -285.8001
  20   1.0000      -7.972626      -216.9462
  21   1.0000      -7.971990      -216.9289
  22   1.0000      -7.971925      -216.9271
  23   1.0000      -7.969810      -216.8695
  24   1.0000      -7.969138      -216.8513
  25   1.0000      -7.969046      -216.8488
  26   1.0000      -7.968929      -216.8456
  27   1.0000      -7.968171      -216.8250
  28   1.0000      -7.968073      -216.8223
  29   1.0000      -4.139980      -112.6546
  30   1.0000      -2.661651       -72.4272
  31   1.0000      -2.661618       -72.4263
  32   1.0000      -2.660989       -72.4092
  33   1.0000      -1.412783       -38.4438
  34   1.0000      -1.161544       -31.6072
  35   1.0000      -1.083393       -29.4806
  36   1.0000      -1.039710       -28.2919
  37   1.0000      -1.036553       -28.2060
  38   1.0000      -1.026331       -27.9279
  39   1.0000      -1.024320       -27.8732
  40   1.0000      -0.992580       -27.0095
  41   1.0000      -0.987582       -26.8735
  42   1.0000      -0.917112       -24.9559
  43   1.0000      -0.810420       -22.0526
  44   1.0000      -0.757546       -20.6139
  45   1.0000      -0.694410       -18.8959
  46   1.0000      -0.685260       -18.6469
  47   1.0000      -0.679685       -18.4952
  48   1.0000      -0.671980       -18.2855
  49   1.0000      -0.646014       -17.5789
  50   1.0000      -0.623340       -16.9620
  51   1.0000      -0.602593       -16.3974
  52   1.0000      -0.596535       -16.2325
  53   1.0000      -0.581595       -15.8260
  54   1.0000      -0.577733       -15.7209
  55   1.0000      -0.570023       -15.5111
  56   1.0000      -0.564859       -15.3706
  57   1.0000      -0.557200       -15.1622
  58   1.0000      -0.542346       -14.7580
  59   1.0000      -0.532750       -14.4969
  60   1.0000      -0.519618       -14.1395
  61   1.0000      -0.510126       -13.8812
  62   1.0000      -0.482684       -13.1345
  63   1.0000      -0.471815       -12.8387
  64   1.0000      -0.469826       -12.7846
  65   1.0000      -0.442693       -12.0463
  66   1.0000      -0.439321       -11.9545
  67   1.0000      -0.437263       -11.8985
  68   1.0000      -0.423812       -11.5325
  69   1.0000      -0.417337       -11.3563
  70   1.0000      -0.402842       -10.9619
  71   1.0000      -0.378335       -10.2950
  72   0.0000       0.009467         0.2576
  73   0.0000       0.020560         0.5595
  74   0.0000       0.021944         0.5971
  75   0.0000       0.027102         0.7375
  76   0.0000       0.033787         0.9194

E(0)                                       ...  -3028.434572589
E(0)                                       ...  -3028.434572589
E(CORR)(strong-pairs)                      ...     -2.874247812
E(CORR)(weak-pairs)                        ...     -0.036272795
E(CORR)(corrected)                         ...     -2.910520607
E(TOT)                                     ...  -3031.345093197
E(CCSD(T))                                 ...  -3031.465428501
FINAL SINGLE POINT ENERGY     -3031.465428500861

DIPOLE MOMENT
-------------
                                X             Y             Z
Electronic contribution:     43.34638       6.03036      -0.95738
Nuclear contribution   :    -47.89182      -6.88403       0.74712
                        -----------------------------------------
Total Dipole Moment    :     -4.54544      -0.85368      -0.21026
                        -----------------------------------------
Magnitude (a.u.)       :      4.62969
Magnitude (Debye)      :     11.76773

Rotational constants in cm-1:     0.019483     0.010426     0.009939
Rotational constants in MHz :   584.081359   312.549983   297.958737

                             ****ORCA TERMINATED NORMALLY****
TOTAL RUN TIME: 0 days 16 hours 21 minutes 47 seconds 724 msec
