                         Program Version 4.1.2  - RELEASE  -
|  1> ! aug-cc-pVTZ aug-cc-pVTZ/C DLPNO-CCSD(T1) TightSCF NormalPNO UNO MiniPrint AutoAux
|  2> %pal nproc 10 end
|  3> %maxcore 20000
|  4> %mdci
|  5>      density none
|  6> end
|  7>
|  8> * xyz 0 6
|  9>  O     -0.28240200     -0.26282500     -0.56758400
| 10>  C     -1.08623000     -1.21880100     -0.33197500
| 11>  C     -2.76828300     -0.21728800      0.87536500
| 12>  C     -3.02175700      0.71856900     -0.08252700
| 13>  C     -4.03793200      0.49876600     -1.16234300
| 14> Fe      1.53838800      0.18624800     -0.08531300
| 15> Cl      1.86320600      2.09598600     -1.09016600
| 16>  C     -2.25912500      2.00322300     -0.13902200
| 17> Cl      2.62711500     -1.54210000     -0.88187500
| 18> Cl      1.69794600      0.32554400      2.10130600
| 19>  H     -3.39913300     -1.10529200      0.87783100
| 20>  H     -2.77767900      2.76010700     -0.73393800
| 21>  H     -2.04406800      2.41164400      0.85186400
| 22>  H     -1.28713800      1.81004500     -0.62116100
| 23>  H     -4.85298000      1.22446100     -1.03610400
| 24>  H     -3.61510400      0.68622700     -2.15781100
| 25>  H     -4.47218700     -0.50366200     -1.13888100
| 26>  C     -2.05208300      0.10827000      2.16571400
| 27>  H     -2.61409400      0.86692800      2.72462600
| 28>  H     -1.96883200     -0.77035500      2.80840000
| 29>  H     -1.04547000      0.50268200      2.00571100
| 30>  C     -0.74712100     -2.20473600      0.75780000
| 31>  H     -1.60447200     -2.80749500      1.06241700
| 32>  H      0.00618100     -2.87322500      0.31597100
| 33>  H     -0.28634900     -1.72302800      1.61913200
| 34>  C     -1.85323200     -1.75921100     -1.51089800
| 35>  H     -1.17985400     -2.47300700     -2.00551500
| 36>  H     -2.75692300     -2.29568400     -1.21622500
| 37>  H     -2.08672000     -0.97326800     -2.22769000
| 38> *
| 39>
| 40>
| 41>                          ****END OF INPUT****

CARTESIAN COORDINATES (ANGSTROEM)
---------------------------------
  O     -0.282402   -0.262825   -0.567584
  C     -1.086230   -1.218801   -0.331975
  C     -2.768283   -0.217288    0.875365
  C     -3.021757    0.718569   -0.082527
  C     -4.037932    0.498766   -1.162343
  Fe     1.538388    0.186248   -0.085313
  Cl     1.863206    2.095986   -1.090166
  C     -2.259125    2.003223   -0.139022
  Cl     2.627115   -1.542100   -0.881875
  Cl     1.697946    0.325544    2.101306
  H     -3.399133   -1.105292    0.877831
  H     -2.777679    2.760107   -0.733938
  H     -2.044068    2.411644    0.851864
  H     -1.287138    1.810045   -0.621161
  H     -4.852980    1.224461   -1.036104
  H     -3.615104    0.686227   -2.157811
  H     -4.472187   -0.503662   -1.138881
  C     -2.052083    0.108270    2.165714
  H     -2.614094    0.866928    2.724626
  H     -1.968832   -0.770355    2.808400
  H     -1.045470    0.502682    2.005711
  C     -0.747121   -2.204736    0.757800
  H     -1.604472   -2.807495    1.062417
  H      0.006181   -2.873225    0.315971
  H     -0.286349   -1.723028    1.619132
  C     -1.853232   -1.759211   -1.510898
  H     -1.179854   -2.473007   -2.005515
  H     -2.756923   -2.295684   -1.216225
  H     -2.086720   -0.973268   -2.227690

ORBITAL ENERGIES
----------------
                 SPIN UP ORBITALS
  NO   OCC          E(Eh)            E(eV)
   0   1.0000    -261.567238     -7117.6064
   1   1.0000    -104.787123     -2851.4026
   2   1.0000    -104.784477     -2851.3306
   3   1.0000    -104.782605     -2851.2796
   4   1.0000     -32.235005      -877.1591
   5   1.0000     -27.711395      -754.0654
   6   1.0000     -27.710402      -754.0384
   7   1.0000     -27.710238      -754.0339
   8   1.0000     -20.602179      -560.6138
   9   1.0000     -11.415360      -310.6277
  10   1.0000     -11.295738      -307.3727
  11   1.0000     -11.271919      -306.7245
  12   1.0000     -11.268005      -306.6180
  13   1.0000     -11.260538      -306.4148
  14   1.0000     -11.256456      -306.3037
  15   1.0000     -11.242840      -305.9332
  16   1.0000     -11.239866      -305.8523
  17   1.0000     -10.513790      -286.0948
  18   1.0000     -10.511127      -286.0223
  19   1.0000     -10.509217      -285.9703
  20   1.0000      -7.980627      -217.1639
  21   1.0000      -7.979846      -217.1426
  22   1.0000      -7.979838      -217.1424
  23   1.0000      -7.977998      -217.0924
  24   1.0000      -7.977228      -217.0714
  25   1.0000      -7.977152      -217.0693
  26   1.0000      -7.976025      -217.0387
  27   1.0000      -7.975354      -217.0204
  28   1.0000      -7.975271      -217.0182
  29   1.0000      -4.590090      -124.9027
  30   1.0000      -3.203250       -87.1649
  31   1.0000      -3.201579       -87.1194
  32   1.0000      -3.201397       -87.1144
  33   1.0000      -1.445481       -39.3335
  34   1.0000      -1.145542       -31.1718
  35   1.0000      -1.093472       -29.7549
  36   1.0000      -1.059584       -28.8327
  37   1.0000      -1.054156       -28.6850
  38   1.0000      -1.051283       -28.6069
  39   1.0000      -1.029312       -28.0090
  40   1.0000      -1.002431       -27.2775
  41   1.0000      -0.975270       -26.5384
  42   1.0000      -0.936206       -25.4755
  43   1.0000      -0.919204       -25.0128
  44   1.0000      -0.919171       -25.0119
  45   1.0000      -0.908812       -24.7300
  46   1.0000      -0.908245       -24.7146
  47   1.0000      -0.906279       -24.6611
  48   1.0000      -0.805763       -21.9259
  49   1.0000      -0.745259       -20.2795
  50   1.0000      -0.701150       -19.0793
  51   1.0000      -0.691228       -18.8093
  52   1.0000      -0.683408       -18.5965
  53   1.0000      -0.667943       -18.1756
  54   1.0000      -0.635285       -17.2870
  55   1.0000      -0.622567       -16.9409
  56   1.0000      -0.605284       -16.4706
  57   1.0000      -0.596743       -16.2382
  58   1.0000      -0.583714       -15.8837
  59   1.0000      -0.574597       -15.6356
  60   1.0000      -0.570057       -15.5121
  61   1.0000      -0.560745       -15.2586
  62   1.0000      -0.553259       -15.0549
  63   1.0000      -0.543277       -14.7833
  64   1.0000      -0.534327       -14.5398
  65   1.0000      -0.527325       -14.3492
  66   1.0000      -0.508920       -13.8484
  67   1.0000      -0.494267       -13.4497
  68   1.0000      -0.472327       -12.8527
  69   1.0000      -0.467406       -12.7188
  70   1.0000      -0.440449       -11.9852
  71   1.0000      -0.434825       -11.8322
  72   1.0000      -0.432448       -11.7675
  73   1.0000      -0.424277       -11.5452
  74   1.0000      -0.422875       -11.5070
  75   1.0000      -0.421705       -11.4752
  76   1.0000      -0.369169       -10.0456
  77   0.0000       0.011310         0.3077
  78   0.0000       0.021936         0.5969
  79   0.0000       0.022921         0.6237
  80   0.0000       0.029310         0.7976
  81   0.0000       0.038375         1.0442

                 SPIN DOWN ORBITALS
  NO   OCC          E(Eh)            E(eV)
   0   1.0000    -261.563665     -7117.5092
   1   1.0000    -104.785637     -2851.3621
   2   1.0000    -104.782962     -2851.2894
   3   1.0000    -104.781082     -2851.2382
   4   1.0000     -32.072980      -872.7502
   5   1.0000     -27.550921      -749.6987
   6   1.0000     -27.550842      -749.6965
   7   1.0000     -27.550654      -749.6914
   8   1.0000     -20.598421      -560.5115
   9   1.0000     -11.415194      -310.6232
  10   1.0000     -11.295351      -307.3621
  11   1.0000     -11.271815      -306.7217
  12   1.0000     -11.268002      -306.6179
  13   1.0000     -11.260588      -306.4162
  14   1.0000     -11.256705      -306.3105
  15   1.0000     -11.242891      -305.9346
  16   1.0000     -11.239847      -305.8518
  17   1.0000     -10.512201      -286.0515
  18   1.0000     -10.509508      -285.9782
  19   1.0000     -10.507596      -285.9262
  20   1.0000      -7.978106      -217.0953
  21   1.0000      -7.977400      -217.0761
  22   1.0000      -7.977347      -217.0746
  23   1.0000      -7.975402      -217.0217
  24   1.0000      -7.974733      -217.0035
  25   1.0000      -7.974635      -217.0009
  26   1.0000      -7.973571      -216.9719
  27   1.0000      -7.972750      -216.9496
  28   1.0000      -7.972657      -216.9470
  29   1.0000      -4.147881      -112.8696
  30   1.0000      -2.669488       -72.6405
  31   1.0000      -2.669405       -72.6382
  32   1.0000      -2.669003       -72.6273
  33   1.0000      -1.435980       -39.0750
  34   1.0000      -1.144831       -31.1524
  35   1.0000      -1.090848       -29.6835
  36   1.0000      -1.044218       -28.4146
  37   1.0000      -1.032447       -28.0943
  38   1.0000      -1.029447       -28.0127
  39   1.0000      -1.028335       -27.9824
  40   1.0000      -1.001836       -27.2613
  41   1.0000      -0.975199       -26.5365
  42   1.0000      -0.906710       -24.6728
  43   1.0000      -0.820527       -22.3277
  44   1.0000      -0.745279       -20.2801
  45   1.0000      -0.704155       -19.1610
  46   1.0000      -0.689798       -18.7704
  47   1.0000      -0.683001       -18.5854
  48   1.0000      -0.667843       -18.1729
  49   1.0000      -0.635272       -17.2866
  50   1.0000      -0.621884       -16.9223
  51   1.0000      -0.604920       -16.4607
  52   1.0000      -0.596509       -16.2318
  53   1.0000      -0.583517       -15.8783
  54   1.0000      -0.573358       -15.6019
  55   1.0000      -0.570060       -15.5121
  56   1.0000      -0.560703       -15.2575
  57   1.0000      -0.553206       -15.0535
  58   1.0000      -0.541211       -14.7271
  59   1.0000      -0.534093       -14.5334
  60   1.0000      -0.516442       -14.0531
  61   1.0000      -0.508940       -13.8490
  62   1.0000      -0.494331       -13.4514
  63   1.0000      -0.478082       -13.0093
  64   1.0000      -0.476081       -12.9548
  65   1.0000      -0.448203       -12.1962
  66   1.0000      -0.444413       -12.0931
  67   1.0000      -0.442216       -12.0333
  68   1.0000      -0.426893       -11.6163
  69   1.0000      -0.422603       -11.4996
  70   1.0000      -0.407274       -11.0825
  71   1.0000      -0.368114       -10.0169
  72   0.0000       0.011301         0.3075
  73   0.0000       0.021922         0.5965
  74   0.0000       0.022892         0.6229
  75   0.0000       0.029150         0.7932
  76   0.0000       0.037811         1.0289

E(0)                                       ...  -3028.447155120
E(0)                                       ...  -3028.447155120
E(CORR)(strong-pairs)                      ...     -2.871414368
E(CORR)(weak-pairs)                        ...     -0.035295792
E(CORR)(corrected)                         ...     -2.906710161
E(TOT)                                     ...  -3031.353865281
E(CCSD(T))                                 ...  -3031.473152670
FINAL SINGLE POINT ENERGY     -3031.473152670083

DIPOLE MOMENT
-------------
                                X             Y             Z
Electronic contribution:     44.82699       5.76064      -1.40014
Nuclear contribution   :    -48.87836      -6.97385       1.21516
                        -----------------------------------------
Total Dipole Moment    :     -4.05137      -1.21321      -0.18499
                        -----------------------------------------
Magnitude (a.u.)       :      4.23316
Magnitude (Debye)      :     10.75985

Rotational constants in cm-1:     0.019497     0.010097     0.009641
Rotational constants in MHz :   584.512439   302.692068   289.023222

                             ****ORCA TERMINATED NORMALLY****
TOTAL RUN TIME: 0 days 17 hours 59 minutes 9 seconds 660 msec
