                         Program Version 4.1.2  - RELEASE  -
|  1> ! aug-cc-pVTZ aug-cc-pVTZ/C DLPNO-CCSD(T1) TightSCF NormalPNO UNO MiniPrint AutoAux
|  2> %pal nproc 10 end
|  3> %maxcore 20000
|  4> %mdci
|  5>      density none
|  6> end
|  7>
|  8> * xyz 0 6
|  9>  O     -0.32945000     -0.12772000     -0.67127800
| 10>  C     -1.25121100     -1.05183100     -0.57700300
| 11>  C     -2.92104300     -0.17505700      0.22638200
| 12>  C     -2.36763600      1.02998800     -0.15600200
| 13>  C     -2.56098300      1.59655800     -1.52137400
| 14> Fe      1.41708300      0.08627000      0.02276500
| 15> Cl      2.00945200      2.06566700     -0.72448000
| 16>  C     -1.55852000      1.87117000      0.76800500
| 17> Cl      2.55082200     -1.62907900     -0.75401300
| 18> Cl      1.24201300      0.02775500      2.23447800
| 19>  H     -3.65338200     -0.60079300     -0.45632100
| 20>  H     -2.24201400      2.61101500      1.21343400
| 21>  H     -1.09997100      1.31173200      1.58253900
| 22>  H     -0.78269600      2.42198100      0.22925800
| 23>  H     -2.89263600      2.63830600     -1.42687700
| 24>  H     -1.59236300      1.62462600     -2.03622500
| 25>  H     -3.29095900      1.04916300     -2.12005100
| 26>  C     -3.11185700     -0.55959900      1.67771800
| 27>  H     -3.96257300     -0.00387900      2.09178900
| 28>  H     -3.34002700     -1.62296800      1.77904800
| 29>  H     -2.24021600     -0.33889400      2.29738300
| 30>  C     -1.00971400     -2.15725300      0.42667300
| 31>  H     -1.85750700     -2.83911000      0.51264200
| 32>  H     -0.15103500     -2.71940800      0.03333800
| 33>  H     -0.72315600     -1.77318000      1.40530000
| 34>  C     -1.78405100     -1.53262300     -1.91357600
| 35>  H     -0.96375300     -2.10163200     -2.36989100
| 36>  H     -2.64801300     -2.19264100     -1.80771000
| 37>  H     -2.01700500     -0.70754100     -2.58601700
| 38> *
| 39>
| 40>
| 41>                          ****END OF INPUT****

CARTESIAN COORDINATES (ANGSTROEM)
---------------------------------
  O     -0.329450   -0.127720   -0.671278
  C     -1.251211   -1.051831   -0.577003
  C     -2.921043   -0.175057    0.226382
  C     -2.367636    1.029988   -0.156002
  C     -2.560983    1.596558   -1.521374
  Fe     1.417083    0.086270    0.022765
  Cl     2.009452    2.065667   -0.724480
  C     -1.558520    1.871170    0.768005
  Cl     2.550822   -1.629079   -0.754013
  Cl     1.242013    0.027755    2.234478
  H     -3.653382   -0.600793   -0.456321
  H     -2.242014    2.611015    1.213434
  H     -1.099971    1.311732    1.582539
  H     -0.782696    2.421981    0.229258
  H     -2.892636    2.638306   -1.426877
  H     -1.592363    1.624626   -2.036225
  H     -3.290959    1.049163   -2.120051
  C     -3.111857   -0.559599    1.677718
  H     -3.962573   -0.003879    2.091789
  H     -3.340027   -1.622968    1.779048
  H     -2.240216   -0.338894    2.297383
  C     -1.009714   -2.157253    0.426673
  H     -1.857507   -2.839110    0.512642
  H     -0.151035   -2.719408    0.033338
  H     -0.723156   -1.773180    1.405300
  C     -1.784051   -1.532623   -1.913576
  H     -0.963753   -2.101632   -2.369891
  H     -2.648013   -2.192641   -1.807710
  H     -2.017005   -0.707541   -2.586017

ORBITAL ENERGIES
----------------
                 SPIN UP ORBITALS
  NO   OCC          E(Eh)            E(eV)
   0   1.0000    -261.556228     -7117.3068
   1   1.0000    -104.780582     -2851.2246
   2   1.0000    -104.777532     -2851.1416
   3   1.0000    -104.776962     -2851.1261
   4   1.0000     -32.224099      -876.8623
   5   1.0000     -27.700144      -753.7592
   6   1.0000     -27.699709      -753.7474
   7   1.0000     -27.699510      -753.7420
   8   1.0000     -20.564228      -559.5811
   9   1.0000     -11.397855      -310.1514
  10   1.0000     -11.343111      -308.6617
  11   1.0000     -11.272789      -306.7482
  12   1.0000     -11.268684      -306.6365
  13   1.0000     -11.260547      -306.4151
  14   1.0000     -11.255532      -306.2786
  15   1.0000     -11.255156      -306.2684
  16   1.0000     -11.253399      -306.2206
  17   1.0000     -10.507200      -285.9154
  18   1.0000     -10.504100      -285.8311
  19   1.0000     -10.503562      -285.8164
  20   1.0000      -7.974081      -216.9858
  21   1.0000      -7.973234      -216.9627
  22   1.0000      -7.973196      -216.9617
  23   1.0000      -7.970909      -216.8995
  24   1.0000      -7.970412      -216.8859
  25   1.0000      -7.970206      -216.8803
  26   1.0000      -7.970130      -216.8783
  27   1.0000      -7.969659      -216.8654
  28   1.0000      -7.969583      -216.8634
  29   1.0000      -4.579391      -124.6116
  30   1.0000      -3.192096       -86.8613
  31   1.0000      -3.191323       -86.8403
  32   1.0000      -3.190902       -86.8288
  33   1.0000      -1.410860       -38.3914
  34   1.0000      -1.168783       -31.8042
  35   1.0000      -1.086488       -29.5648
  36   1.0000      -1.051842       -28.6221
  37   1.0000      -1.046361       -28.4729
  38   1.0000      -1.044090       -28.4111
  39   1.0000      -1.040426       -28.3114
  40   1.0000      -0.995667       -27.0935
  41   1.0000      -0.985201       -26.8087
  42   1.0000      -0.929925       -25.3045
  43   1.0000      -0.919530       -25.0217
  44   1.0000      -0.908794       -24.7296
  45   1.0000      -0.908676       -24.7263
  46   1.0000      -0.899542       -24.4778
  47   1.0000      -0.899107       -24.4659
  48   1.0000      -0.789621       -21.4867
  49   1.0000      -0.759566       -20.6688
  50   1.0000      -0.693650       -18.8752
  51   1.0000      -0.693362       -18.8673
  52   1.0000      -0.678466       -18.4620
  53   1.0000      -0.660893       -17.9838
  54   1.0000      -0.646578       -17.5943
  55   1.0000      -0.623177       -16.9575
  56   1.0000      -0.602304       -16.3895
  57   1.0000      -0.594352       -16.1731
  58   1.0000      -0.586154       -15.9501
  59   1.0000      -0.576447       -15.6859
  60   1.0000      -0.572897       -15.5893
  61   1.0000      -0.562885       -15.3169
  62   1.0000      -0.554162       -15.0795
  63   1.0000      -0.552046       -15.0219
  64   1.0000      -0.541208       -14.7270
  65   1.0000      -0.523087       -14.2339
  66   1.0000      -0.516863       -14.0646
  67   1.0000      -0.481002       -13.0887
  68   1.0000      -0.465339       -12.6625
  69   1.0000      -0.457602       -12.4520
  70   1.0000      -0.432162       -11.7597
  71   1.0000      -0.428651       -11.6642
  72   1.0000      -0.427097       -11.6219
  73   1.0000      -0.418445       -11.3865
  74   1.0000      -0.417100       -11.3499
  75   1.0000      -0.416318       -11.3286
  76   1.0000      -0.382848       -10.4178
  77   0.0000       0.009864         0.2684
  78   0.0000       0.020446         0.5564
  79   0.0000       0.021870         0.5951
  80   0.0000       0.029801         0.8109
  81   0.0000       0.035620         0.9693

                 SPIN DOWN ORBITALS
  NO   OCC          E(Eh)            E(eV)
   0   1.0000    -261.552678     -7117.2102
   1   1.0000    -104.779209     -2851.1872
   2   1.0000    -104.776125     -2851.1033
   3   1.0000    -104.775501     -2851.0863
   4   1.0000     -32.062038      -872.4524
   5   1.0000     -27.540046      -749.4028
   6   1.0000     -27.539940      -749.3999
   7   1.0000     -27.539554      -749.3894
   8   1.0000     -20.559338      -559.4480
   9   1.0000     -11.397814      -310.1503
  10   1.0000     -11.343029      -308.6595
  11   1.0000     -11.272594      -306.7429
  12   1.0000     -11.268690      -306.6367
  13   1.0000     -11.260438      -306.4121
  14   1.0000     -11.255568      -306.2796
  15   1.0000     -11.255177      -306.2689
  16   1.0000     -11.253372      -306.2198
  17   1.0000     -10.505724      -285.8753
  18   1.0000     -10.502597      -285.7902
  19   1.0000     -10.501997      -285.7739
  20   1.0000      -7.971594      -216.9181
  21   1.0000      -7.971065      -216.9037
  22   1.0000      -7.970989      -216.9016
  23   1.0000      -7.968576      -216.8360
  24   1.0000      -7.967917      -216.8181
  25   1.0000      -7.967848      -216.8162
  26   1.0000      -7.967758      -216.8137
  27   1.0000      -7.967244      -216.7997
  28   1.0000      -7.967160      -216.7974
  29   1.0000      -4.137079      -112.5756
  30   1.0000      -2.658791       -72.3494
  31   1.0000      -2.658781       -72.3491
  32   1.0000      -2.658018       -72.3284
  33   1.0000      -1.398412       -38.0527
  34   1.0000      -1.167843       -31.7786
  35   1.0000      -1.083773       -29.4910
  36   1.0000      -1.039884       -28.2967
  37   1.0000      -1.037389       -28.2288
  38   1.0000      -1.025658       -27.9096
  39   1.0000      -1.023286       -27.8450
  40   1.0000      -0.995175       -27.0801
  41   1.0000      -0.984744       -26.7962
  42   1.0000      -0.925935       -25.1960
  43   1.0000      -0.802629       -21.8406
  44   1.0000      -0.760085       -20.6830
  45   1.0000      -0.694668       -18.9029
  46   1.0000      -0.692748       -18.8506
  47   1.0000      -0.679845       -18.4995
  48   1.0000      -0.660077       -17.9616
  49   1.0000      -0.646326       -17.5874
  50   1.0000      -0.622901       -16.9500
  51   1.0000      -0.601404       -16.3650
  52   1.0000      -0.594418       -16.1749
  53   1.0000      -0.586019       -15.9464
  54   1.0000      -0.576064       -15.6755
  55   1.0000      -0.572716       -15.5844
  56   1.0000      -0.562884       -15.3169
  57   1.0000      -0.553397       -15.0587
  58   1.0000      -0.551716       -15.0130
  59   1.0000      -0.536253       -14.5922
  60   1.0000      -0.522955       -14.2303
  61   1.0000      -0.508026       -13.8241
  62   1.0000      -0.479179       -13.0391
  63   1.0000      -0.470070       -12.7913
  64   1.0000      -0.467462       -12.7203
  65   1.0000      -0.440888       -11.9972
  66   1.0000      -0.437943       -11.9170
  67   1.0000      -0.436228       -11.8704
  68   1.0000      -0.423014       -11.5108
  69   1.0000      -0.416383       -11.3304
  70   1.0000      -0.402826       -10.9615
  71   1.0000      -0.379966       -10.3394
  72   0.0000       0.009861         0.2683
  73   0.0000       0.020416         0.5555
  74   0.0000       0.021850         0.5946
  75   0.0000       0.029777         0.8103
  76   0.0000       0.035249         0.9592

E(0)                                       ...  -3028.426420358
E(0)                                       ...  -3028.426420358
E(CORR)(strong-pairs)                      ...     -2.873379509
E(CORR)(weak-pairs)                        ...     -0.036164249
E(CORR)(corrected)                         ...     -2.909543758
E(TOT)                                     ...  -3031.335964116
E(CCSD(T))                                 ...  -3031.455787328
FINAL SINGLE POINT ENERGY     -3031.455787328153

DIPOLE MOMENT
-------------
                                X             Y             Z
Electronic contribution:     41.02517       3.79938       2.19378
Nuclear contribution   :    -45.46449      -4.08500      -2.73411
                        -----------------------------------------
Total Dipole Moment    :     -4.43931      -0.28562      -0.54033
                        -----------------------------------------
Magnitude (a.u.)       :      4.48119
Magnitude (Debye)      :     11.39027

Rotational constants in cm-1:     0.019187     0.011410     0.010678
Rotational constants in MHz :   575.223096   342.074179   320.126871

                             ****ORCA TERMINATED NORMALLY****
TOTAL RUN TIME: 0 days 21 hours 10 minutes 5 seconds 778 msec
