                         Program Version 4.1.2  - RELEASE  -
|  1> ! aug-cc-pVTZ aug-cc-pVTZ/C DLPNO-CCSD(T1) TightSCF NormalPNO UNO MiniPrint AutoAux
|  2> %pal nproc 10 end
|  3> %maxcore 20000
|  4> %mdci
|  5>      density none
|  6> end
|  7>
|  8> * xyz 0 6
|  9>  O     -0.31556300     -0.17394800     -0.48114400
| 10>  C     -1.16175500     -1.13081100     -0.27151800
| 11>  C     -2.66127700     -0.28089300      0.83824600
| 12>  C     -2.99551500      0.70444100     -0.07024400
| 13>  C     -4.05263500      0.50013700     -1.10601100
| 14> Fe      1.51857200      0.17703600     -0.09099600
| 15> Cl      1.83792600      2.14544300     -0.99833100
| 16>  C     -2.25467800      1.98960400     -0.10481300
| 17> Cl      2.55536400     -1.51675400     -1.02941000
| 18> Cl      1.77716900      0.20155200      2.09818200
| 19>  H     -3.32080400     -1.14811100      0.85632600
| 20>  H     -2.71956400      2.72650100     -0.76335900
| 21>  H     -2.10945000      2.41906700      0.89085100
| 22>  H     -1.24340900      1.76452800     -0.49036400
| 23>  H     -4.87577100      1.19831600     -0.89727200
| 24>  H     -3.68535200      0.75548500     -2.10788200
| 25>  H     -4.45829100     -0.51342500     -1.11108000
| 26>  C     -1.98949500      0.07281500      2.15168400
| 27>  H     -2.59084600      0.81478100      2.68997400
| 28>  H     -1.89845200     -0.80337700      2.79549400
| 29>  H     -0.99010200      0.49107700      2.01046700
| 30>  C     -0.75525400     -2.20475900      0.72535600
| 31>  H     -1.58831400     -2.85217200      1.00826600
| 32>  H     -0.00218200     -2.81334800      0.20701600
| 33>  H     -0.27963200     -1.78471200      1.61058800
| 34>  C     -1.83077800     -1.67048000     -1.52135000
| 35>  H     -1.09303800     -2.32138000     -2.00685700
| 36>  H     -2.71922100     -2.26721900     -1.30055000
| 37>  H     -2.07343500     -0.87180000     -2.22214900
| 38> *
| 39>
| 40>
| 41>                          ****END OF INPUT****

CARTESIAN COORDINATES (ANGSTROEM)
---------------------------------
  O     -0.315563   -0.173948   -0.481144
  C     -1.161755   -1.130811   -0.271518
  C     -2.661277   -0.280893    0.838246
  C     -2.995515    0.704441   -0.070244
  C     -4.052635    0.500137   -1.106011
  Fe     1.518572    0.177036   -0.090996
  Cl     1.837926    2.145443   -0.998331
  C     -2.254678    1.989604   -0.104813
  Cl     2.555364   -1.516754   -1.029410
  Cl     1.777169    0.201552    2.098182
  H     -3.320804   -1.148111    0.856326
  H     -2.719564    2.726501   -0.763359
  H     -2.109450    2.419067    0.890851
  H     -1.243409    1.764528   -0.490364
  H     -4.875771    1.198316   -0.897272
  H     -3.685352    0.755485   -2.107882
  H     -4.458291   -0.513425   -1.111080
  C     -1.989495    0.072815    2.151684
  H     -2.590846    0.814781    2.689974
  H     -1.898452   -0.803377    2.795494
  H     -0.990102    0.491077    2.010467
  C     -0.755254   -2.204759    0.725356
  H     -1.588314   -2.852172    1.008266
  H     -0.002182   -2.813348    0.207016
  H     -0.279632   -1.784712    1.610588
  C     -1.830778   -1.670480   -1.521350
  H     -1.093038   -2.321380   -2.006857
  H     -2.719221   -2.267219   -1.300550
  H     -2.073435   -0.871800   -2.222149

ORBITAL ENERGIES
----------------
                 SPIN UP ORBITALS
  NO   OCC          E(Eh)            E(eV)
   0   1.0000    -261.556497     -7117.3141
   1   1.0000    -104.779259     -2851.1886
   2   1.0000    -104.776618     -2851.1167
   3   1.0000    -104.776103     -2851.1027
   4   1.0000     -32.224347      -876.8690
   5   1.0000     -27.700547      -753.7702
   6   1.0000     -27.699844      -753.7511
   7   1.0000     -27.699693      -753.7470
   8   1.0000     -20.575023      -559.8748
   9   1.0000     -11.397467      -310.1408
  10   1.0000     -11.335307      -308.4494
  11   1.0000     -11.278017      -306.8904
  12   1.0000     -11.272208      -306.7324
  13   1.0000     -11.262077      -306.4567
  14   1.0000     -11.256427      -306.3030
  15   1.0000     -11.256362      -306.3012
  16   1.0000     -11.246443      -306.0313
  17   1.0000     -10.505905      -285.8802
  18   1.0000     -10.503249      -285.8079
  19   1.0000     -10.502699      -285.7930
  20   1.0000      -7.972761      -216.9499
  21   1.0000      -7.971958      -216.9280
  22   1.0000      -7.971931      -216.9273
  23   1.0000      -7.970113      -216.8778
  24   1.0000      -7.969514      -216.8615
  25   1.0000      -7.969349      -216.8570
  26   1.0000      -7.969268      -216.8548
  27   1.0000      -7.968824      -216.8427
  28   1.0000      -7.968733      -216.8403
  29   1.0000      -4.579599      -124.6172
  30   1.0000      -3.192511       -86.8726
  31   1.0000      -3.191351       -86.8411
  32   1.0000      -3.191031       -86.8324
  33   1.0000      -1.417046       -38.5598
  34   1.0000      -1.168439       -31.7948
  35   1.0000      -1.083603       -29.4863
  36   1.0000      -1.051144       -28.6031
  37   1.0000      -1.045956       -28.4619
  38   1.0000      -1.043501       -28.3951
  39   1.0000      -1.039869       -28.2963
  40   1.0000      -0.994186       -27.0532
  41   1.0000      -0.988994       -26.9119
  42   1.0000      -0.926304       -25.2060
  43   1.0000      -0.918075       -24.9821
  44   1.0000      -0.908886       -24.7320
  45   1.0000      -0.908844       -24.7309
  46   1.0000      -0.899111       -24.4661
  47   1.0000      -0.898728       -24.4556
  48   1.0000      -0.793724       -21.5983
  49   1.0000      -0.761007       -20.7080
  50   1.0000      -0.691632       -18.8203
  51   1.0000      -0.686615       -18.6837
  52   1.0000      -0.677307       -18.4305
  53   1.0000      -0.671497       -18.2724
  54   1.0000      -0.649896       -17.6846
  55   1.0000      -0.625289       -17.0150
  56   1.0000      -0.603290       -16.4163
  57   1.0000      -0.596255       -16.2249
  58   1.0000      -0.584803       -15.9133
  59   1.0000      -0.578176       -15.7330
  60   1.0000      -0.569755       -15.5038
  61   1.0000      -0.566952       -15.4275
  62   1.0000      -0.558310       -15.1924
  63   1.0000      -0.543610       -14.7924
  64   1.0000      -0.534510       -14.5448
  65   1.0000      -0.522865       -14.2279
  66   1.0000      -0.516491       -14.0544
  67   1.0000      -0.481229       -13.0949
  68   1.0000      -0.465011       -12.6536
  69   1.0000      -0.456765       -12.4292
  70   1.0000      -0.432222       -11.7614
  71   1.0000      -0.428190       -11.6516
  72   1.0000      -0.425572       -11.5804
  73   1.0000      -0.417346       -11.3566
  74   1.0000      -0.415596       -11.3089
  75   1.0000      -0.415018       -11.2932
  76   1.0000      -0.384502       -10.4628
  77   0.0000       0.008308         0.2261
  78   0.0000       0.020022         0.5448
  79   0.0000       0.021014         0.5718
  80   0.0000       0.025263         0.6875
  81   0.0000       0.032114         0.8739

                 SPIN DOWN ORBITALS
  NO   OCC          E(Eh)            E(eV)
   0   1.0000    -261.552937     -7117.2172
   1   1.0000    -104.777822     -2851.1495
   2   1.0000    -104.775144     -2851.0766
   3   1.0000    -104.774648     -2851.0631
   4   1.0000     -32.062279      -872.4590
   5   1.0000     -27.540251      -749.4083
   6   1.0000     -27.540173      -749.4062
   7   1.0000     -27.539864      -749.3978
   8   1.0000     -20.570737      -559.7582
   9   1.0000     -11.397443      -310.1402
  10   1.0000     -11.334652      -308.4316
  11   1.0000     -11.278105      -306.8928
  12   1.0000     -11.272460      -306.7392
  13   1.0000     -11.261974      -306.4539
  14   1.0000     -11.256449      -306.3035
  15   1.0000     -11.256435      -306.3032
  16   1.0000     -11.246432      -306.0310
  17   1.0000     -10.504366      -285.8383
  18   1.0000     -10.501673      -285.7650
  19   1.0000     -10.501147      -285.7507
  20   1.0000      -7.970262      -216.8819
  21   1.0000      -7.969629      -216.8646
  22   1.0000      -7.969563      -216.8628
  23   1.0000      -7.967583      -216.8090
  24   1.0000      -7.967119      -216.7963
  25   1.0000      -7.966925      -216.7910
  26   1.0000      -7.966831      -216.7885
  27   1.0000      -7.966370      -216.7760
  28   1.0000      -7.966271      -216.7733
  29   1.0000      -4.137290      -112.5814
  30   1.0000      -2.658978       -72.3545
  31   1.0000      -2.658933       -72.3532
  32   1.0000      -2.658296       -72.3359
  33   1.0000      -1.406092       -38.2617
  34   1.0000      -1.166977       -31.7551
  35   1.0000      -1.081080       -29.4177
  36   1.0000      -1.040734       -28.3198
  37   1.0000      -1.035674       -28.1821
  38   1.0000      -1.024110       -27.8674
  39   1.0000      -1.022310       -27.8185
  40   1.0000      -0.994156       -27.0524
  41   1.0000      -0.988329       -26.8938
  42   1.0000      -0.919451       -25.0195
  43   1.0000      -0.808121       -21.9901
  44   1.0000      -0.761345       -20.7173
  45   1.0000      -0.693354       -18.8671
  46   1.0000      -0.686374       -18.6772
  47   1.0000      -0.678343       -18.4586
  48   1.0000      -0.670412       -18.2428
  49   1.0000      -0.649706       -17.6794
  50   1.0000      -0.624560       -16.9951
  51   1.0000      -0.602923       -16.4064
  52   1.0000      -0.595852       -16.2140
  53   1.0000      -0.584685       -15.9101
  54   1.0000      -0.578105       -15.7310
  55   1.0000      -0.569194       -15.4886
  56   1.0000      -0.566820       -15.4240
  57   1.0000      -0.558193       -15.1892
  58   1.0000      -0.543034       -14.7767
  59   1.0000      -0.531929       -14.4745
  60   1.0000      -0.522347       -14.2138
  61   1.0000      -0.507619       -13.8130
  62   1.0000      -0.479115       -13.0374
  63   1.0000      -0.469441       -12.7742
  64   1.0000      -0.467222       -12.7138
  65   1.0000      -0.440429       -11.9847
  66   1.0000      -0.437263       -11.8985
  67   1.0000      -0.435255       -11.8439
  68   1.0000      -0.422537       -11.4978
  69   1.0000      -0.415298       -11.3008
  70   1.0000      -0.400830       -10.9071
  71   1.0000      -0.382251       -10.4016
  72   0.0000       0.008313         0.2262
  73   0.0000       0.020020         0.5448
  74   0.0000       0.021091         0.5739
  75   0.0000       0.025192         0.6855
  76   0.0000       0.031808         0.8655

E(0)                                       ...  -3028.432787701
E(0)                                       ...  -3028.432787701
E(CORR)(strong-pairs)                      ...     -2.874984817
E(CORR)(weak-pairs)                        ...     -0.035588477
E(CORR)(corrected)                         ...     -2.910573294
E(TOT)                                     ...  -3031.343360996
E(CCSD(T))                                 ...  -3031.463972491
FINAL SINGLE POINT ENERGY     -3031.463972490524

DIPOLE MOMENT
-------------
                                X             Y             Z
Electronic contribution:     43.66168       6.05099      -1.47465
Nuclear contribution   :    -48.45659      -6.81569       1.35786
                        -----------------------------------------
Total Dipole Moment    :     -4.79491      -0.76469      -0.11679
                        -----------------------------------------
Magnitude (a.u.)       :      4.85691
Magnitude (Debye)      :     12.34527

Rotational constants in cm-1:     0.019716     0.010241     0.009790
Rotational constants in MHz :   591.067741   307.032399   293.484792

                             ****ORCA TERMINATED NORMALLY****
TOTAL RUN TIME: 0 days 19 hours 44 minutes 29 seconds 856 msec
