                         Program Version 4.1.2  - RELEASE  -
|  1> ! aug-cc-pVTZ aug-cc-pVTZ/C DLPNO-CCSD(T1) TightSCF NormalPNO UNO MiniPrint AutoAux
|  2> %pal nproc 10 end
|  3> %maxcore 20000
|  4> %mdci
|  5>      density none
|  6> end
|  7>
|  8> * xyz 0 6
|  9>  O      0.20078400      0.41092500     -0.86184500
| 10>  C      0.94397600      1.39408500     -0.65127300
| 11>  C      3.15683800      0.03207400      0.51948500
| 12>  C      2.62710900     -0.94771200     -0.23768500
| 13>  C      3.02292500     -1.12440600     -1.67969200
| 14> Fe     -1.47704800     -0.16646600      0.02477600
| 15> Cl     -2.07727600     -1.95829300     -1.04662000
| 16>  C      1.68299300     -1.99855900      0.27184900
| 17> Cl     -2.71421100      1.60543800     -0.32225100
| 18> Cl     -1.06929600     -0.47042600      2.15751100
| 19>  H      3.88798700      0.68878600      0.04571500
| 20>  H      2.18667100     -2.97490200      0.27516500
| 21>  H      1.31329700     -1.80780200      1.27899200
| 22>  H      0.82144200     -2.10520500     -0.39827600
| 23>  H      3.48982100     -2.10748600     -1.82476400
| 24>  H      2.13997900     -1.10457200     -2.33198600
| 25>  H      3.73316900     -0.36297400     -2.01555800
| 26>  C      2.98102800      0.23123600      2.00005200
| 27>  H      3.81998800     -0.21865900      2.54869500
| 28>  H      2.97426300      1.29502400      2.26242800
| 29>  H      2.06043500     -0.21542400      2.38404700
| 30>  C      0.80954600      2.21863200      0.58860400
| 31>  H      1.69014000      2.83781000      0.76447200
| 32>  H     -0.05783400      2.87737000      0.43254500
| 33>  H      0.59241300      1.59856600      1.45922500
| 34>  C      1.76638900      1.92466100     -1.78341900
| 35>  H      1.21831400      2.78879100     -2.18724600
| 36>  H      2.73965000      2.28265200     -1.44313000
| 37>  H      1.87573900      1.18444700     -2.57412200
| 38> *
| 39>
| 40>
| 41>                          ****END OF INPUT****

CARTESIAN COORDINATES (ANGSTROEM)
---------------------------------
  O      0.200784    0.410925   -0.861845
  C      0.943976    1.394085   -0.651273
  C      3.156838    0.032074    0.519485
  C      2.627109   -0.947712   -0.237685
  C      3.022925   -1.124406   -1.679692
  Fe    -1.477048   -0.166466    0.024776
  Cl    -2.077276   -1.958293   -1.046620
  C      1.682993   -1.998559    0.271849
  Cl    -2.714211    1.605438   -0.322251
  Cl    -1.069296   -0.470426    2.157511
  H      3.887987    0.688786    0.045715
  H      2.186671   -2.974902    0.275165
  H      1.313297   -1.807802    1.278992
  H      0.821442   -2.105205   -0.398276
  H      3.489821   -2.107486   -1.824764
  H      2.139979   -1.104572   -2.331986
  H      3.733169   -0.362974   -2.015558
  C      2.981028    0.231236    2.000052
  H      3.819988   -0.218659    2.548695
  H      2.974263    1.295024    2.262428
  H      2.060435   -0.215424    2.384047
  C      0.809546    2.218632    0.588604
  H      1.690140    2.837810    0.764472
  H     -0.057834    2.877370    0.432545
  H      0.592413    1.598566    1.459225
  C      1.766389    1.924661   -1.783419
  H      1.218314    2.788791   -2.187246
  H      2.739650    2.282652   -1.443130
  H      1.875739    1.184447   -2.574122

ORBITAL ENERGIES
----------------
                 SPIN UP ORBITALS
  NO   OCC          E(Eh)            E(eV)
   0   1.0000    -261.578691     -7117.9181
   1   1.0000    -104.795595     -2851.6331
   2   1.0000    -104.792616     -2851.5521
   3   1.0000    -104.790746     -2851.5012
   4   1.0000     -32.246346      -877.4677
   5   1.0000     -27.722885      -754.3781
   6   1.0000     -27.721654      -754.3445
   7   1.0000     -27.721463      -754.3394
   8   1.0000     -20.626328      -561.2709
   9   1.0000     -11.422373      -310.8186
  10   1.0000     -11.279489      -306.9305
  11   1.0000     -11.273564      -306.7693
  12   1.0000     -11.259622      -306.3899
  13   1.0000     -11.239973      -305.8552
  14   1.0000     -11.238839      -305.8243
  15   1.0000     -11.235159      -305.7242
  16   1.0000     -11.226105      -305.4779
  17   1.0000     -10.522328      -286.3271
  18   1.0000     -10.519320      -286.2453
  19   1.0000     -10.517398      -286.1929
  20   1.0000      -7.989149      -217.3958
  21   1.0000      -7.988417      -217.3759
  22   1.0000      -7.988357      -217.3743
  23   1.0000      -7.986213      -217.3159
  24   1.0000      -7.985412      -217.2941
  25   1.0000      -7.985357      -217.2926
  26   1.0000      -7.984178      -217.2605
  27   1.0000      -7.983528      -217.2428
  28   1.0000      -7.983486      -217.2417
  29   1.0000      -4.601107      -125.2025
  30   1.0000      -3.214271       -87.4648
  31   1.0000      -3.212443       -87.4150
  32   1.0000      -3.212331       -87.4120
  33   1.0000      -1.470446       -40.0129
  34   1.0000      -1.120360       -30.4866
  35   1.0000      -1.103405       -30.0252
  36   1.0000      -1.069095       -29.0916
  37   1.0000      -1.063304       -28.9340
  38   1.0000      -1.060604       -28.8605
  39   1.0000      -1.020922       -27.7807
  40   1.0000      -1.009079       -27.4584
  41   1.0000      -0.954423       -25.9712
  42   1.0000      -0.944783       -25.7089
  43   1.0000      -0.929948       -25.3052
  44   1.0000      -0.929815       -25.3015
  45   1.0000      -0.918894       -25.0044
  46   1.0000      -0.918283       -24.9877
  47   1.0000      -0.892176       -24.2773
  48   1.0000      -0.817009       -22.2319
  49   1.0000      -0.724651       -19.7188
  50   1.0000      -0.715841       -19.4790
  51   1.0000      -0.705867       -19.2076
  52   1.0000      -0.685311       -18.6483
  53   1.0000      -0.650729       -17.7072
  54   1.0000      -0.621775       -16.9194
  55   1.0000      -0.617197       -16.7948
  56   1.0000      -0.603810       -16.4305
  57   1.0000      -0.599928       -16.3249
  58   1.0000      -0.586497       -15.9594
  59   1.0000      -0.580080       -15.7848
  60   1.0000      -0.561070       -15.2675
  61   1.0000      -0.548331       -14.9209
  62   1.0000      -0.547646       -14.9022
  63   1.0000      -0.537308       -14.6209
  64   1.0000      -0.536604       -14.6017
  65   1.0000      -0.523181       -14.2365
  66   1.0000      -0.506214       -13.7748
  67   1.0000      -0.488904       -13.3038
  68   1.0000      -0.478687       -13.0257
  69   1.0000      -0.478185       -13.0121
  70   1.0000      -0.448830       -12.2133
  71   1.0000      -0.442394       -12.0382
  72   1.0000      -0.440607       -11.9895
  73   1.0000      -0.432012       -11.7556
  74   1.0000      -0.430981       -11.7276
  75   1.0000      -0.429787       -11.6951
  76   1.0000      -0.355913        -9.6849
  77   0.0000       0.012764         0.3473
  78   0.0000       0.023912         0.6507
  79   0.0000       0.024756         0.6737
  80   0.0000       0.030859         0.8397
  81   0.0000       0.039521         1.0754

                 SPIN DOWN ORBITALS
  NO   OCC          E(Eh)            E(eV)
   0   1.0000    -261.575106     -7117.8205
   1   1.0000    -104.794093     -2851.5923
   2   1.0000    -104.791052     -2851.5095
   3   1.0000    -104.789167     -2851.4582
   4   1.0000     -32.084378      -873.0603
   5   1.0000     -27.562332      -750.0092
   6   1.0000     -27.562198      -750.0055
   7   1.0000     -27.562123      -750.0035
   8   1.0000     -20.622996      -561.1802
   9   1.0000     -11.422303      -310.8167
  10   1.0000     -11.279385      -306.9277
  11   1.0000     -11.273559      -306.7691
  12   1.0000     -11.259672      -306.3912
  13   1.0000     -11.239905      -305.8534
  14   1.0000     -11.238831      -305.8242
  15   1.0000     -11.235165      -305.7244
  16   1.0000     -11.226112      -305.4780
  17   1.0000     -10.520725      -286.2835
  18   1.0000     -10.517651      -286.1998
  19   1.0000     -10.515722      -286.1474
  20   1.0000      -7.986655      -217.3279
  21   1.0000      -7.985884      -217.3069
  22   1.0000      -7.985846      -217.3059
  23   1.0000      -7.983515      -217.2425
  24   1.0000      -7.982848      -217.2243
  25   1.0000      -7.982753      -217.2218
  26   1.0000      -7.981720      -217.1936
  27   1.0000      -7.980795      -217.1685
  28   1.0000      -7.980715      -217.1663
  29   1.0000      -4.159085      -113.1745
  30   1.0000      -2.680626       -72.9435
  31   1.0000      -2.680572       -72.9421
  32   1.0000      -2.680160       -72.9309
  33   1.0000      -1.462342       -39.7924
  34   1.0000      -1.120065       -30.4785
  35   1.0000      -1.101236       -29.9662
  36   1.0000      -1.053321       -28.6623
  37   1.0000      -1.040697       -28.3188
  38   1.0000      -1.037649       -28.2359
  39   1.0000      -1.019974       -27.7549
  40   1.0000      -1.008830       -27.4517
  41   1.0000      -0.954256       -25.9666
  42   1.0000      -0.892260       -24.2796
  43   1.0000      -0.829157       -22.5625
  44   1.0000      -0.724740       -19.7212
  45   1.0000      -0.717428       -19.5222
  46   1.0000      -0.705121       -19.1873
  47   1.0000      -0.684754       -18.6331
  48   1.0000      -0.650682       -17.7060
  49   1.0000      -0.621203       -16.9038
  50   1.0000      -0.617115       -16.7925
  51   1.0000      -0.603660       -16.4264
  52   1.0000      -0.599849       -16.3227
  53   1.0000      -0.586233       -15.9522
  54   1.0000      -0.578762       -15.7489
  55   1.0000      -0.560135       -15.2421
  56   1.0000      -0.547986       -14.9115
  57   1.0000      -0.545403       -14.8412
  58   1.0000      -0.536682       -14.6038
  59   1.0000      -0.526887       -14.3373
  60   1.0000      -0.522676       -14.2227
  61   1.0000      -0.507974       -13.8227
  62   1.0000      -0.488923       -13.3043
  63   1.0000      -0.486856       -13.2480
  64   1.0000      -0.484809       -13.1923
  65   1.0000      -0.455732       -12.4011
  66   1.0000      -0.452771       -12.3205
  67   1.0000      -0.449656       -12.2358
  68   1.0000      -0.433097       -11.7852
  69   1.0000      -0.431299       -11.7363
  70   1.0000      -0.415012       -11.2931
  71   1.0000      -0.355515        -9.6741
  72   0.0000       0.012748         0.3469
  73   0.0000       0.023888         0.6500
  74   0.0000       0.024716         0.6726
  75   0.0000       0.030803         0.8382
  76   0.0000       0.039438         1.0732

E(0)                                       ...  -3028.471212282
E(0)                                       ...  -3028.471212282
E(CORR)(strong-pairs)                      ...     -2.865786913
E(CORR)(weak-pairs)                        ...     -0.035384341
E(CORR)(corrected)                         ...     -2.901171254
E(TOT)                                     ...  -3031.372383535
E(CCSD(T))                                 ...  -3031.490008237
FINAL SINGLE POINT ENERGY     -3031.490008237161

DIPOLE MOMENT
-------------
                                X             Y             Z
Electronic contribution:    -43.62690      -4.67072       1.85239
Nuclear contribution   :     46.75489       6.24139      -2.46707
                        -----------------------------------------
Total Dipole Moment    :      3.12799       1.57067      -0.61468
                        -----------------------------------------
Magnitude (a.u.)       :      3.55375
Magnitude (Debye)      :      9.03292

Rotational constants in cm-1:     0.018698     0.010683     0.010066
Rotational constants in MHz :   560.564397   320.280978   301.765981

                             ****ORCA TERMINATED NORMALLY****
TOTAL RUN TIME: 0 days 17 hours 7 minutes 12 seconds 87 msec
