                         Program Version 4.1.2  - RELEASE  -
|  1> ! aug-cc-pVTZ aug-cc-pVTZ/C DLPNO-CCSD(T1) TightSCF NormalPNO UNO MiniPrint AutoAux
|  2> %pal nproc 10 end
|  3> %maxcore 20000
|  4> %mdci
|  5>      density none
|  6> end
|  7>
|  8> * xyz 0 6
|  9>  O      0.27744300      0.28430200     -0.75442400
| 10>  C      1.02538600      1.27948600     -0.61476600
| 11>  C      3.26690900     -0.05375300      0.25732700
| 12>  C      2.47140800     -1.01663800     -0.25035600
| 13>  C      2.55635600     -1.41876400     -1.69744600
| 14> Fe     -1.47427500     -0.12615200      0.05595300
| 15> Cl     -2.10196400     -1.96513500     -0.92094500
| 16>  C      1.57530100     -1.88813900      0.58348100
| 17> Cl     -2.57162400      1.68284900     -0.51713100
| 18> Cl     -1.24953000     -0.27216400      2.23113300
| 19>  H      3.95091100      0.44429300     -0.43044200
| 20>  H      2.09512300     -2.83125900      0.80229000
| 21>  H      1.28655300     -1.44187400      1.53559100
| 22>  H      0.66660500     -2.15936200      0.03705500
| 23>  H      2.85660200     -2.47227600     -1.77105700
| 24>  H      1.57592900     -1.34088900     -2.18249000
| 25>  H      3.28581000     -0.82384100     -2.25524100
| 26>  C      3.43417200      0.31389300      1.70541600
| 27>  H      4.34637700     -0.14461700      2.11145700
| 28>  H      3.54611600      1.39631000      1.83757200
| 29>  H      2.59977700     -0.01861100      2.32836300
| 30>  C      0.96191200      2.12243100      0.61813700
| 31>  H      1.85534400      2.73511500      0.74293200
| 32>  H      0.09655200      2.79066700      0.49220300
| 33>  H      0.77702000      1.51642800      1.50600400
| 34>  C      1.74283200      1.80868800     -1.81666100
| 35>  H      1.08798600      2.58472300     -2.24124400
| 36>  H      2.69205100      2.27885500     -1.55531100
| 37>  H      1.88019500      1.03431000     -2.56982200
| 38> *
| 39>
| 40>
| 41>                          ****END OF INPUT****

CARTESIAN COORDINATES (ANGSTROEM)
---------------------------------
  O      0.277443    0.284302   -0.754424
  C      1.025386    1.279486   -0.614766
  C      3.266909   -0.053753    0.257327
  C      2.471408   -1.016638   -0.250356
  C      2.556356   -1.418764   -1.697446
  Fe    -1.474275   -0.126152    0.055953
  Cl    -2.101964   -1.965135   -0.920945
  C      1.575301   -1.888139    0.583481
  Cl    -2.571624    1.682849   -0.517131
  Cl    -1.249530   -0.272164    2.231133
  H      3.950911    0.444293   -0.430442
  H      2.095123   -2.831259    0.802290
  H      1.286553   -1.441874    1.535591
  H      0.666605   -2.159362    0.037055
  H      2.856602   -2.472276   -1.771057
  H      1.575929   -1.340889   -2.182490
  H      3.285810   -0.823841   -2.255241
  C      3.434172    0.313893    1.705416
  H      4.346377   -0.144617    2.111457
  H      3.546116    1.396310    1.837572
  H      2.599777   -0.018611    2.328363
  C      0.961912    2.122431    0.618137
  H      1.855344    2.735115    0.742932
  H      0.096552    2.790667    0.492203
  H      0.777020    1.516428    1.506004
  C      1.742832    1.808688   -1.816661
  H      1.087986    2.584723   -2.241244
  H      2.692051    2.278855   -1.555311
  H      1.880195    1.034310   -2.569822

ORBITAL ENERGIES
----------------
                 SPIN UP ORBITALS
  NO   OCC          E(Eh)            E(eV)
   0   1.0000    -261.577768     -7117.8929
   1   1.0000    -104.794166     -2851.5942
   2   1.0000    -104.792047     -2851.5366
   3   1.0000    -104.790629     -2851.4980
   4   1.0000     -32.245414      -877.4423
   5   1.0000     -27.721940      -754.3523
   6   1.0000     -27.720737      -754.3196
   7   1.0000     -27.720565      -754.3149
   8   1.0000     -20.619783      -561.0928
   9   1.0000     -11.423431      -310.8474
  10   1.0000     -11.278904      -306.9146
  11   1.0000     -11.273689      -306.7727
  12   1.0000     -11.263740      -306.5020
  13   1.0000     -11.240388      -305.8665
  14   1.0000     -11.239673      -305.8471
  15   1.0000     -11.237380      -305.7846
  16   1.0000     -11.229044      -305.5578
  17   1.0000     -10.520874      -286.2875
  18   1.0000     -10.518728      -286.2291
  19   1.0000     -10.517253      -286.1890
  20   1.0000      -7.987700      -217.3564
  21   1.0000      -7.986964      -217.3363
  22   1.0000      -7.986908      -217.3348
  23   1.0000      -7.985632      -217.3001
  24   1.0000      -7.984817      -217.2779
  25   1.0000      -7.984745      -217.2759
  26   1.0000      -7.984034      -217.2566
  27   1.0000      -7.983378      -217.2388
  28   1.0000      -7.983334      -217.2376
  29   1.0000      -4.600239      -125.1789
  30   1.0000      -3.213426       -87.4418
  31   1.0000      -3.211591       -87.3918
  32   1.0000      -3.211476       -87.3887
  33   1.0000      -1.468418       -39.9577
  34   1.0000      -1.123257       -30.5654
  35   1.0000      -1.103479       -30.0272
  36   1.0000      -1.067850       -29.0577
  37   1.0000      -1.062274       -28.9059
  38   1.0000      -1.060039       -28.8451
  39   1.0000      -1.021225       -27.7889
  40   1.0000      -1.011270       -27.5181
  41   1.0000      -0.956838       -26.0369
  42   1.0000      -0.944166       -25.6921
  43   1.0000      -0.929189       -25.2845
  44   1.0000      -0.929030       -25.2802
  45   1.0000      -0.917989       -24.9798
  46   1.0000      -0.917737       -24.9729
  47   1.0000      -0.894672       -24.3453
  48   1.0000      -0.815412       -22.1885
  49   1.0000      -0.727065       -19.7845
  50   1.0000      -0.714348       -19.4384
  51   1.0000      -0.705800       -19.2058
  52   1.0000      -0.689027       -18.7494
  53   1.0000      -0.652610       -17.7584
  54   1.0000      -0.622420       -16.9369
  55   1.0000      -0.619556       -16.8590
  56   1.0000      -0.602493       -16.3947
  57   1.0000      -0.600702       -16.3459
  58   1.0000      -0.586214       -15.9517
  59   1.0000      -0.580455       -15.7950
  60   1.0000      -0.559822       -15.2335
  61   1.0000      -0.554021       -15.0757
  62   1.0000      -0.551061       -14.9951
  63   1.0000      -0.537254       -14.6194
  64   1.0000      -0.533774       -14.5247
  65   1.0000      -0.524873       -14.2825
  66   1.0000      -0.504360       -13.7243
  67   1.0000      -0.491117       -13.3640
  68   1.0000      -0.478525       -13.0213
  69   1.0000      -0.476852       -12.9758
  70   1.0000      -0.448077       -12.1928
  71   1.0000      -0.441541       -12.0149
  72   1.0000      -0.440085       -11.9753
  73   1.0000      -0.431530       -11.7425
  74   1.0000      -0.429950       -11.6995
  75   1.0000      -0.429546       -11.6886
  76   1.0000      -0.356143        -9.6911
  77   0.0000       0.013018         0.3542
  78   0.0000       0.023930         0.6512
  79   0.0000       0.024799         0.6748
  80   0.0000       0.030623         0.8333
  81   0.0000       0.039628         1.0783

                 SPIN DOWN ORBITALS
  NO   OCC          E(Eh)            E(eV)
   0   1.0000    -261.574190     -7117.7956
   1   1.0000    -104.792655     -2851.5531
   2   1.0000    -104.790500     -2851.4945
   3   1.0000    -104.789069     -2851.4555
   4   1.0000     -32.083453      -873.0351
   5   1.0000     -27.561409      -749.9841
   6   1.0000     -27.561280      -749.9805
   7   1.0000     -27.561178      -749.9778
   8   1.0000     -20.616456      -561.0023
   9   1.0000     -11.423294      -310.8436
  10   1.0000     -11.278807      -306.9119
  11   1.0000     -11.273689      -306.7727
  12   1.0000     -11.263839      -306.5046
  13   1.0000     -11.240304      -305.8642
  14   1.0000     -11.239628      -305.8458
  15   1.0000     -11.237364      -305.7842
  16   1.0000     -11.229046      -305.5579
  17   1.0000     -10.519262      -286.2437
  18   1.0000     -10.517074      -286.1841
  19   1.0000     -10.515597      -286.1440
  20   1.0000      -7.985189      -217.2880
  21   1.0000      -7.984422      -217.2672
  22   1.0000      -7.984375      -217.2659
  23   1.0000      -7.982926      -217.2265
  24   1.0000      -7.982297      -217.2094
  25   1.0000      -7.982193      -217.2065
  26   1.0000      -7.981594      -217.1902
  27   1.0000      -7.980685      -217.1655
  28   1.0000      -7.980606      -217.1633
  29   1.0000      -4.158186      -113.1500
  30   1.0000      -2.679733       -72.9192
  31   1.0000      -2.679653       -72.9171
  32   1.0000      -2.679306       -72.9076
  33   1.0000      -1.460183       -39.7336
  34   1.0000      -1.122968       -30.5575
  35   1.0000      -1.101242       -29.9663
  36   1.0000      -1.052151       -28.6305
  37   1.0000      -1.039580       -28.2884
  38   1.0000      -1.037384       -28.2287
  39   1.0000      -1.020405       -27.7666
  40   1.0000      -1.010909       -27.5082
  41   1.0000      -0.956601       -26.0304
  42   1.0000      -0.894819       -24.3493
  43   1.0000      -0.827697       -22.5228
  44   1.0000      -0.727140       -19.7865
  45   1.0000      -0.716252       -19.4902
  46   1.0000      -0.704997       -19.1839
  47   1.0000      -0.688437       -18.7333
  48   1.0000      -0.652578       -17.7575
  49   1.0000      -0.621879       -16.9222
  50   1.0000      -0.619508       -16.8577
  51   1.0000      -0.602323       -16.3900
  52   1.0000      -0.600689       -16.3456
  53   1.0000      -0.585913       -15.9435
  54   1.0000      -0.579604       -15.7718
  55   1.0000      -0.558645       -15.2015
  56   1.0000      -0.552832       -15.0433
  57   1.0000      -0.550056       -14.9678
  58   1.0000      -0.536978       -14.6119
  59   1.0000      -0.526499       -14.3268
  60   1.0000      -0.522094       -14.2069
  61   1.0000      -0.505278       -13.7493
  62   1.0000      -0.490868       -13.3572
  63   1.0000      -0.486146       -13.2287
  64   1.0000      -0.484420       -13.1817
  65   1.0000      -0.455013       -12.3815
  66   1.0000      -0.451923       -12.2974
  67   1.0000      -0.449028       -12.2187
  68   1.0000      -0.432568       -11.7708
  69   1.0000      -0.430767       -11.7218
  70   1.0000      -0.414449       -11.2777
  71   1.0000      -0.355548        -9.6749
  72   0.0000       0.013004         0.3538
  73   0.0000       0.023905         0.6505
  74   0.0000       0.024761         0.6738
  75   0.0000       0.030573         0.8319
  76   0.0000       0.039519         1.0754

E(0)                                       ...  -3028.461897759
E(0)                                       ...  -3028.461897759
E(CORR)(strong-pairs)                      ...     -2.867514685
E(CORR)(weak-pairs)                        ...     -0.035691706
E(CORR)(corrected)                         ...     -2.903206391
E(TOT)                                     ...  -3031.365104150
E(CCSD(T))                                 ...  -3031.483030871
FINAL SINGLE POINT ENERGY     -3031.483030870997

DIPOLE MOMENT
-------------
                                X             Y             Z
Electronic contribution:    -43.70036      -3.29571       2.25506
Nuclear contribution   :     46.94110       4.65225      -2.86429
                        -----------------------------------------
Total Dipole Moment    :      3.24074       1.35654      -0.60923
                        -----------------------------------------
Magnitude (a.u.)       :      3.56564
Magnitude (Debye)      :      9.06313

Rotational constants in cm-1:     0.018977     0.010755     0.010134
Rotational constants in MHz :   568.904826   322.422541   303.803375

                             ****ORCA TERMINATED NORMALLY****
TOTAL RUN TIME: 0 days 18 hours 6 minutes 54 seconds 59 msec
