                         Program Version 4.1.2  - RELEASE  -
|  1> ! aug-cc-pVTZ aug-cc-pVTZ/C DLPNO-CCSD(T1) TightSCF NormalPNO UNO MiniPrint AutoAux
|  2> %pal nproc 10 end
|  3> %maxcore 20000
|  4> %mdci
|  5>      density none
|  6> end
|  7>
|  8> * xyz 0 6
|  9>  O     -0.39995600     -0.12314500     -0.46930500
| 10>  C     -1.31572400     -1.16844300     -0.39694100
| 11>  C     -2.95654400     -0.04837300     -0.16639300
| 12>  C     -2.05159700      1.07624900     -0.27939900
| 13>  C     -1.88168800      1.75597600     -1.59265800
| 14> Fe      1.39661300      0.05573900      0.05259600
| 15> Cl      1.89764500      2.01981600     -0.82729400
| 16>  C     -1.58823000      1.81762200      0.92498500
| 17> Cl      2.42444300     -1.71497200     -0.75113700
| 18> Cl      1.38552000      0.11247200      2.26626300
| 19>  H     -3.52515700     -0.23861500     -1.07589800
| 20>  H     -2.41736300      2.47822600      1.22489400
| 21>  H     -1.36664400      1.16136200      1.76706600
| 22>  H     -0.71372700      2.43277700      0.70649600
| 23>  H     -2.61771000      2.57583400     -1.61553300
| 24>  H     -0.88306900      2.18672500     -1.69313100
| 25>  H     -2.09651000      1.09306300     -2.43266000
| 26>  C     -3.71139300     -0.33226200      1.11149900
| 27>  H     -4.54088200      0.37433600      1.24631200
| 28>  H     -4.14343300     -1.33709000      1.07804800
| 29>  H     -3.07834000     -0.27221700      1.99984800
| 30>  C     -1.17932100     -2.04123700      0.81738700
| 31>  H     -2.00665400     -2.75083900      0.90102800
| 32>  H     -0.24655500     -2.61229700      0.70415500
| 33>  H     -1.08829700     -1.45569100      1.73341500
| 34>  C     -1.47541500     -1.88840100     -1.70824700
| 35>  H     -0.52452900     -2.39940000     -1.91434600
| 36>  H     -2.27724200     -2.63120200     -1.66857100
| 37>  H     -1.65606200     -1.19018400     -2.52871300
| 38> *
| 39>
| 40>
| 41>                          ****END OF INPUT****

CARTESIAN COORDINATES (ANGSTROEM)
---------------------------------
  O     -0.399956   -0.123145   -0.469305
  C     -1.315724   -1.168443   -0.396941
  C     -2.956544   -0.048373   -0.166393
  C     -2.051597    1.076249   -0.279399
  C     -1.881688    1.755976   -1.592658
  Fe     1.396613    0.055739    0.052596
  Cl     1.897645    2.019816   -0.827294
  C     -1.588230    1.817622    0.924985
  Cl     2.424443   -1.714972   -0.751137
  Cl     1.385520    0.112472    2.266263
  H     -3.525157   -0.238615   -1.075898
  H     -2.417363    2.478226    1.224894
  H     -1.366644    1.161362    1.767066
  H     -0.713727    2.432777    0.706496
  H     -2.617710    2.575834   -1.615533
  H     -0.883069    2.186725   -1.693131
  H     -2.096510    1.093063   -2.432660
  C     -3.711393   -0.332262    1.111499
  H     -4.540882    0.374336    1.246312
  H     -4.143433   -1.337090    1.078048
  H     -3.078340   -0.272217    1.999848
  C     -1.179321   -2.041237    0.817387
  H     -2.006654   -2.750839    0.901028
  H     -0.246555   -2.612297    0.704155
  H     -1.088297   -1.455691    1.733415
  C     -1.475415   -1.888401   -1.708247
  H     -0.524529   -2.399400   -1.914346
  H     -2.277242   -2.631202   -1.668571
  H     -1.656062   -1.190184   -2.528713

ORBITAL ENERGIES
----------------
                 SPIN UP ORBITALS
  NO   OCC          E(Eh)            E(eV)
   0   1.0000    -261.553222     -7117.2250
   1   1.0000    -104.779287     -2851.1893
   2   1.0000    -104.777709     -2851.1464
   3   1.0000    -104.777403     -2851.1381
   4   1.0000     -32.221110      -876.7810
   5   1.0000     -27.697067      -753.6755
   6   1.0000     -27.696776      -753.6676
   7   1.0000     -27.696551      -753.6615
   8   1.0000     -20.560969      -559.4924
   9   1.0000     -11.385413      -309.8128
  10   1.0000     -11.378034      -309.6121
  11   1.0000     -11.276462      -306.8481
  12   1.0000     -11.270453      -306.6846
  13   1.0000     -11.267794      -306.6123
  14   1.0000     -11.257632      -306.3357
  15   1.0000     -11.250259      -306.1351
  16   1.0000     -11.247181      -306.0514
  17   1.0000     -10.505820      -285.8779
  18   1.0000     -10.504275      -285.8358
  19   1.0000     -10.503996      -285.8283
  20   1.0000      -7.972628      -216.9462
  21   1.0000      -7.971911      -216.9267
  22   1.0000      -7.971839      -216.9248
  23   1.0000      -7.971085      -216.9042
  24   1.0000      -7.970884      -216.8988
  25   1.0000      -7.970379      -216.8850
  26   1.0000      -7.970309      -216.8831
  27   1.0000      -7.970054      -216.8762
  28   1.0000      -7.969998      -216.8747
  29   1.0000      -4.576503      -124.5330
  30   1.0000      -3.189070       -86.7790
  31   1.0000      -3.188608       -86.7664
  32   1.0000      -3.188008       -86.7501
  33   1.0000      -1.381771       -37.5999
  34   1.0000      -1.164850       -31.6972
  35   1.0000      -1.085051       -29.5257
  36   1.0000      -1.050882       -28.5960
  37   1.0000      -1.044738       -28.4288
  38   1.0000      -1.044235       -28.4151
  39   1.0000      -1.038601       -28.2618
  40   1.0000      -1.003462       -27.3056
  41   1.0000      -0.979646       -26.6575
  42   1.0000      -0.927954       -25.2509
  43   1.0000      -0.909521       -24.7493
  44   1.0000      -0.906102       -24.6563
  45   1.0000      -0.905668       -24.6445
  46   1.0000      -0.897467       -24.4213
  47   1.0000      -0.896766       -24.4022
  48   1.0000      -0.785722       -21.3806
  49   1.0000      -0.759999       -20.6806
  50   1.0000      -0.692222       -18.8363
  51   1.0000      -0.689746       -18.7689
  52   1.0000      -0.670839       -18.2545
  53   1.0000      -0.648074       -17.6350
  54   1.0000      -0.636802       -17.3283
  55   1.0000      -0.622879       -16.9494
  56   1.0000      -0.597777       -16.2663
  57   1.0000      -0.591220       -16.0879
  58   1.0000      -0.587356       -15.9828
  59   1.0000      -0.583147       -15.8682
  60   1.0000      -0.571227       -15.5439
  61   1.0000      -0.563728       -15.3398
  62   1.0000      -0.550906       -14.9909
  63   1.0000      -0.544268       -14.8103
  64   1.0000      -0.535608       -14.5746
  65   1.0000      -0.531850       -14.4724
  66   1.0000      -0.509879       -13.8745
  67   1.0000      -0.484559       -13.1855
  68   1.0000      -0.465778       -12.6745
  69   1.0000      -0.454687       -12.3727
  70   1.0000      -0.434223       -11.8158
  71   1.0000      -0.428680       -11.6650
  72   1.0000      -0.425580       -11.5806
  73   1.0000      -0.419716       -11.4211
  74   1.0000      -0.416919       -11.3449
  75   1.0000      -0.416101       -11.3227
  76   1.0000      -0.374634       -10.1943
  77   0.0000       0.009963         0.2711
  78   0.0000       0.020760         0.5649
  79   0.0000       0.023078         0.6280
  80   0.0000       0.030932         0.8417
  81   0.0000       0.037840         1.0297

                 SPIN DOWN ORBITALS
  NO   OCC          E(Eh)            E(eV)
   0   1.0000    -261.549670     -7117.1284
   1   1.0000    -104.777938     -2851.1527
   2   1.0000    -104.776272     -2851.1073
   3   1.0000    -104.776006     -2851.1001
   4   1.0000     -32.059149      -872.3738
   5   1.0000     -27.537164      -749.3243
   6   1.0000     -27.537024      -749.3205
   7   1.0000     -27.536626      -749.3097
   8   1.0000     -20.555647      -559.3476
   9   1.0000     -11.385460      -309.8141
  10   1.0000     -11.378175      -309.6159
  11   1.0000     -11.275914      -306.8332
  12   1.0000     -11.270432      -306.6840
  13   1.0000     -11.267803      -306.6125
  14   1.0000     -11.257681      -306.3371
  15   1.0000     -11.250187      -306.1332
  16   1.0000     -11.247145      -306.0504
  17   1.0000     -10.504376      -285.8386
  18   1.0000     -10.502738      -285.7940
  19   1.0000     -10.502496      -285.7875
  20   1.0000      -7.970347      -216.8842
  21   1.0000      -7.969678      -216.8660
  22   1.0000      -7.969601      -216.8639
  23   1.0000      -7.968699      -216.8393
  24   1.0000      -7.968387      -216.8308
  25   1.0000      -7.967967      -216.8194
  26   1.0000      -7.967906      -216.8177
  27   1.0000      -7.967819      -216.8154
  28   1.0000      -7.967744      -216.8133
  29   1.0000      -4.134434      -112.5037
  30   1.0000      -2.656284       -72.2812
  31   1.0000      -2.656098       -72.2761
  32   1.0000      -2.655484       -72.2594
  33   1.0000      -1.368007       -37.2254
  34   1.0000      -1.163444       -31.6589
  35   1.0000      -1.082296       -29.4508
  36   1.0000      -1.037962       -28.2444
  37   1.0000      -1.036002       -28.1910
  38   1.0000      -1.024971       -27.8909
  39   1.0000      -1.023756       -27.8578
  40   1.0000      -1.003142       -27.2969
  41   1.0000      -0.979172       -26.6446
  42   1.0000      -0.920899       -25.0589
  43   1.0000      -0.793183       -21.5836
  44   1.0000      -0.762325       -20.7439
  45   1.0000      -0.692480       -18.8433
  46   1.0000      -0.689487       -18.7619
  47   1.0000      -0.671792       -18.2804
  48   1.0000      -0.648567       -17.6484
  49   1.0000      -0.635467       -17.2919
  50   1.0000      -0.623122       -16.9560
  51   1.0000      -0.596657       -16.2359
  52   1.0000      -0.591187       -16.0870
  53   1.0000      -0.587299       -15.9812
  54   1.0000      -0.581806       -15.8317
  55   1.0000      -0.571079       -15.5398
  56   1.0000      -0.563784       -15.3414
  57   1.0000      -0.549537       -14.9537
  58   1.0000      -0.543701       -14.7948
  59   1.0000      -0.533581       -14.5195
  60   1.0000      -0.528011       -14.3679
  61   1.0000      -0.506135       -13.7726
  62   1.0000      -0.480207       -13.0671
  63   1.0000      -0.470062       -12.7911
  64   1.0000      -0.465365       -12.6632
  65   1.0000      -0.440049       -11.9743
  66   1.0000      -0.437912       -11.9162
  67   1.0000      -0.435555       -11.8521
  68   1.0000      -0.423626       -11.5274
  69   1.0000      -0.414726       -11.2853
  70   1.0000      -0.403154       -10.9704
  71   1.0000      -0.374189       -10.1822
  72   0.0000       0.009953         0.2708
  73   0.0000       0.020648         0.5619
  74   0.0000       0.023058         0.6274
  75   0.0000       0.030978         0.8430
  76   0.0000       0.037781         1.0281

E(0)                                       ...  -3028.410404336
E(0)                                       ...  -3028.410404336
E(CORR)(strong-pairs)                      ...     -2.873765980
E(CORR)(weak-pairs)                        ...     -0.036223983
E(CORR)(corrected)                         ...     -2.909989964
E(TOT)                                     ...  -3031.320394299
E(CCSD(T))                                 ...  -3031.440327187
FINAL SINGLE POINT ENERGY     -3031.440327186588

DIPOLE MOMENT
-------------
                                X             Y             Z
Electronic contribution:     40.65648       3.37477       2.15472
Nuclear contribution   :    -44.99448      -3.27354      -2.65961
                        -----------------------------------------
Total Dipole Moment    :     -4.33800       0.10123      -0.50488
                        -----------------------------------------
Magnitude (a.u.)       :      4.36846
Magnitude (Debye)      :     11.10374

Rotational constants in cm-1:     0.019073     0.011760     0.010738
Rotational constants in MHz :   571.806223   352.542259   321.903762

                             ****ORCA TERMINATED NORMALLY****
TOTAL RUN TIME: 0 days 20 hours 17 minutes 34 seconds 507 msec
