                         Program Version 4.1.2  - RELEASE  -
|  1> ! aug-cc-pVTZ aug-cc-pVTZ/C DLPNO-CCSD(T1) TightSCF NormalPNO UNO MiniPrint AutoAux
|  2> %pal nproc 10 end
|  3> %maxcore 20000
|  4> %mdci
|  5>      density none
|  6> end
|  7>
|  8> * xyz 0 6
|  9>  O     -0.33494200     -0.13838900     -0.67801400
| 10>  C     -1.27299100     -1.06808700     -0.56335200
| 11>  C     -2.82619800     -0.23538500      0.27130800
| 12>  C     -2.37064100      1.01457000     -0.14268700
| 13>  C     -2.66253000      1.55719100     -1.49641800
| 14> Fe      1.39846800      0.09337300      0.00564700
| 15> Cl      1.95466400      2.09531100     -0.72408000
| 16>  C     -1.56326000      1.89661600      0.73544000
| 17> Cl      2.59570900     -1.58644800     -0.75479300
| 18> Cl      1.20288600      0.03590400      2.22438700
| 19>  H     -3.61054300     -0.66827100     -0.34693200
| 20>  H     -2.27013600      2.59519700      1.21281300
| 21>  H     -1.03926500      1.36469100      1.52840400
| 22>  H     -0.84789500      2.49052300      0.16002900
| 23>  H     -3.00846500      2.59368600     -1.39712800
| 24>  H     -1.72162400      1.59996100     -2.06097300
| 25>  H     -3.40746600      0.98227400     -2.04796600
| 26>  C     -2.93297400     -0.57868100      1.74566700
| 27>  H     -3.74688900     -0.00039000      2.19941400
| 28>  H     -3.16830200     -1.63619200      1.88204600
| 29>  H     -2.01801600     -0.36156300      2.30072500
| 30>  C     -0.96219200     -2.21266800      0.38227100
| 31>  H     -1.79698600     -2.90976300      0.48229000
| 32>  H     -0.11669500     -2.74549000     -0.07329600
| 33>  H     -0.63640600     -1.86472800      1.36197400
| 34>  C     -1.80729000     -1.54096500     -1.90692700
| 35>  H     -0.98421800     -2.08869100     -2.38170500
| 36>  H     -2.66036400     -2.21611300     -1.80162400
| 37>  H     -2.06429300     -0.71231100     -2.56634000
| 38> *
| 39>
| 40>
| 41>                          ****END OF INPUT****

CARTESIAN COORDINATES (ANGSTROEM)
---------------------------------
  O     -0.334942   -0.138389   -0.678014
  C     -1.272991   -1.068087   -0.563352
  C     -2.826198   -0.235385    0.271308
  C     -2.370641    1.014570   -0.142687
  C     -2.662530    1.557191   -1.496418
  Fe     1.398468    0.093373    0.005647
  Cl     1.954664    2.095311   -0.724080
  C     -1.563260    1.896616    0.735440
  Cl     2.595709   -1.586448   -0.754793
  Cl     1.202886    0.035904    2.224387
  H     -3.610543   -0.668271   -0.346932
  H     -2.270136    2.595197    1.212813
  H     -1.039265    1.364691    1.528404
  H     -0.847895    2.490523    0.160029
  H     -3.008465    2.593686   -1.397128
  H     -1.721624    1.599961   -2.060973
  H     -3.407466    0.982274   -2.047966
  C     -2.932974   -0.578681    1.745667
  H     -3.746889   -0.000390    2.199414
  H     -3.168302   -1.636192    1.882046
  H     -2.018016   -0.361563    2.300725
  C     -0.962192   -2.212668    0.382271
  H     -1.796986   -2.909763    0.482290
  H     -0.116695   -2.745490   -0.073296
  H     -0.636406   -1.864728    1.361974
  C     -1.807290   -1.540965   -1.906927
  H     -0.984218   -2.088691   -2.381705
  H     -2.660364   -2.216113   -1.801624
  H     -2.064293   -0.712311   -2.566340

ORBITAL ENERGIES
----------------
                 SPIN UP ORBITALS
  NO   OCC          E(Eh)            E(eV)
   0   1.0000    -261.551643     -7117.1820
   1   1.0000    -104.778004     -2851.1544
   2   1.0000    -104.774894     -2851.0698
   3   1.0000    -104.773531     -2851.0327
   4   1.0000     -32.219537      -876.7382
   5   1.0000     -27.695477      -753.6322
   6   1.0000     -27.695220      -753.6253
   7   1.0000     -27.694986      -753.6189
   8   1.0000     -20.554035      -559.3037
   9   1.0000     -11.384930      -309.7997
  10   1.0000     -11.364085      -309.2325
  11   1.0000     -11.278640      -306.9074
  12   1.0000     -11.277882      -306.8868
  13   1.0000     -11.262539      -306.4693
  14   1.0000     -11.256037      -306.2923
  15   1.0000     -11.254657      -306.2548
  16   1.0000     -11.246627      -306.0363
  17   1.0000     -10.504599      -285.8447
  18   1.0000     -10.501454      -285.7591
  19   1.0000     -10.500120      -285.7228
  20   1.0000      -7.971492      -216.9153
  21   1.0000      -7.970619      -216.8916
  22   1.0000      -7.970579      -216.8905
  23   1.0000      -7.968269      -216.8276
  24   1.0000      -7.967555      -216.8082
  25   1.0000      -7.967474      -216.8060
  26   1.0000      -7.966956      -216.7919
  27   1.0000      -7.966219      -216.7718
  28   1.0000      -7.966145      -216.7698
  29   1.0000      -4.574888      -124.4890
  30   1.0000      -3.187461       -86.7352
  31   1.0000      -3.186940       -86.7210
  32   1.0000      -3.186468       -86.7082
  33   1.0000      -1.396020       -37.9876
  34   1.0000      -1.178474       -32.0679
  35   1.0000      -1.084600       -29.5135
  36   1.0000      -1.048633       -28.5347
  37   1.0000      -1.043717       -28.4010
  38   1.0000      -1.042615       -28.3710
  39   1.0000      -1.040644       -28.3174
  40   1.0000      -1.001337       -27.2478
  41   1.0000      -0.981033       -26.6953
  42   1.0000      -0.932287       -25.3688
  43   1.0000      -0.916141       -24.9295
  44   1.0000      -0.904364       -24.6090
  45   1.0000      -0.904235       -24.6055
  46   1.0000      -0.895626       -24.3712
  47   1.0000      -0.895057       -24.3557
  48   1.0000      -0.786252       -21.3950
  49   1.0000      -0.764755       -20.8100
  50   1.0000      -0.699321       -19.0295
  51   1.0000      -0.692570       -18.8458
  52   1.0000      -0.673753       -18.3337
  53   1.0000      -0.654090       -17.7987
  54   1.0000      -0.648724       -17.6527
  55   1.0000      -0.625798       -17.0288
  56   1.0000      -0.600286       -16.3346
  57   1.0000      -0.595273       -16.1982
  58   1.0000      -0.589078       -16.0296
  59   1.0000      -0.578739       -15.7483
  60   1.0000      -0.575459       -15.6590
  61   1.0000      -0.562395       -15.3036
  62   1.0000      -0.555141       -15.1062
  63   1.0000      -0.549471       -14.9519
  64   1.0000      -0.537935       -14.6379
  65   1.0000      -0.527419       -14.3518
  66   1.0000      -0.513184       -13.9644
  67   1.0000      -0.475861       -12.9488
  68   1.0000      -0.462449       -12.5839
  69   1.0000      -0.453440       -12.3387
  70   1.0000      -0.428407       -11.6575
  71   1.0000      -0.426407       -11.6031
  72   1.0000      -0.424481       -11.5507
  73   1.0000      -0.415684       -11.3113
  74   1.0000      -0.414530       -11.2799
  75   1.0000      -0.413357       -11.2480
  76   1.0000      -0.390639       -10.6298
  77   0.0000       0.008290         0.2256
  78   0.0000       0.019428         0.5287
  79   0.0000       0.021107         0.5743
  80   0.0000       0.026677         0.7259
  81   0.0000       0.031391         0.8542

                 SPIN DOWN ORBITALS
  NO   OCC          E(Eh)            E(eV)
   0   1.0000    -261.548098     -7117.0856
   1   1.0000    -104.776668     -2851.1181
   2   1.0000    -104.773519     -2851.0324
   3   1.0000    -104.772085     -2850.9934
   4   1.0000     -32.057473      -872.3282
   5   1.0000     -27.535523      -749.2797
   6   1.0000     -27.535388      -749.2760
   7   1.0000     -27.534926      -749.2634
   8   1.0000     -20.548747      -559.1598
   9   1.0000     -11.384901      -309.7989
  10   1.0000     -11.364039      -309.2312
  11   1.0000     -11.278419      -306.9014
  12   1.0000     -11.277885      -306.8868
  13   1.0000     -11.262571      -306.4701
  14   1.0000     -11.256060      -306.2930
  15   1.0000     -11.254547      -306.2518
  16   1.0000     -11.246594      -306.0354
  17   1.0000     -10.503160      -285.8055
  18   1.0000     -10.499983      -285.7191
  19   1.0000     -10.498572      -285.6807
  20   1.0000      -7.969013      -216.8479
  21   1.0000      -7.968545      -216.8351
  22   1.0000      -7.968465      -216.8330
  23   1.0000      -7.965960      -216.7648
  24   1.0000      -7.965268      -216.7460
  25   1.0000      -7.965178      -216.7435
  26   1.0000      -7.964510      -216.7253
  27   1.0000      -7.963817      -216.7065
  28   1.0000      -7.963738      -216.7043
  29   1.0000      -4.132587      -112.4534
  30   1.0000      -2.654362       -72.2289
  31   1.0000      -2.654336       -72.2282
  32   1.0000      -2.653491       -72.2051
  33   1.0000      -1.382485       -37.6193
  34   1.0000      -1.177486       -32.0410
  35   1.0000      -1.081911       -29.4403
  36   1.0000      -1.042338       -28.3635
  37   1.0000      -1.034518       -28.1507
  38   1.0000      -1.022975       -27.8366
  39   1.0000      -1.020155       -27.7598
  40   1.0000      -1.001077       -27.2407
  41   1.0000      -0.980256       -26.6741
  42   1.0000      -0.930244       -25.3132
  43   1.0000      -0.797622       -21.7044
  44   1.0000      -0.766526       -20.8582
  45   1.0000      -0.699793       -19.0423
  46   1.0000      -0.691751       -18.8235
  47   1.0000      -0.675367       -18.3777
  48   1.0000      -0.654836       -17.8190
  49   1.0000      -0.647408       -17.6169
  50   1.0000      -0.625422       -17.0186
  51   1.0000      -0.599233       -16.3060
  52   1.0000      -0.595485       -16.2040
  53   1.0000      -0.588917       -16.0252
  54   1.0000      -0.578249       -15.7350
  55   1.0000      -0.575314       -15.6551
  56   1.0000      -0.562127       -15.2963
  57   1.0000      -0.554787       -15.0965
  58   1.0000      -0.548792       -14.9334
  59   1.0000      -0.532284       -14.4842
  60   1.0000      -0.527243       -14.3470
  61   1.0000      -0.504722       -13.7342
  62   1.0000      -0.474236       -12.9046
  63   1.0000      -0.466918       -12.7055
  64   1.0000      -0.462530       -12.5861
  65   1.0000      -0.438023       -11.9192
  66   1.0000      -0.435032       -11.8378
  67   1.0000      -0.433489       -11.7958
  68   1.0000      -0.422351       -11.4927
  69   1.0000      -0.413410       -11.2495
  70   1.0000      -0.400503       -10.8982
  71   1.0000      -0.386094       -10.5062
  72   0.0000       0.008290         0.2256
  73   0.0000       0.019369         0.5271
  74   0.0000       0.021090         0.5739
  75   0.0000       0.026443         0.7195
  76   0.0000       0.031331         0.8526

E(0)                                       ...  -3028.424523367
E(0)                                       ...  -3028.424523367
E(CORR)(strong-pairs)                      ...     -2.872957215
E(CORR)(weak-pairs)                        ...     -0.036288749
E(CORR)(corrected)                         ...     -2.909245964
E(TOT)                                     ...  -3031.333769331
E(CCSD(T))                                 ...  -3031.453292689
FINAL SINGLE POINT ENERGY     -3031.453292689361

DIPOLE MOMENT
-------------
                                X             Y             Z
Electronic contribution:     40.29248       4.47392       2.04912
Nuclear contribution   :    -44.98174      -4.54399      -2.55060
                        -----------------------------------------
Total Dipole Moment    :     -4.68926      -0.07007      -0.50148
                        -----------------------------------------
Magnitude (a.u.)       :      4.71652
Magnitude (Debye)      :     11.98844

Rotational constants in cm-1:     0.019114     0.011573     0.010786
Rotational constants in MHz :   573.038283   346.954408   323.370967

                             ****ORCA TERMINATED NORMALLY****
TOTAL RUN TIME: 0 days 21 hours 8 minutes 24 seconds 456 msec
