                         Program Version 4.1.2  - RELEASE  -
|  1> ! aug-cc-pVTZ aug-cc-pVTZ/C DLPNO-CCSD(T1) TightSCF NormalPNO UNO MiniPrint AutoAux
|  2> %pal nproc 10 end
|  3> %maxcore 20000
|  4> %mdci
|  5>      density none
|  6> end
|  7>
|  8> * xyz 0 6
|  9>  O     -0.35054900     -0.17541400     -0.55040000
| 10>  C     -1.34058200     -1.12332500     -0.44245100
| 11>  C     -2.90435100     -0.09222100     -0.12394100
| 12>  C     -2.11751500      1.09850400     -0.24229200
| 13>  C     -1.96018300      1.77977200     -1.54962000
| 14> Fe      1.39927300      0.04536100      0.03805100
| 15> Cl      1.85381800      2.05493100     -0.78379800
| 16>  C     -1.58212100      1.79800100      0.94978900
| 17> Cl      2.55604100     -1.65767700     -0.73547900
| 18> Cl      1.32295700      0.07994900      2.25988700
| 19>  H     -3.51076800     -0.29020100     -1.00731900
| 20>  H     -2.40587900      2.41601000      1.34414200
| 21>  H     -1.28043600      1.11349500      1.74398500
| 22>  H     -0.74533500      2.45092200      0.69586800
| 23>  H     -2.61781500      2.66421500     -1.52147900
| 24>  H     -0.93373100      2.13396000     -1.68098200
| 25>  H     -2.26584800      1.15707000     -2.39149600
| 26>  C     -3.61139500     -0.42658700      1.17504200
| 27>  H     -4.46713500      0.24212500      1.32964900
| 28>  H     -3.99803600     -1.44874400      1.14211000
| 29>  H     -2.96020300     -0.34346400      2.04754400
| 30>  C     -1.16832700     -2.06236700      0.72760400
| 31>  H     -2.00474300     -2.75823600      0.82846700
| 32>  H     -0.25785400     -2.64378900      0.52799500
| 33>  H     -1.00622600     -1.52591900      1.66353800
| 34>  C     -1.59677800     -1.81699700     -1.76332200
| 35>  H     -0.68801300     -2.38038100     -2.01087300
| 36>  H     -2.44196800     -2.50933800     -1.70622500
| 37>  H     -1.76307700     -1.09492800     -2.56628400
| 38> *
| 39>
| 40>
| 41>                          ****END OF INPUT****

CARTESIAN COORDINATES (ANGSTROEM)
---------------------------------
  O     -0.350549   -0.175414   -0.550400
  C     -1.340582   -1.123325   -0.442451
  C     -2.904351   -0.092221   -0.123941
  C     -2.117515    1.098504   -0.242292
  C     -1.960183    1.779772   -1.549620
  Fe     1.399273    0.045361    0.038051
  Cl     1.853818    2.054931   -0.783798
  C     -1.582121    1.798001    0.949789
  Cl     2.556041   -1.657677   -0.735479
  Cl     1.322957    0.079949    2.259887
  H     -3.510768   -0.290201   -1.007319
  H     -2.405879    2.416010    1.344142
  H     -1.280436    1.113495    1.743985
  H     -0.745335    2.450922    0.695868
  H     -2.617815    2.664215   -1.521479
  H     -0.933731    2.133960   -1.680982
  H     -2.265848    1.157070   -2.391496
  C     -3.611395   -0.426587    1.175042
  H     -4.467135    0.242125    1.329649
  H     -3.998036   -1.448744    1.142110
  H     -2.960203   -0.343464    2.047544
  C     -1.168327   -2.062367    0.727604
  H     -2.004743   -2.758236    0.828467
  H     -0.257854   -2.643789    0.527995
  H     -1.006226   -1.525919    1.663538
  C     -1.596778   -1.816997   -1.763322
  H     -0.688013   -2.380381   -2.010873
  H     -2.441968   -2.509338   -1.706225
  H     -1.763077   -1.094928   -2.566284

ORBITAL ENERGIES
----------------
                 SPIN UP ORBITALS
  NO   OCC          E(Eh)            E(eV)
   0   1.0000    -261.548358     -7117.0927
   1   1.0000    -104.775487     -2851.0860
   2   1.0000    -104.774697     -2851.0644
   3   1.0000    -104.772715     -2851.0105
   4   1.0000     -32.216253      -876.6488
   5   1.0000     -27.692110      -753.5406
   6   1.0000     -27.692030      -753.5385
   7   1.0000     -27.691712      -753.5298
   8   1.0000     -20.549367      -559.1767
   9   1.0000     -11.389420      -309.9219
  10   1.0000     -11.371145      -309.4246
  11   1.0000     -11.283295      -307.0341
  12   1.0000     -11.276575      -306.8512
  13   1.0000     -11.272302      -306.7349
  14   1.0000     -11.262510      -306.4685
  15   1.0000     -11.248212      -306.0794
  16   1.0000     -11.243449      -305.9498
  17   1.0000     -10.501980      -285.7734
  18   1.0000     -10.501287      -285.7546
  19   1.0000     -10.499249      -285.6991
  20   1.0000      -7.968808      -216.8423
  21   1.0000      -7.968184      -216.8253
  22   1.0000      -7.968064      -216.8220
  23   1.0000      -7.967976      -216.8196
  24   1.0000      -7.967327      -216.8020
  25   1.0000      -7.967279      -216.8007
  26   1.0000      -7.966059      -216.7675
  27   1.0000      -7.965362      -216.7485
  28   1.0000      -7.965277      -216.7462
  29   1.0000      -4.571740      -124.4034
  30   1.0000      -3.184302       -86.6493
  31   1.0000      -3.183915       -86.6387
  32   1.0000      -3.183306       -86.6222
  33   1.0000      -1.377223       -37.4762
  34   1.0000      -1.178482       -32.0681
  35   1.0000      -1.085827       -29.5469
  36   1.0000      -1.046725       -28.4828
  37   1.0000      -1.041287       -28.3349
  38   1.0000      -1.041089       -28.3295
  39   1.0000      -1.039320       -28.2813
  40   1.0000      -1.009580       -27.4721
  41   1.0000      -0.976738       -26.5784
  42   1.0000      -0.933420       -25.3996
  43   1.0000      -0.910345       -24.7717
  44   1.0000      -0.901369       -24.5275
  45   1.0000      -0.901286       -24.5252
  46   1.0000      -0.892946       -24.2983
  47   1.0000      -0.892565       -24.2879
  48   1.0000      -0.785777       -21.3821
  49   1.0000      -0.763945       -20.7880
  50   1.0000      -0.699214       -19.0266
  51   1.0000      -0.692143       -18.8342
  52   1.0000      -0.673145       -18.3172
  53   1.0000      -0.646136       -17.5823
  54   1.0000      -0.638561       -17.3761
  55   1.0000      -0.627502       -17.0752
  56   1.0000      -0.600234       -16.3332
  57   1.0000      -0.594966       -16.1898
  58   1.0000      -0.591986       -16.1088
  59   1.0000      -0.583554       -15.8793
  60   1.0000      -0.575637       -15.6639
  61   1.0000      -0.561308       -15.2740
  62   1.0000      -0.555927       -15.1275
  63   1.0000      -0.543628       -14.7929
  64   1.0000      -0.535904       -14.5827
  65   1.0000      -0.531170       -14.4539
  66   1.0000      -0.507781       -13.8174
  67   1.0000      -0.476726       -12.9724
  68   1.0000      -0.462182       -12.5766
  69   1.0000      -0.449833       -12.2406
  70   1.0000      -0.429049       -11.6750
  71   1.0000      -0.425580       -11.5806
  72   1.0000      -0.422262       -11.4903
  73   1.0000      -0.415728       -11.3125
  74   1.0000      -0.413568       -11.2538
  75   1.0000      -0.412000       -11.2111
  76   1.0000      -0.392960       -10.6930
  77   0.0000       0.007764         0.2113
  78   0.0000       0.019228         0.5232
  79   0.0000       0.021701         0.5905
  80   0.0000       0.030333         0.8254
  81   0.0000       0.032126         0.8742

                 SPIN DOWN ORBITALS
  NO   OCC          E(Eh)            E(eV)
   0   1.0000    -261.544814     -7116.9962
   1   1.0000    -104.774182     -2851.0504
   2   1.0000    -104.773338     -2851.0275
   3   1.0000    -104.771286     -2850.9716
   4   1.0000     -32.054230      -872.2400
   5   1.0000     -27.532314      -749.1924
   6   1.0000     -27.532130      -749.1874
   7   1.0000     -27.531641      -749.1740
   8   1.0000     -20.543596      -559.0197
   9   1.0000     -11.389443      -309.9225
  10   1.0000     -11.371066      -309.4224
  11   1.0000     -11.282980      -307.0255
  12   1.0000     -11.276558      -306.8507
  13   1.0000     -11.272317      -306.7353
  14   1.0000     -11.262537      -306.4692
  15   1.0000     -11.248126      -306.0771
  16   1.0000     -11.243412      -305.9488
  17   1.0000     -10.500579      -285.7353
  18   1.0000     -10.499825      -285.7148
  19   1.0000     -10.497721      -285.6575
  20   1.0000      -7.966534      -216.7804
  21   1.0000      -7.965938      -216.7642
  22   1.0000      -7.965848      -216.7617
  23   1.0000      -7.965697      -216.7576
  24   1.0000      -7.965188      -216.7438
  25   1.0000      -7.965116      -216.7418
  26   1.0000      -7.963689      -216.7030
  27   1.0000      -7.962959      -216.6831
  28   1.0000      -7.962889      -216.6812
  29   1.0000      -4.129558      -112.3710
  30   1.0000      -2.651367       -72.1474
  31   1.0000      -2.651304       -72.1457
  32   1.0000      -2.650664       -72.1282
  33   1.0000      -1.362229       -37.0681
  34   1.0000      -1.177219       -32.0338
  35   1.0000      -1.083088       -29.4723
  36   1.0000      -1.040130       -28.3034
  37   1.0000      -1.032361       -28.0920
  38   1.0000      -1.021659       -27.8008
  39   1.0000      -1.019330       -27.7374
  40   1.0000      -1.009127       -27.4597
  41   1.0000      -0.976090       -26.5607
  42   1.0000      -0.930457       -25.3190
  43   1.0000      -0.793741       -21.5988
  44   1.0000      -0.767823       -20.8935
  45   1.0000      -0.699377       -19.0310
  46   1.0000      -0.691301       -18.8113
  47   1.0000      -0.674667       -18.3586
  48   1.0000      -0.647898       -17.6302
  49   1.0000      -0.636449       -17.3187
  50   1.0000      -0.627551       -17.0765
  51   1.0000      -0.599334       -16.3087
  52   1.0000      -0.595051       -16.1922
  53   1.0000      -0.591897       -16.1063
  54   1.0000      -0.582202       -15.8425
  55   1.0000      -0.575554       -15.6616
  56   1.0000      -0.561357       -15.2753
  57   1.0000      -0.554899       -15.0996
  58   1.0000      -0.542790       -14.7701
  59   1.0000      -0.534713       -14.5503
  60   1.0000      -0.525774       -14.3070
  61   1.0000      -0.502302       -13.6683
  62   1.0000      -0.473234       -12.8774
  63   1.0000      -0.465652       -12.6710
  64   1.0000      -0.460024       -12.5179
  65   1.0000      -0.436699       -11.8832
  66   1.0000      -0.433384       -11.7930
  67   1.0000      -0.432234       -11.7617
  68   1.0000      -0.423320       -11.5191
  69   1.0000      -0.411439       -11.1958
  70   1.0000      -0.399716       -10.8768
  71   1.0000      -0.389081       -10.5874
  72   0.0000       0.007757         0.2111
  73   0.0000       0.019118         0.5202
  74   0.0000       0.021683         0.5900
  75   0.0000       0.030343         0.8257
  76   0.0000       0.031612         0.8602

E(0)                                       ...  -3028.422237414
E(0)                                       ...  -3028.422237414
E(CORR)(strong-pairs)                      ...     -2.870618037
E(CORR)(weak-pairs)                        ...     -0.035941470
E(CORR)(corrected)                         ...     -2.906559507
E(TOT)                                     ...  -3031.328796922
E(CCSD(T))                                 ...  -3031.447568099
FINAL SINGLE POINT ENERGY     -3031.447568098641

DIPOLE MOMENT
-------------
                                X             Y             Z
Electronic contribution:     40.49188       3.79332       2.20344
Nuclear contribution   :    -45.19717      -3.54217      -2.67397
                        -----------------------------------------
Total Dipole Moment    :     -4.70528       0.25116      -0.47053
                        -----------------------------------------
Magnitude (a.u.)       :      4.73542
Magnitude (Debye)      :     12.03647

Rotational constants in cm-1:     0.019186     0.011695     0.010698
Rotational constants in MHz :   575.187188   350.597300   320.730776

                             ****ORCA TERMINATED NORMALLY****
TOTAL RUN TIME: 0 days 21 hours 59 minutes 18 seconds 701 msec
