                         Program Version 4.1.2  - RELEASE  -
|  1> ! aug-cc-pVTZ aug-cc-pVTZ/C DLPNO-CCSD(T1) TightSCF NormalPNO UNO MiniPrint AutoAux
|  2> %pal nproc 10 end
|  3> %maxcore 20000
|  4> %mdci
|  5>      density none
|  6> end
|  7>
|  8> * xyz 0 6
|  9>  O      0.17044900      0.39667300     -0.88660200
| 10>  C      0.96868200      1.34298800     -0.68439000
| 11>  C      3.04590900      0.16003800      0.57090300
| 12>  C      2.70440700     -0.92485100     -0.15511200
| 13>  C      3.23596100     -1.13958600     -1.54606100
| 14> Fe     -1.49317800     -0.17101500      0.00585900
| 15> Cl     -2.04864200     -2.00872000     -1.01476700
| 16>  C      1.78736700     -2.00845100      0.33162500
| 17> Cl     -2.76644000      1.56690700     -0.37299100
| 18> Cl     -1.06608900     -0.43271100      2.14278600
| 19>  H      3.75902600      0.85304000      0.12335700
| 20>  H      2.31500600     -2.97138900      0.34123800
| 21>  H      1.38632800     -1.82878300      1.32874900
| 22>  H      0.94298900     -2.12993300     -0.36003200
| 23>  H      3.79598500     -2.08273100     -1.59194000
| 24>  H      2.41448600     -1.23556100     -2.26898100
| 25>  H      3.90438600     -0.33631200     -1.86873300
| 26>  C      2.76970800      0.37752500      2.03595200
| 27>  H      3.55811300     -0.09225200      2.63969800
| 28>  H      2.77422200      1.44139900      2.29142800
| 29>  H      1.81454400     -0.04263400      2.35976500
| 30>  C      0.79105500      2.25750600      0.48683400
| 31>  H      1.67861300      2.86159800      0.67717500
| 32>  H     -0.03956600      2.92850600      0.22071600
| 33>  H      0.49239500      1.71473300      1.38394100
| 34>  C      1.81038400      1.80511400     -1.83535700
| 35>  H      1.22839700      2.59091100     -2.33946700
| 36>  H      2.75269600      2.24669100     -1.50907500
| 37>  H      1.98048700      1.00093200     -2.54919700
| 38> *
| 39>
| 40>
| 41>                          ****END OF INPUT****

CARTESIAN COORDINATES (ANGSTROEM)
---------------------------------
  O      0.170449    0.396673   -0.886602
  C      0.968682    1.342988   -0.684390
  C      3.045909    0.160038    0.570903
  C      2.704407   -0.924851   -0.155112
  C      3.235961   -1.139586   -1.546061
  Fe    -1.493178   -0.171015    0.005859
  Cl    -2.048642   -2.008720   -1.014767
  C      1.787367   -2.008451    0.331625
  Cl    -2.766440    1.566907   -0.372991
  Cl    -1.066089   -0.432711    2.142786
  H      3.759026    0.853040    0.123357
  H      2.315006   -2.971389    0.341238
  H      1.386328   -1.828783    1.328749
  H      0.942989   -2.129933   -0.360032
  H      3.795985   -2.082731   -1.591940
  H      2.414486   -1.235561   -2.268981
  H      3.904386   -0.336312   -1.868733
  C      2.769708    0.377525    2.035952
  H      3.558113   -0.092252    2.639698
  H      2.774222    1.441399    2.291428
  H      1.814544   -0.042634    2.359765
  C      0.791055    2.257506    0.486834
  H      1.678613    2.861598    0.677175
  H     -0.039566    2.928506    0.220716
  H      0.492395    1.714733    1.383941
  C      1.810384    1.805114   -1.835357
  H      1.228397    2.590911   -2.339467
  H      2.752696    2.246691   -1.509075
  H      1.980487    1.000932   -2.549197

ORBITAL ENERGIES
----------------
                 SPIN UP ORBITALS
  NO   OCC          E(Eh)            E(eV)
   0   1.0000    -261.576172     -7117.8495
   1   1.0000    -104.794428     -2851.6014
   2   1.0000    -104.791075     -2851.5101
   3   1.0000    -104.788874     -2851.4502
   4   1.0000     -32.243879      -877.4006
   5   1.0000     -27.720376      -754.3098
   6   1.0000     -27.719214      -754.2782
   7   1.0000     -27.719007      -754.2725
   8   1.0000     -20.622649      -561.1708
   9   1.0000     -11.421850      -310.8043
  10   1.0000     -11.278151      -306.8941
  11   1.0000     -11.272930      -306.7520
  12   1.0000     -11.265742      -306.5564
  13   1.0000     -11.243414      -305.9488
  14   1.0000     -11.242886      -305.9345
  15   1.0000     -11.235400      -305.7308
  16   1.0000     -11.228960      -305.5555
  17   1.0000     -10.521157      -286.2952
  18   1.0000     -10.517766      -286.2030
  19   1.0000     -10.515517      -286.1418
  20   1.0000      -7.987986      -217.3641
  21   1.0000      -7.987237      -217.3438
  22   1.0000      -7.987186      -217.3424
  23   1.0000      -7.984639      -217.2731
  24   1.0000      -7.983865      -217.2520
  25   1.0000      -7.983813      -217.2506
  26   1.0000      -7.982306      -217.2096
  27   1.0000      -7.981650      -217.1917
  28   1.0000      -7.981599      -217.1904
  29   1.0000      -4.598733      -125.1379
  30   1.0000      -3.211898       -87.4002
  31   1.0000      -3.210127       -87.3520
  32   1.0000      -3.209957       -87.3474
  33   1.0000      -1.465763       -39.8854
  34   1.0000      -1.124940       -30.6112
  35   1.0000      -1.101151       -29.9638
  36   1.0000      -1.067549       -29.0495
  37   1.0000      -1.061667       -28.8894
  38   1.0000      -1.058551       -28.8046
  39   1.0000      -1.021644       -27.8003
  40   1.0000      -1.009240       -27.4628
  41   1.0000      -0.957642       -26.0588
  42   1.0000      -0.943230       -25.6666
  43   1.0000      -0.927645       -25.2425
  44   1.0000      -0.927494       -25.2384
  45   1.0000      -0.916795       -24.9473
  46   1.0000      -0.916131       -24.9292
  47   1.0000      -0.895014       -24.3546
  48   1.0000      -0.814969       -22.1764
  49   1.0000      -0.728521       -19.8241
  50   1.0000      -0.713264       -19.4089
  51   1.0000      -0.703121       -19.1329
  52   1.0000      -0.683876       -18.6092
  53   1.0000      -0.653955       -17.7950
  54   1.0000      -0.621169       -16.9029
  55   1.0000      -0.620056       -16.8726
  56   1.0000      -0.604993       -16.4627
  57   1.0000      -0.599763       -16.3204
  58   1.0000      -0.586030       -15.9467
  59   1.0000      -0.579018       -15.7559
  60   1.0000      -0.560977       -15.2650
  61   1.0000      -0.551113       -14.9966
  62   1.0000      -0.546050       -14.8588
  63   1.0000      -0.539741       -14.6871
  64   1.0000      -0.537440       -14.6245
  65   1.0000      -0.524980       -14.2854
  66   1.0000      -0.504390       -13.7252
  67   1.0000      -0.491917       -13.3857
  68   1.0000      -0.477388       -12.9904
  69   1.0000      -0.476866       -12.9762
  70   1.0000      -0.447313       -12.1720
  71   1.0000      -0.441021       -12.0008
  72   1.0000      -0.439094       -11.9484
  73   1.0000      -0.430581       -11.7167
  74   1.0000      -0.429588       -11.6897
  75   1.0000      -0.428205       -11.6521
  76   1.0000      -0.358913        -9.7665
  77   0.0000       0.012600         0.3429
  78   0.0000       0.023649         0.6435
  79   0.0000       0.024334         0.6622
  80   0.0000       0.030674         0.8347
  81   0.0000       0.039299         1.0694

                 SPIN DOWN ORBITALS
  NO   OCC          E(Eh)            E(eV)
   0   1.0000    -261.572587     -7117.7520
   1   1.0000    -104.792938     -2851.5608
   2   1.0000    -104.789515     -2851.4677
   3   1.0000    -104.787304     -2851.4075
   4   1.0000     -32.081890      -872.9926
   5   1.0000     -27.559821      -749.9408
   6   1.0000     -27.559725      -749.9382
   7   1.0000     -27.559629      -749.9356
   8   1.0000     -20.619168      -561.0761
   9   1.0000     -11.421779      -310.8024
  10   1.0000     -11.278043      -306.8912
  11   1.0000     -11.272921      -306.7518
  12   1.0000     -11.265764      -306.5570
  13   1.0000     -11.243371      -305.9477
  14   1.0000     -11.242883      -305.9344
  15   1.0000     -11.235402      -305.7308
  16   1.0000     -11.228970      -305.5558
  17   1.0000     -10.519565      -286.2519
  18   1.0000     -10.516102      -286.1577
  19   1.0000     -10.513850      -286.0964
  20   1.0000      -7.985487      -217.2961
  21   1.0000      -7.984741      -217.2758
  22   1.0000      -7.984704      -217.2748
  23   1.0000      -7.981988      -217.2009
  24   1.0000      -7.981288      -217.1819
  25   1.0000      -7.981198      -217.1794
  26   1.0000      -7.979841      -217.1425
  27   1.0000      -7.978941      -217.1180
  28   1.0000      -7.978857      -217.1157
  29   1.0000      -4.156667      -113.1087
  30   1.0000      -2.678215       -72.8779
  31   1.0000      -2.678185       -72.8771
  32   1.0000      -2.677744       -72.8651
  33   1.0000      -1.457271       -39.6543
  34   1.0000      -1.124639       -30.6030
  35   1.0000      -1.098824       -29.9005
  36   1.0000      -1.051816       -28.6214
  37   1.0000      -1.039237       -28.2791
  38   1.0000      -1.035767       -28.1846
  39   1.0000      -1.020816       -27.7778
  40   1.0000      -1.008869       -27.4527
  41   1.0000      -0.957552       -26.0563
  42   1.0000      -0.895115       -24.3573
  43   1.0000      -0.828013       -22.5314
  44   1.0000      -0.728594       -19.8260
  45   1.0000      -0.715112       -19.4592
  46   1.0000      -0.702303       -19.1106
  47   1.0000      -0.683278       -18.5929
  48   1.0000      -0.653899       -17.7935
  49   1.0000      -0.620753       -16.8916
  50   1.0000      -0.619869       -16.8675
  51   1.0000      -0.604785       -16.4570
  52   1.0000      -0.599658       -16.3175
  53   1.0000      -0.585716       -15.9381
  54   1.0000      -0.577482       -15.7141
  55   1.0000      -0.560252       -15.2452
  56   1.0000      -0.550774       -14.9873
  57   1.0000      -0.544678       -14.8214
  58   1.0000      -0.539499       -14.6805
  59   1.0000      -0.527024       -14.3410
  60   1.0000      -0.523678       -14.2500
  61   1.0000      -0.506368       -13.7790
  62   1.0000      -0.491824       -13.3832
  63   1.0000      -0.485747       -13.2178
  64   1.0000      -0.483023       -13.1437
  65   1.0000      -0.454638       -12.3713
  66   1.0000      -0.451209       -12.2780
  67   1.0000      -0.448252       -12.1976
  68   1.0000      -0.431977       -11.7547
  69   1.0000      -0.429477       -11.6867
  70   1.0000      -0.413710       -11.2576
  71   1.0000      -0.358430        -9.7534
  72   0.0000       0.012583         0.3424
  73   0.0000       0.023625         0.6429
  74   0.0000       0.024294         0.6611
  75   0.0000       0.030605         0.8328
  76   0.0000       0.039202         1.0667

E(0)                                       ...  -3028.468101379
E(0)                                       ...  -3028.468101379
E(CORR)(strong-pairs)                      ...     -2.866503265
E(CORR)(weak-pairs)                        ...     -0.035347820
E(CORR)(corrected)                         ...     -2.901851085
E(TOT)                                     ...  -3031.369952465
E(CCSD(T))                                 ...  -3031.487786872
FINAL SINGLE POINT ENERGY     -3031.487786871794

DIPOLE MOMENT
-------------
                                X             Y             Z
Electronic contribution:    -43.82817      -5.08402       1.52187
Nuclear contribution   :     47.10469       6.58083      -2.15632
                        -----------------------------------------
Total Dipole Moment    :      3.27652       1.49681      -0.63445
                        -----------------------------------------
Magnitude (a.u.)       :      3.65767
Magnitude (Debye)      :      9.29706

Rotational constants in cm-1:     0.018831     0.010622     0.009993
Rotational constants in MHz :   564.532250   318.439867   299.595936

                             ****ORCA TERMINATED NORMALLY****
TOTAL RUN TIME: 0 days 17 hours 8 minutes 43 seconds 547 msec
