                         Program Version 4.1.2  - RELEASE  -
|  1> ! aug-cc-pVTZ aug-cc-pVTZ/C DLPNO-CCSD(T1) TightSCF NormalPNO UNO MiniPrint AutoAux
|  2> %pal nproc 10 end
|  3> %maxcore 20000
|  4> %mdci
|  5>      density none
|  6> end
|  7>
|  8> * xyz 0 6
|  9>  O      0.19441600      0.34420500     -0.79564800
| 10>  C      1.05003900      1.25723000     -0.59912500
| 11>  C      2.85727300      0.30580700      0.66131500
| 12>  C      2.85065200     -0.84334900     -0.06480200
| 13>  C      3.64322300     -0.98665100     -1.33095600
| 14> Fe     -1.51520400     -0.18017300     -0.03362800
| 15> Cl     -1.99710500     -2.03642700     -1.07061900
| 16>  C      1.98316400     -2.01287000      0.28364800
| 17> Cl     -2.76924600      1.55066900     -0.50582900
| 18> Cl     -1.23911200     -0.45388000      2.12931400
| 19>  H      3.54384600      1.08658500      0.33592300
| 20>  H      2.52428100     -2.95739900      0.15533700
| 21>  H      1.57901000     -1.97064600      1.29544100
| 22>  H      1.13208700     -2.04248800     -0.41423000
| 23>  H      4.36420900     -1.80721700     -1.21890500
| 24>  H      2.99643900     -1.26110300     -2.17531400
| 25>  H      4.20028400     -0.08133200     -1.58452000
| 26>  C      2.39923400      0.40181400      2.09938100
| 27>  H      3.08772100     -0.16207400      2.74161300
| 28>  H      2.41123400      1.43542800      2.45211500
| 29>  H      1.39685500      0.00137600      2.26305600
| 30>  C      0.78025200      2.29646900      0.45362900
| 31>  H      1.65896400      2.89900300      0.68678200
| 32>  H      0.01252000      2.95251300      0.01775300
| 33>  H      0.35732900      1.86295900      1.35951200
| 34>  C      1.86524100      1.67390100     -1.79473600
| 35>  H      1.23100900      2.37235300     -2.35887900
| 36>  H      2.78265900      2.19694100     -1.52201500
| 37>  H      2.07993500      0.82570300     -2.44301500
| 38> *
| 39>
| 40>
| 41>                          ****END OF INPUT****

CARTESIAN COORDINATES (ANGSTROEM)
---------------------------------
  O      0.194416    0.344205   -0.795648
  C      1.050039    1.257230   -0.599125
  C      2.857273    0.305807    0.661315
  C      2.850652   -0.843349   -0.064802
  C      3.643223   -0.986651   -1.330956
  Fe    -1.515204   -0.180173   -0.033628
  Cl    -1.997105   -2.036427   -1.070619
  C      1.983164   -2.012870    0.283648
  Cl    -2.769246    1.550669   -0.505829
  Cl    -1.239112   -0.453880    2.129314
  H      3.543846    1.086585    0.335923
  H      2.524281   -2.957399    0.155337
  H      1.579010   -1.970646    1.295441
  H      1.132087   -2.042488   -0.414230
  H      4.364209   -1.807217   -1.218905
  H      2.996439   -1.261103   -2.175314
  H      4.200284   -0.081332   -1.584520
  C      2.399234    0.401814    2.099381
  H      3.087721   -0.162074    2.741613
  H      2.411234    1.435428    2.452115
  H      1.396855    0.001376    2.263056
  C      0.780252    2.296469    0.453629
  H      1.658964    2.899003    0.686782
  H      0.012520    2.952513    0.017753
  H      0.357329    1.862959    1.359512
  C      1.865241    1.673901   -1.794736
  H      1.231009    2.372353   -2.358879
  H      2.782659    2.196941   -1.522015
  H      2.079935    0.825703   -2.443015

ORBITAL ENERGIES
----------------
                 SPIN UP ORBITALS
  NO   OCC          E(Eh)            E(eV)
   0   1.0000    -261.569538     -7117.6690
   1   1.0000    -104.790079     -2851.4830
   2   1.0000    -104.786475     -2851.3850
   3   1.0000    -104.783856     -2851.3137
   4   1.0000     -32.237315      -877.2219
   5   1.0000     -27.713713      -754.1285
   6   1.0000     -27.712714      -754.1013
   7   1.0000     -27.712510      -754.0957
   8   1.0000     -20.609085      -560.8017
   9   1.0000     -11.418492      -310.7130
  10   1.0000     -11.286385      -307.1182
  11   1.0000     -11.274201      -306.7866
  12   1.0000     -11.270344      -306.6817
  13   1.0000     -11.254195      -306.2422
  14   1.0000     -11.252393      -306.1932
  15   1.0000     -11.238888      -305.8257
  16   1.0000     -11.237436      -305.7862
  17   1.0000     -10.516794      -286.1765
  18   1.0000     -10.513149      -286.0773
  19   1.0000     -10.510481      -286.0047
  20   1.0000      -7.983631      -217.2457
  21   1.0000      -7.982858      -217.2246
  22   1.0000      -7.982830      -217.2238
  23   1.0000      -7.980005      -217.1470
  24   1.0000      -7.979252      -217.1265
  25   1.0000      -7.979198      -217.1250
  26   1.0000      -7.977290      -217.0731
  27   1.0000      -7.976613      -217.0547
  28   1.0000      -7.976542      -217.0527
  29   1.0000      -4.592365      -124.9646
  30   1.0000      -3.205522       -87.2267
  31   1.0000      -3.203846       -87.1811
  32   1.0000      -3.203652       -87.1758
  33   1.0000      -1.451170       -39.4883
  34   1.0000      -1.138352       -30.9761
  35   1.0000      -1.095525       -29.8107
  36   1.0000      -1.062474       -28.9114
  37   1.0000      -1.056594       -28.7514
  38   1.0000      -1.053052       -28.6550
  39   1.0000      -1.025712       -27.9110
  40   1.0000      -1.006043       -27.3758
  41   1.0000      -0.969032       -26.3687
  42   1.0000      -0.938331       -25.5333
  43   1.0000      -0.921475       -25.0746
  44   1.0000      -0.921287       -25.0695
  45   1.0000      -0.911041       -24.7907
  46   1.0000      -0.910246       -24.7691
  47   1.0000      -0.902652       -24.5624
  48   1.0000      -0.808582       -22.0026
  49   1.0000      -0.740440       -20.1484
  50   1.0000      -0.704409       -19.1679
  51   1.0000      -0.694762       -18.9054
  52   1.0000      -0.681930       -18.5563
  53   1.0000      -0.662700       -18.0330
  54   1.0000      -0.629467       -17.1287
  55   1.0000      -0.621574       -16.9139
  56   1.0000      -0.606315       -16.4987
  57   1.0000      -0.597425       -16.2568
  58   1.0000      -0.584006       -15.8916
  59   1.0000      -0.575810       -15.6686
  60   1.0000      -0.562054       -15.2943
  61   1.0000      -0.560951       -15.2643
  62   1.0000      -0.548643       -14.9293
  63   1.0000      -0.545076       -14.8323
  64   1.0000      -0.534006       -14.5310
  65   1.0000      -0.529761       -14.4155
  66   1.0000      -0.503366       -13.6973
  67   1.0000      -0.497062       -13.5258
  68   1.0000      -0.473730       -12.8908
  69   1.0000      -0.470871       -12.8131
  70   1.0000      -0.442510       -12.0413
  71   1.0000      -0.436852       -11.8874
  72   1.0000      -0.434422       -11.8212
  73   1.0000      -0.426410       -11.6032
  74   1.0000      -0.424942       -11.5633
  75   1.0000      -0.423422       -11.5219
  76   1.0000      -0.365821        -9.9545
  77   0.0000       0.011895         0.3237
  78   0.0000       0.022307         0.6070
  79   0.0000       0.023520         0.6400
  80   0.0000       0.029753         0.8096
  81   0.0000       0.038636         1.0513

                 SPIN DOWN ORBITALS
  NO   OCC          E(Eh)            E(eV)
   0   1.0000    -261.565960     -7117.5716
   1   1.0000    -104.788602     -2851.4428
   2   1.0000    -104.784940     -2851.3432
   3   1.0000    -104.782317     -2851.2718
   4   1.0000     -32.075288      -872.8130
   5   1.0000     -27.553205      -749.7608
   6   1.0000     -27.553145      -749.7592
   7   1.0000     -27.552996      -749.7551
   8   1.0000     -20.605319      -560.6992
   9   1.0000     -11.418374      -310.7098
  10   1.0000     -11.286266      -307.1149
  11   1.0000     -11.274093      -306.7837
  12   1.0000     -11.270329      -306.6813
  13   1.0000     -11.254212      -306.2427
  14   1.0000     -11.252456      -306.1949
  15   1.0000     -11.238912      -305.8263
  16   1.0000     -11.237427      -305.7859
  17   1.0000     -10.515214      -286.1335
  18   1.0000     -10.511509      -286.0327
  19   1.0000     -10.508843      -285.9602
  20   1.0000      -7.981117      -217.1772
  21   1.0000      -7.980421      -217.1583
  22   1.0000      -7.980374      -217.1570
  23   1.0000      -7.977417      -217.0766
  24   1.0000      -7.976704      -217.0571
  25   1.0000      -7.976617      -217.0548
  26   1.0000      -7.974817      -217.0058
  27   1.0000      -7.973984      -216.9831
  28   1.0000      -7.973892      -216.9806
  29   1.0000      -4.150186      -112.9323
  30   1.0000      -2.671801       -72.7034
  31   1.0000      -2.671725       -72.7013
  32   1.0000      -2.671266       -72.6888
  33   1.0000      -1.441796       -39.2333
  34   1.0000      -1.137946       -30.9651
  35   1.0000      -1.092848       -29.7379
  36   1.0000      -1.046914       -28.4880
  37   1.0000      -1.034624       -28.1535
  38   1.0000      -1.030751       -28.0481
  39   1.0000      -1.025098       -27.8943
  40   1.0000      -1.005443       -27.3595
  41   1.0000      -0.968973       -26.3671
  42   1.0000      -0.902881       -24.5686
  43   1.0000      -0.823284       -22.4027
  44   1.0000      -0.740532       -20.1509
  45   1.0000      -0.706907       -19.2359
  46   1.0000      -0.693688       -18.8762
  47   1.0000      -0.681342       -18.5402
  48   1.0000      -0.662619       -18.0308
  49   1.0000      -0.629446       -17.1281
  50   1.0000      -0.621111       -16.9013
  51   1.0000      -0.605923       -16.4880
  52   1.0000      -0.597265       -16.2524
  53   1.0000      -0.583666       -15.8824
  54   1.0000      -0.574076       -15.6214
  55   1.0000      -0.561896       -15.2900
  56   1.0000      -0.560833       -15.2610
  57   1.0000      -0.548514       -14.9258
  58   1.0000      -0.543502       -14.7894
  59   1.0000      -0.531710       -14.4686
  60   1.0000      -0.519986       -14.1495
  61   1.0000      -0.503351       -13.6969
  62   1.0000      -0.498386       -13.5618
  63   1.0000      -0.480975       -13.0880
  64   1.0000      -0.477783       -13.0011
  65   1.0000      -0.450763       -12.2659
  66   1.0000      -0.446529       -12.1507
  67   1.0000      -0.444028       -12.0826
  68   1.0000      -0.428438       -11.6584
  69   1.0000      -0.424111       -11.5407
  70   1.0000      -0.409461       -11.1420
  71   1.0000      -0.364864        -9.9285
  72   0.0000       0.011879         0.3232
  73   0.0000       0.022281         0.6063
  74   0.0000       0.023479         0.6389
  75   0.0000       0.029568         0.8046
  76   0.0000       0.038274         1.0415

E(0)                                       ...  -3028.453192384
E(0)                                       ...  -3028.453192384
E(CORR)(strong-pairs)                      ...     -2.869105766
E(CORR)(weak-pairs)                        ...     -0.036012462
E(CORR)(corrected)                         ...     -2.905118228
E(TOT)                                     ...  -3031.358310611
E(CCSD(T))                                 ...  -3031.477000048
FINAL SINGLE POINT ENERGY     -3031.477000047822

DIPOLE MOMENT
-------------
                                X             Y             Z
Electronic contribution:    -44.17024      -5.83269       0.53376
Nuclear contribution   :     47.93597       7.12017      -1.04465
                        -----------------------------------------
Total Dipole Moment    :      3.76573       1.28748      -0.51089
                        -----------------------------------------
Magnitude (a.u.)       :      4.01240
Magnitude (Debye)      :     10.19871

Rotational constants in cm-1:     0.019145     0.010423     0.009840
Rotational constants in MHz :   573.951780   312.468001   294.996939

                             ****ORCA TERMINATED NORMALLY****
TOTAL RUN TIME: 0 days 16 hours 57 minutes 40 seconds 616 msec
