                         Program Version 4.1.2  - RELEASE  -
|  1> ! aug-cc-pVTZ aug-cc-pVTZ/C DLPNO-CCSD(T1) TightSCF NormalPNO UNO MiniPrint AutoAux
|  2> %pal nproc 10 end
|  3> %maxcore 20000
|  4> %mdci
|  5>      density none
|  6> end
|  7>
|  8> * xyz 0 6
|  9>  O     -0.34213900     -0.09048300     -0.54871900
| 10>  C     -1.21781600     -1.03601100     -0.49914100
| 11>  C     -3.14764400      0.02970500     -0.04912800
| 12>  C     -2.25311800      1.04978700     -0.21644900
| 13>  C     -2.08043200      1.72086000     -1.54369200
| 14> Fe      1.45791500      0.06025700      0.05717900
| 15> Cl      2.07535300      1.98732100     -0.78469200
| 16>  C     -1.58111500      1.72905900      0.93833100
| 17> Cl      2.39422700     -1.74841700     -0.77427900
| 18> Cl      1.41978100      0.03124100      2.26075600
| 19>  H     -3.69989100     -0.28758600     -0.93102300
| 20>  H     -2.28051000      2.47654700      1.33944500
| 21>  H     -1.32262300      1.05095200      1.75278000
| 22>  H     -0.67705400      2.25344400      0.62242300
| 23>  H     -2.51926700      2.72532400     -1.46394900
| 24>  H     -1.02278400      1.84809700     -1.78885800
| 25>  H     -2.59468600      1.19897500     -2.35415600
| 26>  C     -3.72381400     -0.42559300      1.26468600
| 27>  H     -4.65021600      0.12869000      1.46723700
| 28>  H     -3.98895800     -1.48729800      1.24581200
| 29>  H     -3.05290800     -0.25552100      2.10947300
| 30>  C     -1.18885100     -1.96225200      0.68262100
| 31>  H     -2.06536000     -2.60817400      0.73678200
| 32>  H     -0.30247600     -2.59613200      0.52967600
| 33>  H     -1.03799900     -1.42513600      1.61935600
| 34>  C     -1.63738000     -1.62326100     -1.81989900
| 35>  H     -0.78754200     -2.24194100     -2.14322700
| 36>  H     -2.52167300     -2.25794800     -1.73710100
| 37>  H     -1.78286100     -0.85135900     -2.57587600
| 38> *
| 39>
| 40>
| 41>                          ****END OF INPUT****

CARTESIAN COORDINATES (ANGSTROEM)
---------------------------------
  O     -0.342139   -0.090483   -0.548719
  C     -1.217816   -1.036011   -0.499141
  C     -3.147644    0.029705   -0.049128
  C     -2.253118    1.049787   -0.216449
  C     -2.080432    1.720860   -1.543692
  Fe     1.457915    0.060257    0.057179
  Cl     2.075353    1.987321   -0.784692
  C     -1.581115    1.729059    0.938331
  Cl     2.394227   -1.748417   -0.774279
  Cl     1.419781    0.031241    2.260756
  H     -3.699891   -0.287586   -0.931023
  H     -2.280510    2.476547    1.339445
  H     -1.322623    1.050952    1.752780
  H     -0.677054    2.253444    0.622423
  H     -2.519267    2.725324   -1.463949
  H     -1.022784    1.848097   -1.788858
  H     -2.594686    1.198975   -2.354156
  C     -3.723814   -0.425593    1.264686
  H     -4.650216    0.128690    1.467237
  H     -3.988958   -1.487298    1.245812
  H     -3.052908   -0.255521    2.109473
  C     -1.188851   -1.962252    0.682621
  H     -2.065360   -2.608174    0.736782
  H     -0.302476   -2.596132    0.529676
  H     -1.037999   -1.425136    1.619356
  C     -1.637380   -1.623261   -1.819899
  H     -0.787542   -2.241941   -2.143227
  H     -2.521673   -2.257948   -1.737101
  H     -1.782861   -0.851359   -2.575876

ORBITAL ENERGIES
----------------
                 SPIN UP ORBITALS
  NO   OCC          E(Eh)            E(eV)
   0   1.0000    -261.563497     -7117.5046
   1   1.0000    -104.784284     -2851.3253
   2   1.0000    -104.783885     -2851.3145
   3   1.0000    -104.782960     -2851.2893
   4   1.0000     -32.231322      -877.0589
   5   1.0000     -27.707555      -753.9609
   6   1.0000     -27.706791      -753.9401
   7   1.0000     -27.706673      -753.9369
   8   1.0000     -20.579531      -559.9975
   9   1.0000     -11.415672      -310.6362
  10   1.0000     -11.313181      -307.8473
  11   1.0000     -11.269298      -306.6532
  12   1.0000     -11.265099      -306.5389
  13   1.0000     -11.260277      -306.4077
  14   1.0000     -11.253409      -306.2208
  15   1.0000     -11.251065      -306.1570
  16   1.0000     -11.247407      -306.0575
  17   1.0000     -10.510922      -286.0167
  18   1.0000     -10.510471      -286.0044
  19   1.0000     -10.509516      -285.9785
  20   1.0000      -7.977789      -217.0867
  21   1.0000      -7.977334      -217.0743
  22   1.0000      -7.976989      -217.0649
  23   1.0000      -7.976944      -217.0637
  24   1.0000      -7.976567      -217.0534
  25   1.0000      -7.976481      -217.0511
  26   1.0000      -7.976310      -217.0464
  27   1.0000      -7.975634      -217.0280
  28   1.0000      -7.975559      -217.0260
  29   1.0000      -4.586601      -124.8078
  30   1.0000      -3.199601       -87.0656
  31   1.0000      -3.198326       -87.0309
  32   1.0000      -3.197964       -87.0210
  33   1.0000      -1.435758       -39.0690
  34   1.0000      -1.151337       -31.3295
  35   1.0000      -1.094913       -29.7941
  36   1.0000      -1.057278       -28.7700
  37   1.0000      -1.051838       -28.6220
  38   1.0000      -1.050307       -28.5803
  39   1.0000      -1.031851       -28.0781
  40   1.0000      -1.005126       -27.3509
  41   1.0000      -0.976305       -26.5666
  42   1.0000      -0.933836       -25.4110
  43   1.0000      -0.916134       -24.9293
  44   1.0000      -0.916017       -24.9261
  45   1.0000      -0.914134       -24.8748
  46   1.0000      -0.906085       -24.6558
  47   1.0000      -0.905654       -24.6441
  48   1.0000      -0.798912       -21.7395
  49   1.0000      -0.748051       -20.3555
  50   1.0000      -0.700114       -19.0511
  51   1.0000      -0.695587       -18.9279
  52   1.0000      -0.687296       -18.7023
  53   1.0000      -0.666875       -18.1466
  54   1.0000      -0.635964       -17.3055
  55   1.0000      -0.619767       -16.8647
  56   1.0000      -0.602469       -16.3940
  57   1.0000      -0.598758       -16.2930
  58   1.0000      -0.582316       -15.8456
  59   1.0000      -0.576679       -15.6922
  60   1.0000      -0.570043       -15.5117
  61   1.0000      -0.567201       -15.4343
  62   1.0000      -0.548905       -14.9365
  63   1.0000      -0.547663       -14.9027
  64   1.0000      -0.542272       -14.7560
  65   1.0000      -0.520076       -14.1520
  66   1.0000      -0.513569       -13.9749
  67   1.0000      -0.490775       -13.3547
  68   1.0000      -0.471454       -12.8289
  69   1.0000      -0.463053       -12.6003
  70   1.0000      -0.439494       -11.9592
  71   1.0000      -0.433523       -11.7968
  72   1.0000      -0.431836       -11.7509
  73   1.0000      -0.424061       -11.5393
  74   1.0000      -0.422011       -11.4835
  75   1.0000      -0.421767       -11.4769
  76   1.0000      -0.366914        -9.9842
  77   0.0000       0.011812         0.3214
  78   0.0000       0.022461         0.6112
  79   0.0000       0.023337         0.6350
  80   0.0000       0.030346         0.8258
  81   0.0000       0.039222         1.0673

                 SPIN DOWN ORBITALS
  NO   OCC          E(Eh)            E(eV)
   0   1.0000    -261.559941     -7117.4078
   1   1.0000    -104.782836     -2851.2859
   2   1.0000    -104.782417     -2851.2745
   3   1.0000    -104.781513     -2851.2499
   4   1.0000     -32.069309      -872.6503
   5   1.0000     -27.547250      -749.5988
   6   1.0000     -27.547198      -749.5974
   7   1.0000     -27.546913      -749.5896
   8   1.0000     -20.575190      -559.8794
   9   1.0000     -11.415525      -310.6322
  10   1.0000     -11.313293      -307.8503
  11   1.0000     -11.269206      -306.6507
  12   1.0000     -11.265077      -306.5383
  13   1.0000     -11.259882      -306.3970
  14   1.0000     -11.253453      -306.2220
  15   1.0000     -11.251040      -306.1564
  16   1.0000     -11.247413      -306.0577
  17   1.0000     -10.509372      -285.9745
  18   1.0000     -10.508900      -285.9617
  19   1.0000     -10.507974      -285.9365
  20   1.0000      -7.975273      -217.0182
  21   1.0000      -7.974798      -217.0053
  22   1.0000      -7.974632      -217.0008
  23   1.0000      -7.974561      -216.9988
  24   1.0000      -7.974160      -216.9879
  25   1.0000      -7.974063      -216.9853
  26   1.0000      -7.973961      -216.9825
  27   1.0000      -7.973180      -216.9613
  28   1.0000      -7.973090      -216.9588
  29   1.0000      -4.144386      -112.7745
  30   1.0000      -2.666039       -72.5466
  31   1.0000      -2.665939       -72.5439
  32   1.0000      -2.665594       -72.5345
  33   1.0000      -1.424720       -38.7686
  34   1.0000      -1.150527       -31.3074
  35   1.0000      -1.092313       -29.7234
  36   1.0000      -1.042282       -28.3619
  37   1.0000      -1.031392       -28.0656
  38   1.0000      -1.030283       -28.0354
  39   1.0000      -1.029281       -28.0082
  40   1.0000      -1.004329       -27.3292
  41   1.0000      -0.976219       -26.5643
  42   1.0000      -0.915923       -24.9235
  43   1.0000      -0.812886       -22.1198
  44   1.0000      -0.748105       -20.3570
  45   1.0000      -0.701751       -19.0956
  46   1.0000      -0.697156       -18.9706
  47   1.0000      -0.685406       -18.6509
  48   1.0000      -0.666784       -18.1441
  49   1.0000      -0.635898       -17.3037
  50   1.0000      -0.619566       -16.8592
  51   1.0000      -0.601894       -16.3784
  52   1.0000      -0.598701       -16.2915
  53   1.0000      -0.581966       -15.8361
  54   1.0000      -0.576266       -15.6810
  55   1.0000      -0.569963       -15.5095
  56   1.0000      -0.566917       -15.4266
  57   1.0000      -0.548439       -14.9238
  58   1.0000      -0.545121       -14.8335
  59   1.0000      -0.540673       -14.7125
  60   1.0000      -0.513905       -13.9841
  61   1.0000      -0.512657       -13.9501
  62   1.0000      -0.488189       -13.2843
  63   1.0000      -0.475770       -12.9464
  64   1.0000      -0.473789       -12.8924
  65   1.0000      -0.446044       -12.1375
  66   1.0000      -0.443365       -12.0646
  67   1.0000      -0.441044       -12.0014
  68   1.0000      -0.427323       -11.6280
  69   1.0000      -0.421433       -11.4678
  70   1.0000      -0.407535       -11.0896
  71   1.0000      -0.365536        -9.9467
  72   0.0000       0.011808         0.3213
  73   0.0000       0.022423         0.6101
  74   0.0000       0.023310         0.6343
  75   0.0000       0.030367         0.8263
  76   0.0000       0.039196         1.0666

E(0)                                       ...  -3028.425091234
E(0)                                       ...  -3028.425091234
E(CORR)(strong-pairs)                      ...     -2.873103945
E(CORR)(weak-pairs)                        ...     -0.036125558
E(CORR)(corrected)                         ...     -2.909229503
E(TOT)                                     ...  -3031.334320737
E(CCSD(T))                                 ...  -3031.454047408
FINAL SINGLE POINT ENERGY     -3031.454047407700

DIPOLE MOMENT
-------------
                                X             Y             Z
Electronic contribution:     42.57840       2.23275       2.18046
Nuclear contribution   :    -46.55375      -2.84003      -2.70043
                        -----------------------------------------
Total Dipole Moment    :     -3.97535      -0.60727      -0.51996
                        -----------------------------------------
Magnitude (a.u.)       :      4.05494
Magnitude (Debye)      :     10.30684

Rotational constants in cm-1:     0.019601     0.011136     0.010443
Rotational constants in MHz :   587.616011   333.834041   313.069586

                             ****ORCA TERMINATED NORMALLY****
TOTAL RUN TIME: 0 days 20 hours 11 minutes 25 seconds 752 msec
