                         Program Version 4.1.2  - RELEASE  -
|  1> ! aug-cc-pVTZ aug-cc-pVTZ/C DLPNO-CCSD(T1) TightSCF NormalPNO UNO MiniPrint AutoAux
|  2> %pal nproc 10 end
|  3> %maxcore 20000
|  4> %mdci
|  5>      density none
|  6> end
|  7>
|  8> * xyz 0 6
|  9>  O     -0.32408300     -0.20011500     -0.59591000
| 10>  C     -1.33114500     -1.09430800     -0.48419300
| 11>  C     -2.90234600     -0.10770800     -0.07438500
| 12>  C     -2.18200700      1.10015200     -0.21193900
| 13>  C     -2.04072900      1.77583100     -1.52304800
| 14> Fe      1.40522100      0.04653400      0.03345200
| 15> Cl      1.84371700      2.07549200     -0.74798200
| 16>  C     -1.58155700      1.78679000      0.95640900
| 17> Cl      2.61648200     -1.61754000     -0.74019100
| 18> Cl      1.29688300      0.03866500      2.25633900
| 19>  H     -3.53298400     -0.33780200     -0.93175300
| 20>  H     -2.38500200      2.38038100      1.42287300
| 21>  H     -1.21409400      1.09191000      1.71384500
| 22>  H     -0.77433000      2.46042400      0.66307000
| 23>  H     -2.57155500      2.73791200     -1.45104400
| 24>  H     -0.98609100      2.00682700     -1.70936200
| 25>  H     -2.46471400      1.20593800     -2.35074200
| 26>  C     -3.53381800     -0.48804600      1.25208900
| 27>  H     -4.40319400      0.15091200      1.44926500
| 28>  H     -3.88818200     -1.52134900      1.22579700
| 29>  H     -2.84795100     -0.38868600      2.09556100
| 30>  C     -1.15564800     -2.08757700      0.64508700
| 31>  H     -2.00114400     -2.77192300      0.74130700
| 32>  H     -0.26302000     -2.67458600      0.38994100
| 33>  H     -0.95264800     -1.59518700      1.59692100
| 34>  C     -1.66781900     -1.73456900     -1.81925000
| 35>  H     -0.78989300     -2.32168900     -2.11589900
| 36>  H     -2.53523600     -2.39764200     -1.75390700
| 37>  H     -1.83299700     -0.98029400     -2.59178500
| 38> *
| 39>
| 40>
| 41>                          ****END OF INPUT****

CARTESIAN COORDINATES (ANGSTROEM)
---------------------------------
  O     -0.324083   -0.200115   -0.595910
  C     -1.331145   -1.094308   -0.484193
  C     -2.902346   -0.107708   -0.074385
  C     -2.182007    1.100152   -0.211939
  C     -2.040729    1.775831   -1.523048
  Fe     1.405221    0.046534    0.033452
  Cl     1.843717    2.075492   -0.747982
  C     -1.581557    1.786790    0.956409
  Cl     2.616482   -1.617540   -0.740191
  Cl     1.296883    0.038665    2.256339
  H     -3.532984   -0.337802   -0.931753
  H     -2.385002    2.380381    1.422873
  H     -1.214094    1.091910    1.713845
  H     -0.774330    2.460424    0.663070
  H     -2.571555    2.737912   -1.451044
  H     -0.986091    2.006827   -1.709362
  H     -2.464714    1.205938   -2.350742
  C     -3.533818   -0.488046    1.252089
  H     -4.403194    0.150912    1.449265
  H     -3.888182   -1.521349    1.225797
  H     -2.847951   -0.388686    2.095561
  C     -1.155648   -2.087577    0.645087
  H     -2.001144   -2.771923    0.741307
  H     -0.263020   -2.674586    0.389941
  H     -0.952648   -1.595187    1.596921
  C     -1.667819   -1.734569   -1.819250
  H     -0.789893   -2.321689   -2.115899
  H     -2.535236   -2.397642   -1.753907
  H     -1.832997   -0.980294   -2.591785

ORBITAL ENERGIES
----------------
                 SPIN UP ORBITALS
  NO   OCC          E(Eh)            E(eV)
   0   1.0000    -261.548398     -7117.0937
   1   1.0000    -104.775117     -2851.0759
   2   1.0000    -104.774891     -2851.0697
   3   1.0000    -104.771755     -2850.9844
   4   1.0000     -32.216286      -876.6497
   5   1.0000     -27.692144      -753.5416
   6   1.0000     -27.692077      -753.5397
   7   1.0000     -27.691744      -753.5307
   8   1.0000     -20.547919      -559.1373
   9   1.0000     -11.381664      -309.7108
  10   1.0000     -11.375379      -309.5398
  11   1.0000     -11.282940      -307.0244
  12   1.0000     -11.276156      -306.8398
  13   1.0000     -11.270608      -306.6888
  14   1.0000     -11.263003      -306.4819
  15   1.0000     -11.250192      -306.1333
  16   1.0000     -11.244601      -305.9812
  17   1.0000     -10.501711      -285.7661
  18   1.0000     -10.501378      -285.7570
  19   1.0000     -10.498285      -285.6729
  20   1.0000      -7.968605      -216.8368
  21   1.0000      -7.968211      -216.8261
  22   1.0000      -7.967743      -216.8133
  23   1.0000      -7.967700      -216.8121
  24   1.0000      -7.967463      -216.8057
  25   1.0000      -7.967366      -216.8031
  26   1.0000      -7.965104      -216.7415
  27   1.0000      -7.964401      -216.7224
  28   1.0000      -7.964307      -216.7198
  29   1.0000      -4.571784      -124.4046
  30   1.0000      -3.184399       -86.6519
  31   1.0000      -3.183925       -86.6390
  32   1.0000      -3.183361       -86.6237
  33   1.0000      -1.384129       -37.6641
  34   1.0000      -1.182060       -32.1655
  35   1.0000      -1.086062       -29.5532
  36   1.0000      -1.046460       -28.4756
  37   1.0000      -1.041789       -28.3485
  38   1.0000      -1.040994       -28.3269
  39   1.0000      -1.038557       -28.2606
  40   1.0000      -1.008110       -27.4321
  41   1.0000      -0.978649       -26.6304
  42   1.0000      -0.935133       -25.4463
  43   1.0000      -0.912857       -24.8401
  44   1.0000      -0.901453       -24.5298
  45   1.0000      -0.901366       -24.5274
  46   1.0000      -0.892849       -24.2957
  47   1.0000      -0.892613       -24.2892
  48   1.0000      -0.785911       -21.3857
  49   1.0000      -0.765490       -20.8301
  50   1.0000      -0.700470       -19.0608
  51   1.0000      -0.693331       -18.8665
  52   1.0000      -0.674568       -18.3559
  53   1.0000      -0.648181       -17.6379
  54   1.0000      -0.642716       -17.4892
  55   1.0000      -0.627723       -17.0812
  56   1.0000      -0.601072       -16.3560
  57   1.0000      -0.595049       -16.1921
  58   1.0000      -0.591578       -16.0977
  59   1.0000      -0.584768       -15.9124
  60   1.0000      -0.576293       -15.6817
  61   1.0000      -0.561810       -15.2876
  62   1.0000      -0.557767       -15.1776
  63   1.0000      -0.545594       -14.8464
  64   1.0000      -0.535681       -14.5766
  65   1.0000      -0.531431       -14.4610
  66   1.0000      -0.508612       -13.8400
  67   1.0000      -0.474889       -12.9224
  68   1.0000      -0.461875       -12.5683
  69   1.0000      -0.449483       -12.2311
  70   1.0000      -0.427655       -11.6371
  71   1.0000      -0.425361       -11.5747
  72   1.0000      -0.422315       -11.4918
  73   1.0000      -0.414978       -11.2921
  74   1.0000      -0.413506       -11.2521
  75   1.0000      -0.411340       -11.1931
  76   1.0000      -0.395187       -10.7536
  77   0.0000       0.007655         0.2083
  78   0.0000       0.018844         0.5128
  79   0.0000       0.021366         0.5814
  80   0.0000       0.028047         0.7632
  81   0.0000       0.030344         0.8257

                 SPIN DOWN ORBITALS
  NO   OCC          E(Eh)            E(eV)
   0   1.0000    -261.544855     -7116.9973
   1   1.0000    -104.773767     -2851.0391
   2   1.0000    -104.773585     -2851.0342
   3   1.0000    -104.770322     -2850.9454
   4   1.0000     -32.054230      -872.2399
   5   1.0000     -27.532326      -749.1927
   6   1.0000     -27.532144      -749.1877
   7   1.0000     -27.531635      -749.1739
   8   1.0000     -20.542153      -558.9804
   9   1.0000     -11.381652      -309.7105
  10   1.0000     -11.375293      -309.5374
  11   1.0000     -11.282660      -307.0168
  12   1.0000     -11.276147      -306.8396
  13   1.0000     -11.270632      -306.6895
  14   1.0000     -11.263029      -306.4826
  15   1.0000     -11.250090      -306.1305
  16   1.0000     -11.244560      -305.9800
  17   1.0000     -10.500256      -285.7265
  18   1.0000     -10.499976      -285.7189
  19   1.0000     -10.496752      -285.6311
  20   1.0000      -7.966123      -216.7692
  21   1.0000      -7.965926      -216.7639
  22   1.0000      -7.965629      -216.7558
  23   1.0000      -7.965555      -216.7538
  24   1.0000      -7.965340      -216.7479
  25   1.0000      -7.965243      -216.7453
  26   1.0000      -7.962713      -216.6764
  27   1.0000      -7.961994      -216.6569
  28   1.0000      -7.961917      -216.6548
  29   1.0000      -4.129523      -112.3700
  30   1.0000      -2.651336       -72.1465
  31   1.0000      -2.651233       -72.1437
  32   1.0000      -2.650650       -72.1278
  33   1.0000      -1.369213       -37.2582
  34   1.0000      -1.180877       -32.1333
  35   1.0000      -1.083388       -29.4805
  36   1.0000      -1.040494       -28.3133
  37   1.0000      -1.032210       -28.0879
  38   1.0000      -1.021532       -27.7973
  39   1.0000      -1.018484       -27.7143
  40   1.0000      -1.007679       -27.4203
  41   1.0000      -0.977966       -26.6118
  42   1.0000      -0.932952       -25.3869
  43   1.0000      -0.795905       -21.6577
  44   1.0000      -0.769001       -20.9256
  45   1.0000      -0.700695       -19.0669
  46   1.0000      -0.692350       -18.8398
  47   1.0000      -0.676401       -18.4058
  48   1.0000      -0.649919       -17.6852
  49   1.0000      -0.640603       -17.4317
  50   1.0000      -0.627737       -17.0816
  51   1.0000      -0.600181       -16.3318
  52   1.0000      -0.595078       -16.1929
  53   1.0000      -0.591554       -16.0970
  54   1.0000      -0.583642       -15.8817
  55   1.0000      -0.576246       -15.6804
  56   1.0000      -0.561835       -15.2883
  57   1.0000      -0.556986       -15.1564
  58   1.0000      -0.544728       -14.8228
  59   1.0000      -0.533297       -14.5117
  60   1.0000      -0.527292       -14.3484
  61   1.0000      -0.502128       -13.6636
  62   1.0000      -0.472094       -12.8463
  63   1.0000      -0.465058       -12.6549
  64   1.0000      -0.459277       -12.4976
  65   1.0000      -0.436501       -11.8778
  66   1.0000      -0.432831       -11.7779
  67   1.0000      -0.432296       -11.7634
  68   1.0000      -0.423468       -11.5232
  69   1.0000      -0.411392       -11.1945
  70   1.0000      -0.399252       -10.8642
  71   1.0000      -0.389694       -10.6041
  72   0.0000       0.007656         0.2083
  73   0.0000       0.018764         0.5106
  74   0.0000       0.021349         0.5809
  75   0.0000       0.027845         0.7577
  76   0.0000       0.030363         0.8262

E(0)                                       ...  -3028.424242634
E(0)                                       ...  -3028.424242634
E(CORR)(strong-pairs)                      ...     -2.870977717
E(CORR)(weak-pairs)                        ...     -0.035344339
E(CORR)(corrected)                         ...     -2.906322056
E(TOT)                                     ...  -3031.330564690
E(CCSD(T))                                 ...  -3031.449408042
FINAL SINGLE POINT ENERGY     -3031.449408042121

DIPOLE MOMENT
-------------
                                X             Y             Z
Electronic contribution:     40.57666       3.90425       2.28007
Nuclear contribution   :    -45.34461      -3.70626      -2.73862
                        -----------------------------------------
Total Dipole Moment    :     -4.76795       0.19799      -0.45855
                        -----------------------------------------
Magnitude (a.u.)       :      4.79404
Magnitude (Debye)      :     12.18548

Rotational constants in cm-1:     0.019260     0.011601     0.010667
Rotational constants in MHz :   577.402140   347.788837   319.778942

                             ****ORCA TERMINATED NORMALLY****
TOTAL RUN TIME: 0 days 21 hours 44 minutes 47 seconds 277 msec
