                         Program Version 4.1.2  - RELEASE  -
|  1> ! aug-cc-pVTZ aug-cc-pVTZ/C DLPNO-CCSD(T1) TightSCF NormalPNO UNO MiniPrint AutoAux
|  2> %pal nproc 10 end
|  3> %maxcore 20000
|  4> %mdci
|  5>      density none
|  6> end
|  7>
|  8> * xyz 0 6
|  9>  O     -0.33692700     -0.16191800     -0.65867100
| 10>  C     -1.30782900     -1.10003900     -0.53813800
| 11>  C     -2.77761100     -0.25104900      0.19769800
| 12>  C     -2.29787300      1.03404900     -0.16186800
| 13>  C     -2.53254200      1.61110700     -1.50747400
| 14> Fe      1.38206100      0.08522300      0.00579200
| 15> Cl      1.86546500      2.11779100     -0.71965400
| 16>  C     -1.55896700      1.88898800      0.79003200
| 17> Cl      2.64105000     -1.55360500     -0.74662500
| 18> Cl      1.18567000      0.03329600      2.23244700
| 19>  H     -3.58542500     -0.60529500     -0.44216200
| 20>  H     -2.32343500      2.49731400      1.30434000
| 21>  H     -1.02364900      1.32530800      1.55431400
| 22>  H     -0.87129000      2.56782200      0.27980900
| 23>  H     -2.89744000      2.64011400     -1.39427000
| 24>  H     -1.55983300      1.68441000     -2.01214800
| 25>  H     -3.23328600      1.03962300     -2.11622800
| 26>  C     -2.98483800     -0.58140200      1.66808100
| 27>  H     -3.79915600      0.02675400      2.07921300
| 28>  H     -3.26639200     -1.63004700      1.78492300
| 29>  H     -2.09190400     -0.40391300      2.27085700
| 30>  C     -0.96796000     -2.24361400      0.40106400
| 31>  H     -1.78761500     -2.96043500      0.49604900
| 32>  H     -0.10786900     -2.75683000     -0.04830500
| 33>  H     -0.65863100     -1.89155300      1.38512300
| 34>  C     -1.77552500     -1.59557900     -1.90072700
| 35>  H     -0.92590000     -2.12182000     -2.35080100
| 36>  H     -2.61698600     -2.28977400     -1.81968800
| 37>  H     -2.03761000     -0.77410200     -2.56911700
| 38> *
| 39>
| 40>
| 41>                          ****END OF INPUT****

CARTESIAN COORDINATES (ANGSTROEM)
---------------------------------
  O     -0.336927   -0.161918   -0.658671
  C     -1.307829   -1.100039   -0.538138
  C     -2.777611   -0.251049    0.197698
  C     -2.297873    1.034049   -0.161868
  C     -2.532542    1.611107   -1.507474
  Fe     1.382061    0.085223    0.005792
  Cl     1.865465    2.117791   -0.719654
  C     -1.558967    1.888988    0.790032
  Cl     2.641050   -1.553605   -0.746625
  Cl     1.185670    0.033296    2.232447
  H     -3.585425   -0.605295   -0.442162
  H     -2.323435    2.497314    1.304340
  H     -1.023649    1.325308    1.554314
  H     -0.871290    2.567822    0.279809
  H     -2.897440    2.640114   -1.394270
  H     -1.559833    1.684410   -2.012148
  H     -3.233286    1.039623   -2.116228
  C     -2.984838   -0.581402    1.668081
  H     -3.799156    0.026754    2.079213
  H     -3.266392   -1.630047    1.784923
  H     -2.091904   -0.403913    2.270857
  C     -0.967960   -2.243614    0.401064
  H     -1.787615   -2.960435    0.496049
  H     -0.107869   -2.756830   -0.048305
  H     -0.658631   -1.891553    1.385123
  C     -1.775525   -1.595579   -1.900727
  H     -0.925900   -2.121820   -2.350801
  H     -2.616986   -2.289774   -1.819688
  H     -2.037610   -0.774102   -2.569117

ORBITAL ENERGIES
----------------
                 SPIN UP ORBITALS
  NO   OCC          E(Eh)            E(eV)
   0   1.0000    -261.546958     -7117.0546
   1   1.0000    -104.775145     -2851.0767
   2   1.0000    -104.772871     -2851.0148
   3   1.0000    -104.770473     -2850.9495
   4   1.0000     -32.214864      -876.6110
   5   1.0000     -27.690729      -753.5030
   6   1.0000     -27.690613      -753.4999
   7   1.0000     -27.690336      -753.4924
   8   1.0000     -20.544588      -559.0467
   9   1.0000     -11.388438      -309.8952
  10   1.0000     -11.367884      -309.3359
  11   1.0000     -11.285278      -307.0880
  12   1.0000     -11.284693      -307.0721
  13   1.0000     -11.270831      -306.6949
  14   1.0000     -11.258800      -306.3675
  15   1.0000     -11.247850      -306.0696
  16   1.0000     -11.239273      -305.8362
  17   1.0000     -10.501709      -285.7660
  18   1.0000     -10.499398      -285.7031
  19   1.0000     -10.497026      -285.6386
  20   1.0000      -7.968610      -216.8369
  21   1.0000      -7.967721      -216.8127
  22   1.0000      -7.967677      -216.8115
  23   1.0000      -7.966223      -216.7719
  24   1.0000      -7.965490      -216.7520
  25   1.0000      -7.965402      -216.7496
  26   1.0000      -7.963841      -216.7071
  27   1.0000      -7.963131      -216.6878
  28   1.0000      -7.963055      -216.6857
  29   1.0000      -4.570305      -124.3643
  30   1.0000      -3.182794       -86.6082
  31   1.0000      -3.182461       -86.5992
  32   1.0000      -3.181942       -86.5850
  33   1.0000      -1.378023       -37.4979
  34   1.0000      -1.186703       -32.2918
  35   1.0000      -1.085633       -29.5416
  36   1.0000      -1.045403       -28.4469
  37   1.0000      -1.043762       -28.4022
  38   1.0000      -1.039851       -28.2958
  39   1.0000      -1.037341       -28.2275
  40   1.0000      -1.010388       -27.4940
  41   1.0000      -0.974260       -26.5110
  42   1.0000      -0.934825       -25.4379
  43   1.0000      -0.910733       -24.7823
  44   1.0000      -0.899904       -24.4876
  45   1.0000      -0.899766       -24.4839
  46   1.0000      -0.891614       -24.2620
  47   1.0000      -0.891135       -24.2490
  48   1.0000      -0.787713       -21.4348
  49   1.0000      -0.765533       -20.8312
  50   1.0000      -0.704931       -19.1821
  51   1.0000      -0.692529       -18.8447
  52   1.0000      -0.674130       -18.3440
  53   1.0000      -0.647928       -17.6310
  54   1.0000      -0.642236       -17.4761
  55   1.0000      -0.627544       -17.0763
  56   1.0000      -0.600178       -16.3317
  57   1.0000      -0.597059       -16.2468
  58   1.0000      -0.593473       -16.1492
  59   1.0000      -0.580711       -15.8020
  60   1.0000      -0.579642       -15.7729
  61   1.0000      -0.559445       -15.2233
  62   1.0000      -0.556881       -15.1535
  63   1.0000      -0.543970       -14.8022
  64   1.0000      -0.532721       -14.4961
  65   1.0000      -0.529666       -14.4130
  66   1.0000      -0.508419       -13.8348
  67   1.0000      -0.471695       -12.8355
  68   1.0000      -0.460283       -12.5249
  69   1.0000      -0.449144       -12.2218
  70   1.0000      -0.425717       -11.5843
  71   1.0000      -0.424484       -11.5508
  72   1.0000      -0.421649       -11.4736
  73   1.0000      -0.413363       -11.2482
  74   1.0000      -0.412372       -11.2212
  75   1.0000      -0.410566       -11.1721
  76   1.0000      -0.399597       -10.8736
  77   0.0000       0.006517         0.1773
  78   0.0000       0.017109         0.4655
  79   0.0000       0.020368         0.5542
  80   0.0000       0.021322         0.5802
  81   0.0000       0.030416         0.8277

                 SPIN DOWN ORBITALS
  NO   OCC          E(Eh)            E(eV)
   0   1.0000    -261.543416     -7116.9582
   1   1.0000    -104.773839     -2851.0411
   2   1.0000    -104.771545     -2850.9787
   3   1.0000    -104.769048     -2850.9107
   4   1.0000     -32.052813      -872.2014
   5   1.0000     -27.530906      -749.1540
   6   1.0000     -27.530741      -749.1495
   7   1.0000     -27.530198      -749.1348
   8   1.0000     -20.538791      -558.8889
   9   1.0000     -11.388445      -309.8953
  10   1.0000     -11.367795      -309.3334
  11   1.0000     -11.285272      -307.0879
  12   1.0000     -11.284466      -307.0659
  13   1.0000     -11.270857      -306.6956
  14   1.0000     -11.258821      -306.3681
  15   1.0000     -11.247745      -306.0667
  16   1.0000     -11.239236      -305.8352
  17   1.0000     -10.500299      -285.7277
  18   1.0000     -10.497976      -285.6644
  19   1.0000     -10.495500      -285.5971
  20   1.0000      -7.966140      -216.7697
  21   1.0000      -7.965721      -216.7583
  22   1.0000      -7.965637      -216.7560
  23   1.0000      -7.963942      -216.7099
  24   1.0000      -7.963313      -216.6928
  25   1.0000      -7.963221      -216.6903
  26   1.0000      -7.961466      -216.6425
  27   1.0000      -7.960741      -216.6228
  28   1.0000      -7.960670      -216.6208
  29   1.0000      -4.128059      -112.3302
  30   1.0000      -2.649890       -72.1072
  31   1.0000      -2.649827       -72.1055
  32   1.0000      -2.649039       -72.0840
  33   1.0000      -1.363033       -37.0900
  34   1.0000      -1.185615       -32.2622
  35   1.0000      -1.083014       -29.4703
  36   1.0000      -1.042302       -28.3625
  37   1.0000      -1.031584       -28.0708
  38   1.0000      -1.020489       -27.7689
  39   1.0000      -1.017358       -27.6837
  40   1.0000      -1.009904       -27.4809
  41   1.0000      -0.973449       -26.4889
  42   1.0000      -0.933225       -25.3943
  43   1.0000      -0.795123       -21.6364
  44   1.0000      -0.770549       -20.9677
  45   1.0000      -0.705292       -19.1920
  46   1.0000      -0.691617       -18.8198
  47   1.0000      -0.675130       -18.3712
  48   1.0000      -0.650111       -17.6904
  49   1.0000      -0.640659       -17.4332
  50   1.0000      -0.626858       -17.0577
  51   1.0000      -0.599984       -16.3264
  52   1.0000      -0.596167       -16.2225
  53   1.0000      -0.593606       -16.1528
  54   1.0000      -0.580745       -15.8029
  55   1.0000      -0.578530       -15.7426
  56   1.0000      -0.559008       -15.2114
  57   1.0000      -0.556346       -15.1389
  58   1.0000      -0.543244       -14.7824
  59   1.0000      -0.529290       -14.4027
  60   1.0000      -0.526437       -14.3251
  61   1.0000      -0.501159       -13.6372
  62   1.0000      -0.470357       -12.7991
  63   1.0000      -0.464003       -12.6262
  64   1.0000      -0.457361       -12.4454
  65   1.0000      -0.435274       -11.8444
  66   1.0000      -0.431998       -11.7553
  67   1.0000      -0.430955       -11.7269
  68   1.0000      -0.424103       -11.5404
  69   1.0000      -0.410594       -11.1728
  70   1.0000      -0.398523       -10.8444
  71   1.0000      -0.392199       -10.6723
  72   0.0000       0.006511         0.1772
  73   0.0000       0.016882         0.4594
  74   0.0000       0.020351         0.5538
  75   0.0000       0.021258         0.5785
  76   0.0000       0.030445         0.8284

E(0)                                       ...  -3028.425010927
E(0)                                       ...  -3028.425010927
E(CORR)(strong-pairs)                      ...     -2.871194289
E(CORR)(weak-pairs)                        ...     -0.035937469
E(CORR)(corrected)                         ...     -2.907131758
E(TOT)                                     ...  -3031.332142685
E(CCSD(T))                                 ...  -3031.450809075
FINAL SINGLE POINT ENERGY     -3031.450809074851

DIPOLE MOMENT
-------------
                                X             Y             Z
Electronic contribution:     39.64451       4.87013       2.15418
Nuclear contribution   :    -44.53730      -4.65947      -2.62732
                        -----------------------------------------
Total Dipole Moment    :     -4.89279       0.21066      -0.47314
                        -----------------------------------------
Magnitude (a.u.)       :      4.92013
Magnitude (Debye)      :     12.50597

Rotational constants in cm-1:     0.019004     0.011766     0.010877
Rotational constants in MHz :   569.730469   352.732076   326.089963

                             ****ORCA TERMINATED NORMALLY****
TOTAL RUN TIME: 0 days 20 hours 13 minutes 51 seconds 382 msec
