                         Program Version 4.1.2  - RELEASE  -
|  1> ! aug-cc-pVTZ aug-cc-pVTZ/C DLPNO-CCSD(T1) TightSCF NormalPNO UNO MiniPrint AutoAux
|  2> %pal nproc 10 end
|  3> %maxcore 20000
|  4> %mdci
|  5>      density none
|  6> end
|  7>
|  8> * xyz 0 6
|  9>  O     -0.32656600     -0.12934500     -0.44380800
| 10>  C     -1.20224400     -1.09217800     -0.25827200
| 11>  C     -2.60101400     -0.34237700      0.78635300
| 12>  C     -2.97059400      0.70806600     -0.05922800
| 13>  C     -4.04116900      0.54985300     -1.08305600
| 14> Fe      1.50382000      0.17453800     -0.08899700
| 15> Cl      1.81481100      2.18326000     -0.92410200
| 16>  C     -2.22682800      1.97926100     -0.03964200
| 17> Cl      2.53808900     -1.47989800     -1.10325400
| 18> Cl      1.79018400      0.12653800      2.10199100
| 19>  H     -3.29627000     -1.18249500      0.78267000
| 20>  H     -2.66826200      2.74964000     -0.67446700
| 21>  H     -2.06161700      2.36146300      0.97192300
| 22>  H     -1.21651300      1.72611100     -0.42479200
| 23>  H     -4.86945600      1.21938300     -0.80737400
| 24>  H     -3.69933900      0.88408600     -2.07051300
| 25>  H     -4.42943200     -0.46777900     -1.14808200
| 26>  C     -1.98902800     -0.01940800      2.14325200
| 27>  H     -2.62701900      0.68920500      2.68286700
| 28>  H     -1.90755500     -0.91945300      2.75421000
| 29>  H     -0.99173100      0.41665600      2.05294900
| 30>  C     -0.74907000     -2.22550600      0.66195400
| 31>  H     -1.56690700     -2.90312100      0.92037900
| 32>  H      0.00496300     -2.78648100      0.09631100
| 33>  H     -0.26827300     -1.85146600      1.56508200
| 34>  C     -1.80970200     -1.60816600     -1.55707700
| 35>  H     -1.03591900     -2.20848000     -2.04851500
| 36>  H     -2.68318500     -2.24487000     -1.38955300
| 37>  H     -2.06483300     -0.79118900     -2.23321000
| 38> *
| 39>
| 40>
| 41>                          ****END OF INPUT****

CARTESIAN COORDINATES (ANGSTROEM)
---------------------------------
  O     -0.326566   -0.129345   -0.443808
  C     -1.202244   -1.092178   -0.258272
  C     -2.601014   -0.342377    0.786353
  C     -2.970594    0.708066   -0.059228
  C     -4.041169    0.549853   -1.083056
  Fe     1.503820    0.174538   -0.088997
  Cl     1.814811    2.183260   -0.924102
  C     -2.226828    1.979261   -0.039642
  Cl     2.538089   -1.479898   -1.103254
  Cl     1.790184    0.126538    2.101991
  H     -3.296270   -1.182495    0.782670
  H     -2.668262    2.749640   -0.674467
  H     -2.061617    2.361463    0.971923
  H     -1.216513    1.726111   -0.424792
  H     -4.869456    1.219383   -0.807374
  H     -3.699339    0.884086   -2.070513
  H     -4.429432   -0.467779   -1.148082
  C     -1.989028   -0.019408    2.143252
  H     -2.627019    0.689205    2.682867
  H     -1.907555   -0.919453    2.754210
  H     -0.991731    0.416656    2.052949
  C     -0.749070   -2.225506    0.661954
  H     -1.566907   -2.903121    0.920379
  H      0.004963   -2.786481    0.096311
  H     -0.268273   -1.851466    1.565082
  C     -1.809702   -1.608166   -1.557077
  H     -1.035919   -2.208480   -2.048515
  H     -2.683185   -2.244870   -1.389553
  H     -2.064833   -0.791189   -2.233210

ORBITAL ENERGIES
----------------
                 SPIN UP ORBITALS
  NO   OCC          E(Eh)            E(eV)
   0   1.0000    -261.548457     -7117.0954
   1   1.0000    -104.773690     -2851.0370
   2   1.0000    -104.771477     -2850.9768
   3   1.0000    -104.770921     -2850.9617
   4   1.0000     -32.216356      -876.6516
   5   1.0000     -27.692409      -753.5488
   6   1.0000     -27.691943      -753.5361
   7   1.0000     -27.691769      -753.5314
   8   1.0000     -20.556554      -559.3723
   9   1.0000     -11.378835      -309.6338
  10   1.0000     -11.365042      -309.2585
  11   1.0000     -11.291340      -307.2530
  12   1.0000     -11.282120      -307.0021
  13   1.0000     -11.266469      -306.5762
  14   1.0000     -11.254181      -306.2418
  15   1.0000     -11.250464      -306.1407
  16   1.0000     -11.246625      -306.0362
  17   1.0000     -10.500319      -285.7282
  18   1.0000     -10.498065      -285.6669
  19   1.0000     -10.497543      -285.6527
  20   1.0000      -7.967185      -216.7981
  21   1.0000      -7.966371      -216.7760
  22   1.0000      -7.966329      -216.7748
  23   1.0000      -7.964885      -216.7355
  24   1.0000      -7.964397      -216.7223
  25   1.0000      -7.964179      -216.7163
  26   1.0000      -7.964084      -216.7138
  27   1.0000      -7.963642      -216.7017
  28   1.0000      -7.963561      -216.6995
  29   1.0000      -4.571724      -124.4029
  30   1.0000      -3.184438       -86.6530
  31   1.0000      -3.183680       -86.6323
  32   1.0000      -3.183243       -86.6204
  33   1.0000      -1.396281       -37.9947
  34   1.0000      -1.184745       -32.2385
  35   1.0000      -1.080981       -29.4150
  36   1.0000      -1.045873       -28.4596
  37   1.0000      -1.044779       -28.4299
  38   1.0000      -1.039640       -28.2900
  39   1.0000      -1.037786       -28.2396
  40   1.0000      -1.007801       -27.4237
  41   1.0000      -0.979153       -26.6441
  42   1.0000      -0.928295       -25.2602
  43   1.0000      -0.915095       -24.9010
  44   1.0000      -0.901146       -24.5214
  45   1.0000      -0.901118       -24.5207
  46   1.0000      -0.891984       -24.2721
  47   1.0000      -0.891610       -24.2619
  48   1.0000      -0.790146       -21.5010
  49   1.0000      -0.768954       -20.9243
  50   1.0000      -0.700420       -19.0594
  51   1.0000      -0.692032       -18.8311
  52   1.0000      -0.668695       -18.1961
  53   1.0000      -0.662449       -18.0262
  54   1.0000      -0.654928       -17.8215
  55   1.0000      -0.629951       -17.1418
  56   1.0000      -0.603169       -16.4131
  57   1.0000      -0.596646       -16.2356
  58   1.0000      -0.592277       -16.1167
  59   1.0000      -0.578161       -15.7326
  60   1.0000      -0.575714       -15.6660
  61   1.0000      -0.564259       -15.3543
  62   1.0000      -0.558371       -15.1940
  63   1.0000      -0.541643       -14.7388
  64   1.0000      -0.534643       -14.5484
  65   1.0000      -0.523218       -14.2375
  66   1.0000      -0.509248       -13.8573
  67   1.0000      -0.472400       -12.8547
  68   1.0000      -0.460307       -12.5256
  69   1.0000      -0.448645       -12.2082
  70   1.0000      -0.427089       -11.6217
  71   1.0000      -0.423927       -11.5356
  72   1.0000      -0.420450       -11.4410
  73   1.0000      -0.412429       -11.2228
  74   1.0000      -0.410500       -11.1703
  75   1.0000      -0.410070       -11.1586
  76   1.0000      -0.396645       -10.7933
  77   0.0000       0.005236         0.1425
  78   0.0000       0.013509         0.3676
  79   0.0000       0.018825         0.5123
  80   0.0000       0.020177         0.5490
  81   0.0000       0.028888         0.7861

                 SPIN DOWN ORBITALS
  NO   OCC          E(Eh)            E(eV)
   0   1.0000    -261.544903     -7116.9986
   1   1.0000    -104.772290     -2850.9989
   2   1.0000    -104.770073     -2850.9386
   3   1.0000    -104.769475     -2850.9223
   4   1.0000     -32.054278      -872.2413
   5   1.0000     -27.532297      -749.1919
   6   1.0000     -27.532182      -749.1887
   7   1.0000     -27.531788      -749.1780
   8   1.0000     -20.551585      -559.2371
   9   1.0000     -11.378810      -309.6331
  10   1.0000     -11.364817      -309.2524
  11   1.0000     -11.291372      -307.2539
  12   1.0000     -11.282035      -306.9998
  13   1.0000     -11.266504      -306.5772
  14   1.0000     -11.254076      -306.2390
  15   1.0000     -11.250489      -306.1414
  16   1.0000     -11.246608      -306.0358
  17   1.0000     -10.498817      -285.6873
  18   1.0000     -10.496563      -285.6260
  19   1.0000     -10.495994      -285.6105
  20   1.0000      -7.964710      -216.7308
  21   1.0000      -7.964123      -216.7148
  22   1.0000      -7.964050      -216.7128
  23   1.0000      -7.962532      -216.6715
  24   1.0000      -7.961920      -216.6549
  25   1.0000      -7.961837      -216.6526
  26   1.0000      -7.961734      -216.6498
  27   1.0000      -7.961259      -216.6369
  28   1.0000      -7.961173      -216.6345
  29   1.0000      -4.129412      -112.3670
  30   1.0000      -2.651188       -72.1425
  31   1.0000      -2.651142       -72.1412
  32   1.0000      -2.650346       -72.1196
  33   1.0000      -1.383577       -37.6491
  34   1.0000      -1.183686       -32.2097
  35   1.0000      -1.078375       -29.3441
  36   1.0000      -1.044938       -28.4342
  37   1.0000      -1.030419       -28.0391
  38   1.0000      -1.018843       -27.7241
  39   1.0000      -1.017213       -27.6798
  40   1.0000      -1.007560       -27.4171
  41   1.0000      -0.978483       -26.6259
  42   1.0000      -0.927241       -25.2315
  43   1.0000      -0.801671       -21.8146
  44   1.0000      -0.771490       -20.9933
  45   1.0000      -0.701011       -19.0755
  46   1.0000      -0.691375       -18.8133
  47   1.0000      -0.669535       -18.2190
  48   1.0000      -0.663810       -18.0632
  49   1.0000      -0.653576       -17.7847
  50   1.0000      -0.629463       -17.1286
  51   1.0000      -0.603120       -16.4117
  52   1.0000      -0.596418       -16.2293
  53   1.0000      -0.591406       -16.0930
  54   1.0000      -0.578068       -15.7300
  55   1.0000      -0.575323       -15.6553
  56   1.0000      -0.563764       -15.3408
  57   1.0000      -0.558348       -15.1934
  58   1.0000      -0.540704       -14.7133
  59   1.0000      -0.534262       -14.5380
  60   1.0000      -0.519102       -14.1255
  61   1.0000      -0.501600       -13.6492
  62   1.0000      -0.470072       -12.7913
  63   1.0000      -0.463962       -12.6250
  64   1.0000      -0.458147       -12.4668
  65   1.0000      -0.434957       -11.8358
  66   1.0000      -0.432138       -11.7591
  67   1.0000      -0.430263       -11.7081
  68   1.0000      -0.422860       -11.5066
  69   1.0000      -0.409904       -11.1540
  70   1.0000      -0.396237       -10.7821
  71   1.0000      -0.391244       -10.6463
  72   0.0000       0.005245         0.1427
  73   0.0000       0.013405         0.3648
  74   0.0000       0.018827         0.5123
  75   0.0000       0.020129         0.5477
  76   0.0000       0.028861         0.7853

E(0)                                       ...  -3028.427681470
E(0)                                       ...  -3028.427681470
E(CORR)(strong-pairs)                      ...     -2.875490855
E(CORR)(weak-pairs)                        ...     -0.035403506
E(CORR)(corrected)                         ...     -2.910894362
E(TOT)                                     ...  -3031.338575832
E(CCSD(T))                                 ...  -3031.458984997
FINAL SINGLE POINT ENERGY     -3031.458984997203

DIPOLE MOMENT
-------------
                                X             Y             Z
Electronic contribution:     42.78905       6.46284      -1.30918
Nuclear contribution   :    -48.10785      -6.90457       1.21078
                        -----------------------------------------
Total Dipole Moment    :     -5.31879      -0.44174      -0.09840
                        -----------------------------------------
Magnitude (a.u.)       :      5.33801
Magnitude (Debye)      :     13.56815

Rotational constants in cm-1:     0.019792     0.010354     0.009890
Rotational constants in MHz :   593.351986   310.390990   296.483497

                             ****ORCA TERMINATED NORMALLY****
TOTAL RUN TIME: 0 days 21 hours 8 minutes 35 seconds 544 msec
