                         Program Version 4.1.2  - RELEASE  -
|  1> ! aug-cc-pVTZ aug-cc-pVTZ/C DLPNO-CCSD(T1) TightSCF NormalPNO UNO MiniPrint AutoAux
|  2> %pal nproc 10 end
|  3> %maxcore 20000
|  4> %mdci
|  5>      density none
|  6> end
|  7>
|  8> * xyz 0 6
|  9>  O     -0.32136900     -0.22974600     -0.69865200
| 10>  C     -1.32907700     -1.15461800     -0.52173800
| 11>  C     -2.66461600     -0.31310100      0.23370200
| 12>  C     -2.29072400      1.02769300     -0.15050500
| 13>  C     -2.60968800      1.57140500     -1.48727500
| 14> Fe      1.36505600      0.09137800     -0.01718500
| 15> Cl      1.75863300      2.15108800     -0.74131000
| 16>  C     -1.57856900      1.92614300      0.77087200
| 17> Cl      2.74018300     -1.47723000     -0.70916200
| 18> Cl      1.12825600      0.06786300      2.21577800
| 19>  H     -3.53828000     -0.65591800     -0.32485100
| 20>  H     -2.36941600      2.45233700      1.33662700
| 21>  H     -0.96229700      1.39734100      1.49999400
| 22>  H     -0.98355800      2.67375400      0.24098500
| 23>  H     -2.94340000      2.61223100     -1.39751400
| 24>  H     -1.65615200      1.60548200     -2.03631500
| 25>  H     -3.33866100      0.98362100     -2.04449200
| 26>  C     -2.79901500     -0.58788800      1.72985800
| 27>  H     -3.57965900      0.04513200      2.16690500
| 28>  H     -3.08987300     -1.62811500      1.89046600
| 29>  H     -1.86820000     -0.41156800      2.27276100
| 30>  C     -0.92319600     -2.32068300      0.36950200
| 31>  H     -1.73383300     -3.04409300      0.49738000
| 32>  H     -0.08766100     -2.82091000     -0.13489500
| 33>  H     -0.56551600     -1.98825500      1.34426300
| 34>  C     -1.82258000     -1.65181000     -1.87967200
| 35>  H     -0.98724600     -2.17371900     -2.35797800
| 36>  H     -2.66169100     -2.34742000     -1.77791600
| 37>  H     -2.11051200     -0.82986600     -2.53803300
| 38> *
| 39>
| 40>
| 41>                          ****END OF INPUT****

CARTESIAN COORDINATES (ANGSTROEM)
---------------------------------
  O     -0.321369   -0.229746   -0.698652
  C     -1.329077   -1.154618   -0.521738
  C     -2.664616   -0.313101    0.233702
  C     -2.290724    1.027693   -0.150505
  C     -2.609688    1.571405   -1.487275
  Fe     1.365056    0.091378   -0.017185
  Cl     1.758633    2.151088   -0.741310
  C     -1.578569    1.926143    0.770872
  Cl     2.740183   -1.477230   -0.709162
  Cl     1.128256    0.067863    2.215778
  H     -3.538280   -0.655918   -0.324851
  H     -2.369416    2.452337    1.336627
  H     -0.962297    1.397341    1.499994
  H     -0.983558    2.673754    0.240985
  H     -2.943400    2.612231   -1.397514
  H     -1.656152    1.605482   -2.036315
  H     -3.338661    0.983621   -2.044492
  C     -2.799015   -0.587888    1.729858
  H     -3.579659    0.045132    2.166905
  H     -3.089873   -1.628115    1.890466
  H     -1.868200   -0.411568    2.272761
  C     -0.923196   -2.320683    0.369502
  H     -1.733833   -3.044093    0.497380
  H     -0.087661   -2.820910   -0.134895
  H     -0.565516   -1.988255    1.344263
  C     -1.822580   -1.651810   -1.879672
  H     -0.987246   -2.173719   -2.357978
  H     -2.661691   -2.347420   -1.777916
  H     -2.110512   -0.829866   -2.538033

ORBITAL ENERGIES
----------------
                 SPIN UP ORBITALS
  NO   OCC          E(Eh)            E(eV)
   0   1.0000    -261.543267     -7116.9541
   1   1.0000    -104.773682     -2851.0368
   2   1.0000    -104.770858     -2850.9600
   3   1.0000    -104.767549     -2850.8699
   4   1.0000     -32.211169      -876.5105
   5   1.0000     -27.687111      -753.4046
   6   1.0000     -27.686886      -753.3985
   7   1.0000     -27.686600      -753.3907
   8   1.0000     -20.537934      -558.8656
   9   1.0000     -11.405338      -310.3550
  10   1.0000     -11.351335      -308.8855
  11   1.0000     -11.293160      -307.3025
  12   1.0000     -11.289981      -307.2160
  13   1.0000     -11.277836      -306.8855
  14   1.0000     -11.258336      -306.3549
  15   1.0000     -11.242322      -305.9191
  16   1.0000     -11.233010      -305.6657
  17   1.0000     -10.500232      -285.7258
  18   1.0000     -10.497371      -285.6480
  19   1.0000     -10.494093      -285.5588
  20   1.0000      -7.967143      -216.7970
  21   1.0000      -7.966227      -216.7720
  22   1.0000      -7.966187      -216.7710
  23   1.0000      -7.964207      -216.7171
  24   1.0000      -7.963457      -216.6967
  25   1.0000      -7.963360      -216.6940
  26   1.0000      -7.960889      -216.6268
  27   1.0000      -7.960208      -216.6083
  28   1.0000      -7.960125      -216.6060
  29   1.0000      -4.566645      -124.2647
  30   1.0000      -3.179129       -86.5085
  31   1.0000      -3.178782       -86.4990
  32   1.0000      -3.178354       -86.4874
  33   1.0000      -1.362350       -37.0714
  34   1.0000      -1.193878       -32.4871
  35   1.0000      -1.088649       -29.6236
  36   1.0000      -1.043831       -28.4041
  37   1.0000      -1.042614       -28.3710
  38   1.0000      -1.037465       -28.2309
  39   1.0000      -1.034415       -28.1479
  40   1.0000      -1.017578       -27.6897
  41   1.0000      -0.968117       -26.3438
  42   1.0000      -0.934311       -25.4239
  43   1.0000      -0.906019       -24.6540
  44   1.0000      -0.896296       -24.3894
  45   1.0000      -0.896141       -24.3852
  46   1.0000      -0.888554       -24.1788
  47   1.0000      -0.887822       -24.1589
  48   1.0000      -0.795172       -21.6377
  49   1.0000      -0.763286       -20.7701
  50   1.0000      -0.709964       -19.3191
  51   1.0000      -0.691757       -18.8237
  52   1.0000      -0.677551       -18.4371
  53   1.0000      -0.642680       -17.4882
  54   1.0000      -0.638975       -17.3874
  55   1.0000      -0.627114       -17.0646
  56   1.0000      -0.605148       -16.4669
  57   1.0000      -0.598403       -16.2834
  58   1.0000      -0.594162       -16.1680
  59   1.0000      -0.585261       -15.9258
  60   1.0000      -0.576768       -15.6946
  61   1.0000      -0.556363       -15.1394
  62   1.0000      -0.555615       -15.1190
  63   1.0000      -0.540114       -14.6973
  64   1.0000      -0.528653       -14.3854
  65   1.0000      -0.526023       -14.3138
  66   1.0000      -0.504611       -13.7312
  67   1.0000      -0.467370       -12.7178
  68   1.0000      -0.459536       -12.5046
  69   1.0000      -0.445819       -12.1314
  70   1.0000      -0.426593       -11.6082
  71   1.0000      -0.422116       -11.4863
  72   1.0000      -0.419677       -11.4200
  73   1.0000      -0.411830       -11.2065
  74   1.0000      -0.410712       -11.1760
  75   1.0000      -0.408235       -11.1086
  76   1.0000      -0.407308       -11.0834
  77   0.0000       0.004237         0.1153
  78   0.0000       0.008635         0.2350
  79   0.0000       0.019140         0.5208
  80   0.0000       0.019677         0.5354
  81   0.0000       0.030196         0.8217

                 SPIN DOWN ORBITALS
  NO   OCC          E(Eh)            E(eV)
   0   1.0000    -261.539726     -7116.8578
   1   1.0000    -104.772410     -2851.0022
   2   1.0000    -104.769565     -2850.9248
   3   1.0000    -104.766134     -2850.8314
   4   1.0000     -32.049122      -872.1009
   5   1.0000     -27.527265      -749.0550
   6   1.0000     -27.527064      -749.0495
   7   1.0000     -27.526447      -749.0327
   8   1.0000     -20.531730      -558.6968
   9   1.0000     -11.405350      -310.3554
  10   1.0000     -11.351175      -308.8812
  11   1.0000     -11.293153      -307.3023
  12   1.0000     -11.289818      -307.2116
  13   1.0000     -11.277862      -306.8862
  14   1.0000     -11.258349      -306.3553
  15   1.0000     -11.242219      -305.9163
  16   1.0000     -11.232974      -305.6648
  17   1.0000     -10.498857      -285.6884
  18   1.0000     -10.495981      -285.6102
  19   1.0000     -10.492579      -285.5176
  20   1.0000      -7.964677      -216.7299
  21   1.0000      -7.964316      -216.7200
  22   1.0000      -7.964234      -216.7178
  23   1.0000      -7.961937      -216.6553
  24   1.0000      -7.961359      -216.6396
  25   1.0000      -7.961265      -216.6370
  26   1.0000      -7.958572      -216.5638
  27   1.0000      -7.957812      -216.5431
  28   1.0000      -7.957744      -216.5412
  29   1.0000      -4.124446      -112.2319
  30   1.0000      -2.646379       -72.0116
  31   1.0000      -2.646218       -72.0072
  32   1.0000      -2.645438       -71.9860
  33   1.0000      -1.346182       -36.6315
  34   1.0000      -1.192716       -32.4555
  35   1.0000      -1.086055       -29.5531
  36   1.0000      -1.041647       -28.3446
  37   1.0000      -1.029621       -28.0174
  38   1.0000      -1.019076       -27.7305
  39   1.0000      -1.016835       -27.6695
  40   1.0000      -1.014182       -27.5973
  41   1.0000      -0.967287       -26.3212
  42   1.0000      -0.933007       -25.3884
  43   1.0000      -0.799574       -21.7575
  44   1.0000      -0.770346       -20.9622
  45   1.0000      -0.710523       -19.3343
  46   1.0000      -0.691023       -18.8037
  47   1.0000      -0.678176       -18.4541
  48   1.0000      -0.644795       -17.5458
  49   1.0000      -0.638633       -17.3781
  50   1.0000      -0.625606       -17.0236
  51   1.0000      -0.605026       -16.4636
  52   1.0000      -0.598563       -16.2877
  53   1.0000      -0.593011       -16.1366
  54   1.0000      -0.585341       -15.9280
  55   1.0000      -0.575350       -15.6561
  56   1.0000      -0.556332       -15.1386
  57   1.0000      -0.553973       -15.0744
  58   1.0000      -0.539360       -14.6767
  59   1.0000      -0.525021       -14.2866
  60   1.0000      -0.522677       -14.2228
  61   1.0000      -0.498176       -13.5561
  62   1.0000      -0.467050       -12.7091
  63   1.0000      -0.461791       -12.5660
  64   1.0000      -0.452621       -12.3164
  65   1.0000      -0.433829       -11.8051
  66   1.0000      -0.432228       -11.7615
  67   1.0000      -0.428913       -11.6713
  68   1.0000      -0.427286       -11.6270
  69   1.0000      -0.408307       -11.1106
  70   1.0000      -0.397496       -10.8164
  71   1.0000      -0.395516       -10.7625
  72   0.0000       0.004197         0.1142
  73   0.0000       0.008459         0.2302
  74   0.0000       0.019138         0.5208
  75   0.0000       0.019665         0.5351
  76   0.0000       0.030226         0.8225

E(0)                                       ...  -3028.428708719
E(0)                                       ...  -3028.428708719
E(CORR)(strong-pairs)                      ...     -2.869796273
E(CORR)(weak-pairs)                        ...     -0.035611327
E(CORR)(corrected)                         ...     -2.905407601
E(TOT)                                     ...  -3031.334116320
E(CCSD(T))                                 ...  -3031.451936198
FINAL SINGLE POINT ENERGY     -3031.451936198348

DIPOLE MOMENT
-------------
                                X             Y             Z
Electronic contribution:     38.99327       5.72224       1.90770
Nuclear contribution   :    -44.08547      -5.34215      -2.31514
                        -----------------------------------------
Total Dipole Moment    :     -5.09221       0.38009      -0.40744
                        -----------------------------------------
Magnitude (a.u.)       :      5.12260
Magnitude (Debye)      :     13.02062

Rotational constants in cm-1:     0.018891     0.011934     0.010947
Rotational constants in MHz :   566.328548   357.758524   328.190178

                             ****ORCA TERMINATED NORMALLY****
TOTAL RUN TIME: 0 days 20 hours 25 minutes 4 seconds 749 msec
