                         Program Version 4.1.2  - RELEASE  -
|  1> ! aug-cc-pVTZ aug-cc-pVTZ/C DLPNO-CCSD(T1) TightSCF NormalPNO UNO MiniPrint AutoAux
|  2> %pal nproc 10 end
|  3> %maxcore 20000
|  4> %mdci
|  5>      density none
|  6> end
|  7>
|  8> * xyz 0 6
|  9>  O     -0.24891300     -0.28275400     -0.82737200
| 10>  C     -1.09290800     -1.21169000     -0.65158500
| 11>  C     -2.92514200     -0.20337800      0.52579700
| 12>  C     -2.60472600      0.94637700     -0.11898100
| 13>  C     -3.14036500      1.26542200     -1.48411400
| 14> Fe      1.46020800      0.14414300     -0.00141700
| 15> Cl      2.04727800      2.03023200     -0.92482900
| 16>  C     -1.69340900      1.98826900      0.44850600
| 17> Cl      2.67126100     -1.60140400     -0.53325600
| 18> Cl      1.13674500      0.29537500      2.17161800
| 19>  H     -3.65778000     -0.85080500      0.04603200
| 20>  H     -2.23397700      2.93936100      0.54321200
| 21>  H     -1.27807500      1.72925800      1.42135600
| 22>  H     -0.86191800      2.17598200     -0.24332300
| 23>  H     -3.67068300      2.22585700     -1.45406700
| 24>  H     -2.31887500      1.39021800     -2.20225300
| 25>  H     -3.83480500      0.50768700     -1.85516500
| 26>  C     -2.70142400     -0.46048300      1.99631000
| 27>  H     -3.47089000      0.06121300      2.58044900
| 28>  H     -2.78955500     -1.52327300      2.23528900
| 29>  H     -1.72848300     -0.11322800      2.35125800
| 30>  C     -0.86021300     -2.23677200      0.42175200
| 31>  H     -1.73878300     -2.85705700      0.60266900
| 32>  H     -0.05369900     -2.87859900      0.03737700
| 33>  H     -0.50352800     -1.79128300      1.34976000
| 34>  C     -1.86698600     -1.65907500     -1.86306900
| 35>  H     -1.20920900     -2.36948800     -2.38392300
| 36>  H     -2.78944400     -2.18178500     -1.60664700
| 37>  H     -2.06318300     -0.83322300     -2.54398500
| 38> *
| 39>
| 40>
| 41>                          ****END OF INPUT****

CARTESIAN COORDINATES (ANGSTROEM)
---------------------------------
  O     -0.248913   -0.282754   -0.827372
  C     -1.092908   -1.211690   -0.651585
  C     -2.925142   -0.203378    0.525797
  C     -2.604726    0.946377   -0.118981
  C     -3.140365    1.265422   -1.484114
  Fe     1.460208    0.144143   -0.001417
  Cl     2.047278    2.030232   -0.924829
  C     -1.693409    1.988269    0.448506
  Cl     2.671261   -1.601404   -0.533256
  Cl     1.136745    0.295375    2.171618
  H     -3.657780   -0.850805    0.046032
  H     -2.233977    2.939361    0.543212
  H     -1.278075    1.729258    1.421356
  H     -0.861918    2.175982   -0.243323
  H     -3.670683    2.225857   -1.454067
  H     -2.318875    1.390218   -2.202253
  H     -3.834805    0.507687   -1.855165
  C     -2.701424   -0.460483    1.996310
  H     -3.470890    0.061213    2.580449
  H     -2.789555   -1.523273    2.235289
  H     -1.728483   -0.113228    2.351258
  C     -0.860213   -2.236772    0.421752
  H     -1.738783   -2.857057    0.602669
  H     -0.053699   -2.878599    0.037377
  H     -0.503528   -1.791283    1.349760
  C     -1.866986   -1.659075   -1.863069
  H     -1.209209   -2.369488   -2.383923
  H     -2.789444   -2.181785   -1.606647
  H     -2.063183   -0.833223   -2.543985

ORBITAL ENERGIES
----------------
                 SPIN UP ORBITALS
  NO   OCC          E(Eh)            E(eV)
   0   1.0000    -261.570517     -7117.6956
   1   1.0000    -104.790553     -2851.4959
   2   1.0000    -104.786905     -2851.3966
   3   1.0000    -104.785204     -2851.3504
   4   1.0000     -32.238288      -877.2484
   5   1.0000     -27.714649      -754.1539
   6   1.0000     -27.713699      -754.1281
   7   1.0000     -27.713511      -754.1230
   8   1.0000     -20.605453      -560.7029
   9   1.0000     -11.418414      -310.7108
  10   1.0000     -11.285284      -307.0882
  11   1.0000     -11.273826      -306.7764
  12   1.0000     -11.268264      -306.6250
  13   1.0000     -11.252010      -306.1828
  14   1.0000     -11.251213      -306.1611
  15   1.0000     -11.240209      -305.8616
  16   1.0000     -11.235791      -305.7414
  17   1.0000     -10.517250      -286.1889
  18   1.0000     -10.513580      -286.0891
  19   1.0000     -10.511832      -286.0415
  20   1.0000      -7.984098      -217.2583
  21   1.0000      -7.983312      -217.2370
  22   1.0000      -7.983272      -217.2359
  23   1.0000      -7.980449      -217.1591
  24   1.0000      -7.979678      -217.1381
  25   1.0000      -7.979621      -217.1365
  26   1.0000      -7.978629      -217.1095
  27   1.0000      -7.977955      -217.0912
  28   1.0000      -7.977899      -217.0897
  29   1.0000      -4.593286      -124.9897
  30   1.0000      -3.206327       -87.2486
  31   1.0000      -3.204812       -87.2074
  32   1.0000      -3.204620       -87.2021
  33   1.0000      -1.450243       -39.4631
  34   1.0000      -1.138284       -30.9743
  35   1.0000      -1.096230       -29.8299
  36   1.0000      -1.063031       -28.9265
  37   1.0000      -1.057199       -28.7679
  38   1.0000      -1.054265       -28.6880
  39   1.0000      -1.026163       -27.9233
  40   1.0000      -1.005855       -27.3707
  41   1.0000      -0.966998       -26.3134
  42   1.0000      -0.938195       -25.5296
  43   1.0000      -0.922302       -25.0971
  44   1.0000      -0.922218       -25.0948
  45   1.0000      -0.912012       -24.8171
  46   1.0000      -0.911273       -24.7970
  47   1.0000      -0.904109       -24.6021
  48   1.0000      -0.807338       -21.9688
  49   1.0000      -0.738928       -20.1073
  50   1.0000      -0.704293       -19.1648
  51   1.0000      -0.694825       -18.9071
  52   1.0000      -0.684194       -18.6179
  53   1.0000      -0.662694       -18.0328
  54   1.0000      -0.628894       -17.1131
  55   1.0000      -0.621671       -16.9165
  56   1.0000      -0.605147       -16.4669
  57   1.0000      -0.597839       -16.2680
  58   1.0000      -0.584182       -15.8964
  59   1.0000      -0.575935       -15.6720
  60   1.0000      -0.561598       -15.2819
  61   1.0000      -0.556493       -15.1430
  62   1.0000      -0.547773       -14.9057
  63   1.0000      -0.546860       -14.8808
  64   1.0000      -0.534978       -14.5575
  65   1.0000      -0.529666       -14.4130
  66   1.0000      -0.502075       -13.6622
  67   1.0000      -0.496874       -13.5206
  68   1.0000      -0.473805       -12.8929
  69   1.0000      -0.471720       -12.8362
  70   1.0000      -0.442811       -12.0495
  71   1.0000      -0.437439       -11.9033
  72   1.0000      -0.435595       -11.8531
  73   1.0000      -0.426927       -11.6173
  74   1.0000      -0.425831       -11.5875
  75   1.0000      -0.424620       -11.5545
  76   1.0000      -0.365839        -9.9550
  77   0.0000       0.012235         0.3329
  78   0.0000       0.022743         0.6189
  79   0.0000       0.023637         0.6432
  80   0.0000       0.030241         0.8229
  81   0.0000       0.038820         1.0564

                 SPIN DOWN ORBITALS
  NO   OCC          E(Eh)            E(eV)
   0   1.0000    -261.566948     -7117.5985
   1   1.0000    -104.789098     -2851.4563
   2   1.0000    -104.785371     -2851.3549
   3   1.0000    -104.783677     -2851.3088
   4   1.0000     -32.076266      -872.8396
   5   1.0000     -27.554177      -749.7873
   6   1.0000     -27.554133      -749.7861
   7   1.0000     -27.553966      -749.7815
   8   1.0000     -20.601638      -560.5991
   9   1.0000     -11.418326      -310.7085
  10   1.0000     -11.285233      -307.0868
  11   1.0000     -11.273714      -306.7733
  12   1.0000     -11.268252      -306.6247
  13   1.0000     -11.251992      -306.1823
  14   1.0000     -11.251220      -306.1613
  15   1.0000     -11.240209      -305.8616
  16   1.0000     -11.235815      -305.7421
  17   1.0000     -10.515693      -286.1466
  18   1.0000     -10.511942      -286.0445
  19   1.0000     -10.510208      -285.9973
  20   1.0000      -7.981597      -217.1903
  21   1.0000      -7.980920      -217.1719
  22   1.0000      -7.980874      -217.1706
  23   1.0000      -7.977836      -217.0880
  24   1.0000      -7.977146      -217.0692
  25   1.0000      -7.977057      -217.0668
  26   1.0000      -7.976191      -217.0432
  27   1.0000      -7.975344      -217.0201
  28   1.0000      -7.975259      -217.0178
  29   1.0000      -4.151102      -112.9572
  30   1.0000      -2.672691       -72.7276
  31   1.0000      -2.672678       -72.7273
  32   1.0000      -2.672104       -72.7117
  33   1.0000      -1.440742       -39.2046
  34   1.0000      -1.137876       -30.9632
  35   1.0000      -1.093674       -29.7604
  36   1.0000      -1.047727       -28.5101
  37   1.0000      -1.035305       -28.1721
  38   1.0000      -1.032029       -28.0829
  39   1.0000      -1.025642       -27.9091
  40   1.0000      -1.005121       -27.3507
  41   1.0000      -0.966902       -26.3107
  42   1.0000      -0.904430       -24.6108
  43   1.0000      -0.820710       -22.3327
  44   1.0000      -0.739015       -20.1096
  45   1.0000      -0.706817       -19.2335
  46   1.0000      -0.693896       -18.8819
  47   1.0000      -0.683424       -18.5969
  48   1.0000      -0.662580       -18.0297
  49   1.0000      -0.628843       -17.1117
  50   1.0000      -0.621164       -16.9027
  51   1.0000      -0.604731       -16.4556
  52   1.0000      -0.597743       -16.2654
  53   1.0000      -0.583921       -15.8893
  54   1.0000      -0.574645       -15.6369
  55   1.0000      -0.561121       -15.2689
  56   1.0000      -0.556322       -15.1383
  57   1.0000      -0.547306       -14.8930
  58   1.0000      -0.545221       -14.8362
  59   1.0000      -0.532673       -14.4948
  60   1.0000      -0.519960       -14.1488
  61   1.0000      -0.501977       -13.6595
  62   1.0000      -0.497913       -13.5489
  63   1.0000      -0.481431       -13.1004
  64   1.0000      -0.478945       -13.0328
  65   1.0000      -0.450699       -12.2642
  66   1.0000      -0.447485       -12.1767
  67   1.0000      -0.444734       -12.1018
  68   1.0000      -0.428870       -11.6701
  69   1.0000      -0.425584       -11.5807
  70   1.0000      -0.410463       -11.1693
  71   1.0000      -0.364788        -9.9264
  72   0.0000       0.012220         0.3325
  73   0.0000       0.022718         0.6182
  74   0.0000       0.023611         0.6425
  75   0.0000       0.030138         0.8201
  76   0.0000       0.038624         1.0510

E(0)                                       ...  -3028.451324070
E(0)                                       ...  -3028.451324070
E(CORR)(strong-pairs)                      ...     -2.871072197
E(CORR)(weak-pairs)                        ...     -0.035794565
E(CORR)(corrected)                         ...     -2.906866762
E(TOT)                                     ...  -3031.358190832
E(CCSD(T))                                 ...  -3031.477121388
FINAL SINGLE POINT ENERGY     -3031.477121388220

DIPOLE MOMENT
-------------
                                X             Y             Z
Electronic contribution:     42.74592       4.60088       1.46877
Nuclear contribution   :    -46.41368      -5.74380      -2.07198
                        -----------------------------------------
Total Dipole Moment    :     -3.66777      -1.14291      -0.60321
                        -----------------------------------------
Magnitude (a.u.)       :      3.88878
Magnitude (Debye)      :      9.88449

Rotational constants in cm-1:     0.019018     0.010953     0.010306
Rotational constants in MHz :   570.150269   328.364010   308.961954

                             ****ORCA TERMINATED NORMALLY****
TOTAL RUN TIME: 0 days 18 hours 38 minutes 59 seconds 515 msec
