                         Program Version 4.1.2  - RELEASE  -
|  1> ! aug-cc-pVTZ aug-cc-pVTZ/C DLPNO-CCSD(T1) TightSCF NormalPNO UNO MiniPrint AutoAux
|  2> %pal nproc 10 end
|  3> %maxcore 20000
|  4> %mdci
|  5>      density none
|  6> end
|  7>
|  8> * xyz 0 6
|  9>  O     -0.35958700     -0.04667200     -0.38427600
| 10>  C     -1.28899100     -1.05290300     -0.27398700
| 11>  C     -2.49521400     -0.49041000      0.61406100
| 12>  C     -2.85920900      0.75957000     -0.03167600
| 13>  C     -3.94384700      0.79586100     -1.04568100
| 14> Fe      1.46907600      0.17004600     -0.06934900
| 15> Cl      1.74333900      2.26204800     -0.72730300
| 16>  C     -2.06451000      1.92927900      0.17536000
| 17> Cl      2.53139100     -1.36402300     -1.23485000
| 18> Cl      1.75450000     -0.03912000      2.12121600
| 19>  H     -3.30526500     -1.21787000      0.49898700
| 20>  H     -2.38639000      2.83366200     -0.33869800
| 21>  H     -1.72044500      2.10436900      1.19635600
| 22>  H     -1.11368400      1.48506500     -0.30423200
| 23>  H     -4.80541700      1.28871700     -0.56620800
| 24>  H     -3.67414400      1.42128500     -1.90395100
| 25>  H     -4.26214500     -0.19353700     -1.37552900
| 26>  C     -2.09036200     -0.34160500      2.09223000
| 27>  H     -2.81108300      0.28545400      2.62635000
| 28>  H     -2.08107800     -1.32021100      2.57485400
| 29>  H     -1.09368900      0.09316600      2.19560400
| 30>  C     -0.72348100     -2.28716300      0.45666100
| 31>  H     -1.50625700     -3.03061900      0.63974000
| 32>  H      0.04063000     -2.73198400     -0.18720200
| 33>  H     -0.24856800     -2.01578600      1.39964700
| 34>  C     -1.75359200     -1.46712300     -1.68093700
| 35>  H     -0.90196200     -1.92380600     -2.19207200
| 36>  H     -2.57127800     -2.19611300     -1.64938200
| 37>  H     -2.06017000     -0.60404900     -2.27722500
| 38> *
| 39>
| 40>
| 41>                          ****END OF INPUT****

CARTESIAN COORDINATES (ANGSTROEM)
---------------------------------
  O     -0.359587   -0.046672   -0.384276
  C     -1.288991   -1.052903   -0.273987
  C     -2.495214   -0.490410    0.614061
  C     -2.859209    0.759570   -0.031676
  C     -3.943847    0.795861   -1.045681
  Fe     1.469076    0.170046   -0.069349
  Cl     1.743339    2.262048   -0.727303
  C     -2.064510    1.929279    0.175360
  Cl     2.531391   -1.364023   -1.234850
  Cl     1.754500   -0.039120    2.121216
  H     -3.305265   -1.217870    0.498987
  H     -2.386390    2.833662   -0.338698
  H     -1.720445    2.104369    1.196356
  H     -1.113684    1.485065   -0.304232
  H     -4.805417    1.288717   -0.566208
  H     -3.674144    1.421285   -1.903951
  H     -4.262145   -0.193537   -1.375529
  C     -2.090362   -0.341605    2.092230
  H     -2.811083    0.285454    2.626350
  H     -2.081078   -1.320211    2.574854
  H     -1.093689    0.093166    2.195604
  C     -0.723481   -2.287163    0.456661
  H     -1.506257   -3.030619    0.639740
  H      0.040630   -2.731984   -0.187202
  H     -0.248568   -2.015786    1.399647
  C     -1.753592   -1.467123   -1.680937
  H     -0.901962   -1.923806   -2.192072
  H     -2.571278   -2.196113   -1.649382
  H     -2.060170   -0.604049   -2.277225

ORBITAL ENERGIES
----------------
                 SPIN UP ORBITALS
  NO   OCC          E(Eh)            E(eV)
   0   1.0000    -261.539703     -7116.8571
   1   1.0000    -104.767710     -2850.8743
   2   1.0000    -104.767055     -2850.8565
   3   1.0000    -104.766067     -2850.8296
   4   1.0000     -32.207645      -876.4146
   5   1.0000     -27.683499      -753.3063
   6   1.0000     -27.683378      -753.3030
   7   1.0000     -27.683112      -753.2958
   8   1.0000     -20.536354      -558.8226
   9   1.0000     -11.402025      -310.2649
  10   1.0000     -11.335082      -308.4433
  11   1.0000     -11.307811      -307.7012
  12   1.0000     -11.292584      -307.2868
  13   1.0000     -11.276001      -306.8356
  14   1.0000     -11.255986      -306.2910
  15   1.0000     -11.241876      -305.9070
  16   1.0000     -11.231067      -305.6129
  17   1.0000     -10.494279      -285.5638
  18   1.0000     -10.493607      -285.5456
  19   1.0000     -10.492665      -285.5199
  20   1.0000      -7.961161      -216.6342
  21   1.0000      -7.960448      -216.6148
  22   1.0000      -7.960332      -216.6116
  23   1.0000      -7.960261      -216.6097
  24   1.0000      -7.959699      -216.5944
  25   1.0000      -7.959609      -216.5920
  26   1.0000      -7.959473      -216.5883
  27   1.0000      -7.958764      -216.5690
  28   1.0000      -7.958702      -216.5673
  29   1.0000      -4.563127      -124.1690
  30   1.0000      -3.175597       -86.4124
  31   1.0000      -3.175308       -86.4045
  32   1.0000      -3.174745       -86.3892
  33   1.0000      -1.366509       -37.1846
  34   1.0000      -1.206673       -32.8352
  35   1.0000      -1.096542       -29.8384
  36   1.0000      -1.046852       -28.4863
  37   1.0000      -1.038939       -28.2710
  38   1.0000      -1.033525       -28.1237
  39   1.0000      -1.032347       -28.0916
  40   1.0000      -1.021386       -27.7933
  41   1.0000      -0.965480       -26.2720
  42   1.0000      -0.933109       -25.3912
  43   1.0000      -0.903674       -24.5902
  44   1.0000      -0.892788       -24.2940
  45   1.0000      -0.892665       -24.2906
  46   1.0000      -0.884466       -24.0675
  47   1.0000      -0.883995       -24.0547
  48   1.0000      -0.808702       -22.0059
  49   1.0000      -0.769737       -20.9456
  50   1.0000      -0.719361       -19.5748
  51   1.0000      -0.702212       -19.1082
  52   1.0000      -0.678981       -18.4760
  53   1.0000      -0.650037       -17.6884
  54   1.0000      -0.647752       -17.6262
  55   1.0000      -0.634009       -17.2523
  56   1.0000      -0.613811       -16.7026
  57   1.0000      -0.597104       -16.2480
  58   1.0000      -0.591181       -16.0869
  59   1.0000      -0.582491       -15.8504
  60   1.0000      -0.570510       -15.5244
  61   1.0000      -0.561695       -15.2845
  62   1.0000      -0.552378       -15.0310
  63   1.0000      -0.537482       -14.6256
  64   1.0000      -0.527517       -14.3545
  65   1.0000      -0.507376       -13.8064
  66   1.0000      -0.498824       -13.5737
  67   1.0000      -0.466499       -12.6941
  68   1.0000      -0.459334       -12.4991
  69   1.0000      -0.439976       -11.9724
  70   1.0000      -0.435119       -11.8402
  71   1.0000      -0.418309       -11.3828
  72   1.0000      -0.414278       -11.2731
  73   1.0000      -0.411625       -11.2009
  74   1.0000      -0.407300       -11.0832
  75   1.0000      -0.405766       -11.0415
  76   1.0000      -0.405208       -11.0263
  77   0.0000       0.000791         0.0215
  78   0.0000       0.002545         0.0692
  79   0.0000       0.017306         0.4709
  80   0.0000       0.017906         0.4872
  81   0.0000       0.027372         0.7448

                 SPIN DOWN ORBITALS
  NO   OCC          E(Eh)            E(eV)
   0   1.0000    -261.536156     -7116.7606
   1   1.0000    -104.766358     -2850.8375
   2   1.0000    -104.765707     -2850.8198
   3   1.0000    -104.764662     -2850.7914
   4   1.0000     -32.045603      -872.0052
   5   1.0000     -27.523692      -748.9577
   6   1.0000     -27.523496      -748.9524
   7   1.0000     -27.523015      -748.9393
   8   1.0000     -20.530536      -558.6643
   9   1.0000     -11.402030      -310.2650
  10   1.0000     -11.334925      -308.4390
  11   1.0000     -11.307813      -307.7012
  12   1.0000     -11.292470      -307.2837
  13   1.0000     -11.275995      -306.8354
  14   1.0000     -11.256005      -306.2915
  15   1.0000     -11.241792      -305.9047
  16   1.0000     -11.231032      -305.6119
  17   1.0000     -10.492824      -285.5242
  18   1.0000     -10.492160      -285.5062
  19   1.0000     -10.491160      -285.4790
  20   1.0000      -7.958710      -216.5675
  21   1.0000      -7.958188      -216.5533
  22   1.0000      -7.958106      -216.5511
  23   1.0000      -7.958101      -216.5509
  24   1.0000      -7.957505      -216.5347
  25   1.0000      -7.957402      -216.5319
  26   1.0000      -7.957141      -216.5248
  27   1.0000      -7.956414      -216.5050
  28   1.0000      -7.956349      -216.5033
  29   1.0000      -4.120936      -112.1364
  30   1.0000      -2.642879       -71.9164
  31   1.0000      -2.642717       -71.9120
  32   1.0000      -2.641822       -71.8876
  33   1.0000      -1.351939       -36.7881
  34   1.0000      -1.205305       -32.7980
  35   1.0000      -1.094011       -29.7695
  36   1.0000      -1.046273       -28.4705
  37   1.0000      -1.024865       -27.8880
  38   1.0000      -1.019969       -27.7548
  39   1.0000      -1.013396       -27.5759
  40   1.0000      -1.012505       -27.5517
  41   1.0000      -0.964765       -26.2526
  42   1.0000      -0.932443       -25.3731
  43   1.0000      -0.813247       -22.1296
  44   1.0000      -0.776032       -21.1169
  45   1.0000      -0.720043       -19.5934
  46   1.0000      -0.701773       -19.0962
  47   1.0000      -0.679202       -18.4820
  48   1.0000      -0.649119       -17.6634
  49   1.0000      -0.648964       -17.6592
  50   1.0000      -0.633680       -17.2433
  51   1.0000      -0.613882       -16.7046
  52   1.0000      -0.596933       -16.2434
  53   1.0000      -0.591108       -16.0849
  54   1.0000      -0.580921       -15.8077
  55   1.0000      -0.569057       -15.4848
  56   1.0000      -0.561361       -15.2754
  57   1.0000      -0.551973       -15.0199
  58   1.0000      -0.537202       -14.6180
  59   1.0000      -0.524867       -14.2823
  60   1.0000      -0.504669       -13.7328
  61   1.0000      -0.494510       -13.4563
  62   1.0000      -0.462534       -12.5862
  63   1.0000      -0.460494       -12.5307
  64   1.0000      -0.446239       -12.1428
  65   1.0000      -0.441439       -12.0122
  66   1.0000      -0.429060       -11.6753
  67   1.0000      -0.426397       -11.6028
  68   1.0000      -0.424998       -11.5648
  69   1.0000      -0.404997       -11.0205
  70   1.0000      -0.398880       -10.8541
  71   1.0000      -0.391980       -10.6663
  72   0.0000       0.000786         0.0214
  73   0.0000       0.002465         0.0671
  74   0.0000       0.017297         0.4707
  75   0.0000       0.017888         0.4868
  76   0.0000       0.027392         0.7454

E(0)                                       ...  -3028.420886650
E(0)                                       ...  -3028.420886650
E(CORR)(strong-pairs)                      ...     -2.875781399
E(CORR)(weak-pairs)                        ...     -0.035412836
E(CORR)(corrected)                         ...     -2.911194235
E(TOT)                                     ...  -3031.332080885
E(CCSD(T))                                 ...  -3031.450776177
FINAL SINGLE POINT ENERGY     -3031.450776176846

DIPOLE MOMENT
-------------
                                X             Y             Z
Electronic contribution:     41.16094       7.33167      -0.45107
Nuclear contribution   :    -46.97503      -7.32513       0.35529
                        -----------------------------------------
Total Dipole Moment    :     -5.81408       0.00654      -0.09577
                        -----------------------------------------
Magnitude (a.u.)       :      5.81487
Magnitude (Debye)      :     14.78024

Rotational constants in cm-1:     0.019822     0.010713     0.010184
Rotational constants in MHz :   594.242143   321.175916   305.314257

                             ****ORCA TERMINATED NORMALLY****
TOTAL RUN TIME: 0 days 19 hours 49 minutes 42 seconds 46 msec
