                         Program Version 4.1.2  - RELEASE  -
|  1> ! aug-cc-pVTZ aug-cc-pVTZ/C DLPNO-CCSD(T1) TightSCF NormalPNO UNO MiniPrint AutoAux
|  2> %pal nproc 10 end
|  3> %maxcore 20000
|  4> %mdci
|  5>      density none
|  6> end
|  7>
|  8> * xyz 0 6
|  9>  O     -0.29165800     -0.19826700     -0.76229400
| 10>  C     -1.14800800     -1.13071200     -0.63326000
| 11>  C     -3.03656300     -0.10900000      0.32171000
| 12>  C     -2.45423700      1.01536000     -0.16825700
| 13>  C     -2.69318200      1.48802000     -1.57024900
| 14> Fe      1.44840000      0.10632500      0.03048400
| 15> Cl      2.08626900      2.01726000     -0.81116200
| 16>  C     -1.57757500      1.91404100      0.64572200
| 17> Cl      2.56688700     -1.65914100     -0.63442300
| 18> Cl      1.20919200      0.14314400      2.22143200
| 19>  H     -3.74467200     -0.62272900     -0.32590900
| 20>  H     -2.15994100      2.80003400      0.93624300
| 21>  H     -1.19354500      1.45259100      1.55464100
| 22>  H     -0.73210400      2.27643200      0.05157700
| 23>  H     -3.04191100      2.52816700     -1.54680300
| 24>  H     -1.75109900      1.48939200     -2.13320000
| 25>  H     -3.43944300      0.89159700     -2.10064000
| 26>  C     -3.11293900     -0.48081600      1.78072600
| 27>  H     -3.96733700      0.03030100      2.24410100
| 28>  H     -3.27418700     -1.55362600      1.91695800
| 29>  H     -2.22033500     -0.19698000      2.34323700
| 30>  C     -0.97916700     -2.14150500      0.46500400
| 31>  H     -1.85574000     -2.77886000      0.58403500
| 32>  H     -0.13312600     -2.77062300      0.15018400
| 33>  H     -0.70212900     -1.68010300      1.41242500
| 34>  C     -1.82045100     -1.60819900     -1.89374000
| 35>  H     -1.08983000     -2.27370500     -2.37554500
| 36>  H     -2.72591100     -2.18394100     -1.69674700
| 37>  H     -2.02101000     -0.79089400     -2.58413700
| 38> *
| 39>
| 40>
| 41>                          ****END OF INPUT****

CARTESIAN COORDINATES (ANGSTROEM)
---------------------------------
  O     -0.291658   -0.198267   -0.762294
  C     -1.148008   -1.130712   -0.633260
  C     -3.036563   -0.109000    0.321710
  C     -2.454237    1.015360   -0.168257
  C     -2.693182    1.488020   -1.570249
  Fe     1.448400    0.106325    0.030484
  Cl     2.086269    2.017260   -0.811162
  C     -1.577575    1.914041    0.645722
  Cl     2.566887   -1.659141   -0.634423
  Cl     1.209192    0.143144    2.221432
  H     -3.744672   -0.622729   -0.325909
  H     -2.159941    2.800034    0.936243
  H     -1.193545    1.452591    1.554641
  H     -0.732104    2.276432    0.051577
  H     -3.041911    2.528167   -1.546803
  H     -1.751099    1.489392   -2.133200
  H     -3.439443    0.891597   -2.100640
  C     -3.112939   -0.480816    1.780726
  H     -3.967337    0.030301    2.244101
  H     -3.274187   -1.553626    1.916958
  H     -2.220335   -0.196980    2.343237
  C     -0.979167   -2.141505    0.465004
  H     -1.855740   -2.778860    0.584035
  H     -0.133126   -2.770623    0.150184
  H     -0.702129   -1.680103    1.412425
  C     -1.820451   -1.608199   -1.893740
  H     -1.089830   -2.273705   -2.375545
  H     -2.725911   -2.183941   -1.696747
  H     -2.021010   -0.790894   -2.584137

ORBITAL ENERGIES
----------------
                 SPIN UP ORBITALS
  NO   OCC          E(Eh)            E(eV)
   0   1.0000    -261.568902     -7117.6517
   1   1.0000    -104.788798     -2851.4481
   2   1.0000    -104.785720     -2851.3644
   3   1.0000    -104.784672     -2851.3359
   4   1.0000     -32.236678      -877.2046
   5   1.0000     -27.712996      -754.1090
   6   1.0000     -27.712110      -754.0849
   7   1.0000     -27.711945      -754.0804
   8   1.0000     -20.597381      -560.4832
   9   1.0000     -11.417831      -310.6950
  10   1.0000     -11.292472      -307.2838
  11   1.0000     -11.272655      -306.7445
  12   1.0000     -11.266328      -306.5724
  13   1.0000     -11.254331      -306.2459
  14   1.0000     -11.250837      -306.1508
  15   1.0000     -11.245969      -306.0184
  16   1.0000     -11.238367      -305.8115
  17   1.0000     -10.515481      -286.1408
  18   1.0000     -10.512373      -286.0562
  19   1.0000     -10.511279      -286.0264
  20   1.0000      -7.982333      -217.2103
  21   1.0000      -7.981542      -217.1888
  22   1.0000      -7.981501      -217.1877
  23   1.0000      -7.979250      -217.1264
  24   1.0000      -7.978467      -217.1051
  25   1.0000      -7.978398      -217.1033
  26   1.0000      -7.978076      -217.0945
  27   1.0000      -7.977398      -217.0760
  28   1.0000      -7.977341      -217.0745
  29   1.0000      -4.591717      -124.9470
  30   1.0000      -3.204714       -87.2047
  31   1.0000      -3.203302       -87.1663
  32   1.0000      -3.203074       -87.1601
  33   1.0000      -1.445735       -39.3405
  34   1.0000      -1.142832       -31.0980
  35   1.0000      -1.095657       -29.8143
  36   1.0000      -1.061271       -28.8786
  37   1.0000      -1.055675       -28.7264
  38   1.0000      -1.053218       -28.6595
  39   1.0000      -1.028734       -27.9933
  40   1.0000      -1.005604       -27.3639
  41   1.0000      -0.969472       -26.3807
  42   1.0000      -0.936716       -25.4893
  43   1.0000      -0.920817       -25.0567
  44   1.0000      -0.920715       -25.0539
  45   1.0000      -0.910551       -24.7773
  46   1.0000      -0.910181       -24.7673
  47   1.0000      -0.908192       -24.7132
  48   1.0000      -0.804607       -21.8945
  49   1.0000      -0.741432       -20.1754
  50   1.0000      -0.702135       -19.1061
  51   1.0000      -0.694487       -18.8980
  52   1.0000      -0.686646       -18.6846
  53   1.0000      -0.664849       -18.0915
  54   1.0000      -0.631880       -17.1943
  55   1.0000      -0.620961       -16.8972
  56   1.0000      -0.604300       -16.4438
  57   1.0000      -0.598805       -16.2943
  58   1.0000      -0.583730       -15.8841
  59   1.0000      -0.575949       -15.6724
  60   1.0000      -0.563714       -15.3394
  61   1.0000      -0.558136       -15.1876
  62   1.0000      -0.551375       -15.0037
  63   1.0000      -0.547541       -14.8994
  64   1.0000      -0.536978       -14.6119
  65   1.0000      -0.527845       -14.3634
  66   1.0000      -0.505046       -13.7430
  67   1.0000      -0.494885       -13.4665
  68   1.0000      -0.472923       -12.8689
  69   1.0000      -0.469667       -12.7803
  70   1.0000      -0.441403       -12.0112
  71   1.0000      -0.436112       -11.8672
  72   1.0000      -0.434586       -11.8257
  73   1.0000      -0.425867       -11.5884
  74   1.0000      -0.424612       -11.5543
  75   1.0000      -0.423870       -11.5341
  76   1.0000      -0.367217        -9.9925
  77   0.0000       0.012208         0.3322
  78   0.0000       0.022693         0.6175
  79   0.0000       0.023351         0.6354
  80   0.0000       0.030363         0.8262
  81   0.0000       0.038866         1.0576

                 SPIN DOWN ORBITALS
  NO   OCC          E(Eh)            E(eV)
   0   1.0000    -261.565336     -7117.5546
   1   1.0000    -104.787350     -2851.4088
   2   1.0000    -104.784203     -2851.3231
   3   1.0000    -104.783169     -2851.2950
   4   1.0000     -32.074648      -872.7955
   5   1.0000     -27.552568      -749.7435
   6   1.0000     -27.552527      -749.7424
   7   1.0000     -27.552317      -749.7367
   8   1.0000     -20.593455      -560.3764
   9   1.0000     -11.417722      -310.6920
  10   1.0000     -11.292431      -307.2827
  11   1.0000     -11.272545      -306.7415
  12   1.0000     -11.266318      -306.5721
  13   1.0000     -11.254253      -306.2438
  14   1.0000     -11.250839      -306.1509
  15   1.0000     -11.245977      -306.0186
  16   1.0000     -11.238394      -305.8123
  17   1.0000     -10.513932      -286.0986
  18   1.0000     -10.510752      -286.0121
  19   1.0000     -10.509679      -285.9829
  20   1.0000      -7.979831      -217.1422
  21   1.0000      -7.979174      -217.1244
  22   1.0000      -7.979118      -217.1228
  23   1.0000      -7.976637      -217.0553
  24   1.0000      -7.975977      -217.0374
  25   1.0000      -7.975884      -217.0348
  26   1.0000      -7.975664      -217.0289
  27   1.0000      -7.974832      -217.0062
  28   1.0000      -7.974749      -217.0039
  29   1.0000      -4.149493      -112.9135
  30   1.0000      -2.671089       -72.6840
  31   1.0000      -2.671072       -72.6836
  32   1.0000      -2.670494       -72.6678
  33   1.0000      -1.435872       -39.0721
  34   1.0000      -1.142328       -31.0843
  35   1.0000      -1.093105       -29.7449
  36   1.0000      -1.046154       -28.4673
  37   1.0000      -1.033839       -28.1322
  38   1.0000      -1.031334       -28.0640
  39   1.0000      -1.028281       -27.9810
  40   1.0000      -1.004778       -27.3414
  41   1.0000      -0.969360       -26.3776
  42   1.0000      -0.908841       -24.7308
  43   1.0000      -0.817830       -22.2543
  44   1.0000      -0.741502       -20.1773
  45   1.0000      -0.704889       -19.1810
  46   1.0000      -0.693938       -18.8830
  47   1.0000      -0.685416       -18.6511
  48   1.0000      -0.664698       -18.0874
  49   1.0000      -0.631792       -17.1919
  50   1.0000      -0.620463       -16.8837
  51   1.0000      -0.603907       -16.4331
  52   1.0000      -0.598751       -16.2928
  53   1.0000      -0.583447       -15.8764
  54   1.0000      -0.575337       -15.6557
  55   1.0000      -0.563257       -15.3270
  56   1.0000      -0.558012       -15.1843
  57   1.0000      -0.549252       -14.9459
  58   1.0000      -0.546791       -14.8789
  59   1.0000      -0.535882       -14.5821
  60   1.0000      -0.517522       -14.0825
  61   1.0000      -0.504961       -13.7407
  62   1.0000      -0.495119       -13.4729
  63   1.0000      -0.479677       -13.0527
  64   1.0000      -0.477981       -13.0065
  65   1.0000      -0.449115       -12.2210
  66   1.0000      -0.446167       -12.1408
  67   1.0000      -0.443729       -12.0745
  68   1.0000      -0.427923       -11.6444
  69   1.0000      -0.424712       -11.5570
  70   1.0000      -0.409485       -11.1426
  71   1.0000      -0.365986        -9.9590
  72   0.0000       0.012196         0.3319
  73   0.0000       0.022669         0.6168
  74   0.0000       0.023331         0.6349
  75   0.0000       0.030320         0.8251
  76   0.0000       0.038724         1.0537

E(0)                                       ...  -3028.444323873
E(0)                                       ...  -3028.444323873
E(CORR)(strong-pairs)                      ...     -2.871861643
E(CORR)(weak-pairs)                        ...     -0.035925263
E(CORR)(corrected)                         ...     -2.907786906
E(TOT)                                     ...  -3031.352110778
E(CCSD(T))                                 ...  -3031.471217686
FINAL SINGLE POINT ENERGY     -3031.471217686250

DIPOLE MOMENT
-------------
                                X             Y             Z
Electronic contribution:     42.46384       3.42702       2.08718
Nuclear contribution   :    -46.23547      -4.34553      -2.70579
                        -----------------------------------------
Total Dipole Moment    :     -3.77163      -0.91851      -0.61861
                        -----------------------------------------
Magnitude (a.u.)       :      3.93084
Magnitude (Debye)      :      9.99141

Rotational constants in cm-1:     0.019128     0.011082     0.010435
Rotational constants in MHz :   573.438747   332.219365   312.832332

                             ****ORCA TERMINATED NORMALLY****
TOTAL RUN TIME: 0 days 18 hours 28 minutes 9 seconds 415 msec
