                         Program Version 4.1.2  - RELEASE  -
|  1> ! aug-cc-pVTZ aug-cc-pVTZ/C DLPNO-CCSD(T1) TightSCF NormalPNO UNO MiniPrint AutoAux
|  2> %pal nproc 10 end
|  3> %maxcore 20000
|  4> %mdci
|  5>      density none
|  6> end
|  7>
|  8> * xyz 0 6
|  9>  O     -0.25168000     -0.38903400     -0.57178700
| 10>  C     -1.26302200     -1.16937300     -0.23997300
| 11>  C     -2.36500800     -0.20036900      0.88659800
| 12>  C     -3.00486000      0.66665900     -0.01902000
| 13>  C     -4.33558600      0.34677800     -0.60038800
| 14> Fe      1.50174900      0.12983400     -0.10553700
| 15> Cl      2.77947400     -0.58157100     -1.73674300
| 16>  C     -2.29979000      1.86946800     -0.50412000
| 17> Cl      2.06413100     -0.74391400      1.84101900
| 18> Cl      1.34585800      2.33679200      0.02457900
| 19>  H     -3.02379400     -0.98428600      1.26324000
| 20>  H     -2.85632300      2.42030600     -1.26443200
| 21>  H     -2.02027100      2.54079800      0.31605800
| 22>  H     -1.32786700      1.52957100     -0.91016000
| 23>  H     -5.04221000      1.11670300     -0.25444100
| 24>  H     -4.32201500      0.42177800     -1.69456700
| 25>  H     -4.71534700     -0.63037700     -0.29662600
| 26>  C     -1.46154900      0.40849200      1.95332500
| 27>  H     -2.07219100      0.99867000      2.64577600
| 28>  H     -0.95022900     -0.35917700      2.53330700
| 29>  H     -0.70406900      1.06493400      1.52519500
| 30>  C     -0.91033000     -2.35526900      0.66619100
| 31>  H     -1.79987400     -2.91513800      0.96582900
| 32>  H     -0.27041500     -3.01492900      0.06860200
| 33>  H     -0.33752800     -2.05664200      1.54218000
| 34>  C     -2.05141100     -1.62305000     -1.46819800
| 35>  H     -1.42553900     -2.34128500     -2.00812200
| 36>  H     -2.99060400     -2.11791900     -1.20476700
| 37>  H     -2.24530000     -0.78867200     -2.14581800
| 38> *
| 39>
| 40>
| 41>                          ****END OF INPUT****

CARTESIAN COORDINATES (ANGSTROEM)
---------------------------------
  O     -0.251680   -0.389034   -0.571787
  C     -1.263022   -1.169373   -0.239973
  C     -2.365008   -0.200369    0.886598
  C     -3.004860    0.666659   -0.019020
  C     -4.335586    0.346778   -0.600388
  Fe     1.501749    0.129834   -0.105537
  Cl     2.779474   -0.581571   -1.736743
  C     -2.299790    1.869468   -0.504120
  Cl     2.064131   -0.743914    1.841019
  Cl     1.345858    2.336792    0.024579
  H     -3.023794   -0.984286    1.263240
  H     -2.856323    2.420306   -1.264432
  H     -2.020271    2.540798    0.316058
  H     -1.327867    1.529571   -0.910160
  H     -5.042210    1.116703   -0.254441
  H     -4.322015    0.421778   -1.694567
  H     -4.715347   -0.630377   -0.296626
  C     -1.461549    0.408492    1.953325
  H     -2.072191    0.998670    2.645776
  H     -0.950229   -0.359177    2.533307
  H     -0.704069    1.064934    1.525195
  C     -0.910330   -2.355269    0.666191
  H     -1.799874   -2.915138    0.965829
  H     -0.270415   -3.014929    0.068602
  H     -0.337528   -2.056642    1.542180
  C     -2.051411   -1.623050   -1.468198
  H     -1.425539   -2.341285   -2.008122
  H     -2.990604   -2.117919   -1.204767
  H     -2.245300   -0.788672   -2.145818

ORBITAL ENERGIES
----------------
                 SPIN UP ORBITALS
  NO   OCC          E(Eh)            E(eV)
   0   1.0000    -261.545757     -7117.0219
   1   1.0000    -104.771145     -2850.9678
   2   1.0000    -104.770719     -2850.9562
   3   1.0000    -104.763799     -2850.7679
   4   1.0000     -32.213558      -876.5755
   5   1.0000     -27.689562      -753.4713
   6   1.0000     -27.689241      -753.4626
   7   1.0000     -27.688996      -753.4559
   8   1.0000     -20.551796      -559.2428
   9   1.0000     -11.378466      -309.6238
  10   1.0000     -11.372867      -309.4715
  11   1.0000     -11.298889      -307.4584
  12   1.0000     -11.284635      -307.0705
  13   1.0000     -11.273520      -306.7681
  14   1.0000     -11.254580      -306.2527
  15   1.0000     -11.248950      -306.0995
  16   1.0000     -11.244899      -305.9893
  17   1.0000     -10.497761      -285.6586
  18   1.0000     -10.497454      -285.6502
  19   1.0000     -10.490414      -285.4587
  20   1.0000      -7.964645      -216.7290
  21   1.0000      -7.964308      -216.7198
  22   1.0000      -7.963828      -216.7068
  23   1.0000      -7.963739      -216.7044
  24   1.0000      -7.963516      -216.6983
  25   1.0000      -7.963490      -216.6976
  26   1.0000      -7.957269      -216.5283
  27   1.0000      -7.956543      -216.5085
  28   1.0000      -7.956430      -216.5055
  29   1.0000      -4.568848      -124.3247
  30   1.0000      -3.181515       -86.5734
  31   1.0000      -3.180791       -86.5537
  32   1.0000      -3.180492       -86.5456
  33   1.0000      -1.387149       -37.7462
  34   1.0000      -1.191340       -32.4180
  35   1.0000      -1.079870       -29.3848
  36   1.0000      -1.048495       -28.5310
  37   1.0000      -1.042325       -28.3631
  38   1.0000      -1.038085       -28.2477
  39   1.0000      -1.032415       -28.0934
  40   1.0000      -1.015319       -27.6282
  41   1.0000      -0.976334       -26.5674
  42   1.0000      -0.928882       -25.2762
  43   1.0000      -0.913447       -24.8562
  44   1.0000      -0.898436       -24.4477
  45   1.0000      -0.897727       -24.4284
  46   1.0000      -0.889517       -24.2050
  47   1.0000      -0.888370       -24.1738
  48   1.0000      -0.793977       -21.6052
  49   1.0000      -0.769150       -20.9296
  50   1.0000      -0.704618       -19.1736
  51   1.0000      -0.692855       -18.8535
  52   1.0000      -0.669089       -18.2068
  53   1.0000      -0.663853       -18.0643
  54   1.0000      -0.652111       -17.7449
  55   1.0000      -0.633501       -17.2384
  56   1.0000      -0.604383       -16.4461
  57   1.0000      -0.600092       -16.3293
  58   1.0000      -0.590709       -16.0740
  59   1.0000      -0.580036       -15.7836
  60   1.0000      -0.579761       -15.7761
  61   1.0000      -0.564998       -15.3744
  62   1.0000      -0.558955       -15.2099
  63   1.0000      -0.542798       -14.7703
  64   1.0000      -0.533564       -14.5190
  65   1.0000      -0.525588       -14.3020
  66   1.0000      -0.506317       -13.7776
  67   1.0000      -0.467828       -12.7302
  68   1.0000      -0.458005       -12.4630
  69   1.0000      -0.446921       -12.1613
  70   1.0000      -0.423821       -11.5328
  71   1.0000      -0.419143       -11.4055
  72   1.0000      -0.418459       -11.3868
  73   1.0000      -0.409472       -11.1423
  74   1.0000      -0.407529       -11.0894
  75   1.0000      -0.404600       -11.0097
  76   1.0000      -0.399811       -10.8794
  77   0.0000       0.002698         0.0734
  78   0.0000       0.004818         0.1311
  79   0.0000       0.017984         0.4894
  80   0.0000       0.019028         0.5178
  81   0.0000       0.027694         0.7536

                 SPIN DOWN ORBITALS
  NO   OCC          E(Eh)            E(eV)
   0   1.0000    -261.542220     -7116.9256
   1   1.0000    -104.769799     -2850.9312
   2   1.0000    -104.769299     -2850.9176
   3   1.0000    -104.762316     -2850.7275
   4   1.0000     -32.051430      -872.1637
   5   1.0000     -27.529505      -749.1159
   6   1.0000     -27.529378      -749.1125
   7   1.0000     -27.528904      -749.0996
   8   1.0000     -20.546675      -559.1035
   9   1.0000     -11.378351      -309.6207
  10   1.0000     -11.372782      -309.4691
  11   1.0000     -11.298907      -307.4589
  12   1.0000     -11.284541      -307.0680
  13   1.0000     -11.273533      -306.7684
  14   1.0000     -11.254461      -306.2495
  15   1.0000     -11.248987      -306.1005
  16   1.0000     -11.244863      -305.9883
  17   1.0000     -10.496314      -285.6192
  18   1.0000     -10.495930      -285.6088
  19   1.0000     -10.488829      -285.4155
  20   1.0000      -7.962204      -216.6626
  21   1.0000      -7.961849      -216.6529
  22   1.0000      -7.961689      -216.6486
  23   1.0000      -7.961593      -216.6460
  24   1.0000      -7.961201      -216.6353
  25   1.0000      -7.961160      -216.6342
  26   1.0000      -7.954762      -216.4601
  27   1.0000      -7.954062      -216.4410
  28   1.0000      -7.953967      -216.4385
  29   1.0000      -4.126396      -112.2850
  30   1.0000      -2.648350       -72.0653
  31   1.0000      -2.648058       -72.0573
  32   1.0000      -2.647158       -72.0328
  33   1.0000      -1.374089       -37.3909
  34   1.0000      -1.190540       -32.3962
  35   1.0000      -1.077031       -29.3075
  36   1.0000      -1.047583       -28.5062
  37   1.0000      -1.027982       -27.9728
  38   1.0000      -1.018248       -27.7079
  39   1.0000      -1.014676       -27.6107
  40   1.0000      -1.011043       -27.5119
  41   1.0000      -0.975680       -26.5496
  42   1.0000      -0.928442       -25.2642
  43   1.0000      -0.803965       -21.8770
  44   1.0000      -0.774029       -21.0624
  45   1.0000      -0.705013       -19.1844
  46   1.0000      -0.692139       -18.8341
  47   1.0000      -0.668776       -18.1983
  48   1.0000      -0.667125       -18.1534
  49   1.0000      -0.650447       -17.6996
  50   1.0000      -0.632859       -17.2210
  51   1.0000      -0.604173       -16.4404
  52   1.0000      -0.599881       -16.3236
  53   1.0000      -0.590028       -16.0555
  54   1.0000      -0.579978       -15.7820
  55   1.0000      -0.579446       -15.7675
  56   1.0000      -0.564457       -15.3597
  57   1.0000      -0.558999       -15.2111
  58   1.0000      -0.541613       -14.7380
  59   1.0000      -0.533502       -14.5173
  60   1.0000      -0.520440       -14.1619
  61   1.0000      -0.498088       -13.5537
  62   1.0000      -0.465751       -12.6737
  63   1.0000      -0.460290       -12.5251
  64   1.0000      -0.456129       -12.4119
  65   1.0000      -0.432564       -11.7707
  66   1.0000      -0.429093       -11.6762
  67   1.0000      -0.428624       -11.6634
  68   1.0000      -0.418876       -11.3982
  69   1.0000      -0.406915       -11.0727
  70   1.0000      -0.392832       -10.6895
  71   1.0000      -0.390766       -10.6333
  72   0.0000       0.002650         0.0721
  73   0.0000       0.004499         0.1224
  74   0.0000       0.017973         0.4891
  75   0.0000       0.018980         0.5165
  76   0.0000       0.027703         0.7538

E(0)                                       ...  -3028.425289935
E(0)                                       ...  -3028.425289935
E(CORR)(strong-pairs)                      ...     -2.876076393
E(CORR)(weak-pairs)                        ...     -0.034810202
E(CORR)(corrected)                         ...     -2.910886596
E(TOT)                                     ...  -3031.336176530
E(CCSD(T))                                 ...  -3031.456681263
FINAL SINGLE POINT ENERGY     -3031.456681262611

DIPOLE MOMENT
-------------
                                X             Y             Z
Electronic contribution:     43.11070       6.42621      -1.21294
Nuclear contribution   :    -48.85890      -6.80771       1.24456
                        -----------------------------------------
Total Dipole Moment    :     -5.74820      -0.38150       0.03163
                        -----------------------------------------
Magnitude (a.u.)       :      5.76093
Magnitude (Debye)      :     14.64312

Rotational constants in cm-1:     0.020791     0.010172     0.009687
Rotational constants in MHz :   623.287179   304.944323   290.413689

                             ****ORCA TERMINATED NORMALLY****
TOTAL RUN TIME: 0 days 22 hours 46 minutes 54 seconds 19 msec
