                         Program Version 4.1.2  - RELEASE  -
|  1> ! aug-cc-pVTZ aug-cc-pVTZ/C DLPNO-CCSD(T1) TightSCF NormalPNO UNO MiniPrint AutoAux
|  2> %pal nproc 10 end
|  3> %maxcore 20000
|  4> %mdci
|  5>      density none
|  6> end
|  7>
|  8> * xyz 0 6
|  9>  O     -0.30720300     -0.15855400     -0.45230800
| 10>  C     -1.17021500     -1.10446300     -0.22191800
| 11>  C     -2.62791300     -0.26081600      0.85668200
| 12>  C     -3.05850800      0.67566700     -0.07226600
| 13>  C     -4.16467100      0.38819200     -1.03133300
| 14> Fe      1.53261000      0.17412600     -0.09907900
| 15> Cl      1.86194200      2.13049800     -1.03098300
| 16>  C     -2.34965000      1.97005700     -0.20955300
| 17> Cl      2.53730000     -1.54053900     -1.03784900
| 18> Cl      1.82921700      0.21705000      2.08595400
| 19>  H     -3.26696300     -1.13806200      0.95615400
| 20>  H     -2.82781400      2.64526100     -0.92200700
| 21>  H     -2.21456800      2.47612600      0.75174100
| 22>  H     -1.32934000      1.73264400     -0.56751700
| 23>  H     -4.99571500      1.07300000     -0.80848700
| 24>  H     -3.86384800      0.60377000     -2.06417400
| 25>  H     -4.53702700     -0.63569600     -0.96234900
| 26>  C     -1.92936800      0.19274900      2.12762700
| 27>  H     -2.53703200      0.94737800      2.63990300
| 28>  H     -1.79229100     -0.64118400      2.81742500
| 29>  H     -0.94738700      0.62762800      1.92914900
| 30>  C     -0.74919700     -2.17439000      0.77784800
| 31>  H     -1.57715000     -2.82420600      1.07058200
| 32>  H      0.00372400     -2.78147200      0.25833000
| 33>  H     -0.27033400     -1.74667500      1.65786100
| 34>  C     -1.82598600     -1.66441200     -1.47231500
| 35>  H     -1.08005400     -2.31064000     -1.95052300
| 36>  H     -2.71001500     -2.26787300     -1.25073700
| 37>  H     -2.07516000     -0.87348600     -2.18053400
| 38> *
| 39>
| 40>
| 41>                          ****END OF INPUT****

CARTESIAN COORDINATES (ANGSTROEM)
---------------------------------
  O     -0.307203   -0.158554   -0.452308
  C     -1.170215   -1.104463   -0.221918
  C     -2.627913   -0.260816    0.856682
  C     -3.058508    0.675667   -0.072266
  C     -4.164671    0.388192   -1.031333
  Fe     1.532610    0.174126   -0.099079
  Cl     1.861942    2.130498   -1.030983
  C     -2.349650    1.970057   -0.209553
  Cl     2.537300   -1.540539   -1.037849
  Cl     1.829217    0.217050    2.085954
  H     -3.266963   -1.138062    0.956154
  H     -2.827814    2.645261   -0.922007
  H     -2.214568    2.476126    0.751741
  H     -1.329340    1.732644   -0.567517
  H     -4.995715    1.073000   -0.808487
  H     -3.863848    0.603770   -2.064174
  H     -4.537027   -0.635696   -0.962349
  C     -1.929368    0.192749    2.127627
  H     -2.537032    0.947378    2.639903
  H     -1.792291   -0.641184    2.817425
  H     -0.947387    0.627628    1.929149
  C     -0.749197   -2.174390    0.777848
  H     -1.577150   -2.824206    1.070582
  H      0.003724   -2.781472    0.258330
  H     -0.270334   -1.746675    1.657861
  C     -1.825986   -1.664412   -1.472315
  H     -1.080054   -2.310640   -1.950523
  H     -2.710015   -2.267873   -1.250737
  H     -2.075160   -0.873486   -2.180534

ORBITAL ENERGIES
----------------
                 SPIN UP ORBITALS
  NO   OCC          E(Eh)            E(eV)
   0   1.0000    -261.553503     -7117.2326
   1   1.0000    -104.776840     -2851.1228
   2   1.0000    -104.774208     -2851.0511
   3   1.0000    -104.773975     -2851.0448
   4   1.0000     -32.221363      -876.7878
   5   1.0000     -27.697529      -753.6881
   6   1.0000     -27.696876      -753.6703
   7   1.0000     -27.696730      -753.6663
   8   1.0000     -20.569428      -559.7226
   9   1.0000     -11.391835      -309.9876
  10   1.0000     -11.346240      -308.7469
  11   1.0000     -11.283441      -307.0380
  12   1.0000     -11.275644      -306.8259
  13   1.0000     -11.261731      -306.4473
  14   1.0000     -11.259663      -306.3910
  15   1.0000     -11.253256      -306.2167
  16   1.0000     -11.247694      -306.0653
  17   1.0000     -10.503491      -285.8145
  18   1.0000     -10.500839      -285.7423
  19   1.0000     -10.500572      -285.7351
  20   1.0000      -7.970349      -216.8842
  21   1.0000      -7.969546      -216.8624
  22   1.0000      -7.969514      -216.8615
  23   1.0000      -7.967704      -216.8122
  24   1.0000      -7.967387      -216.8036
  25   1.0000      -7.966937      -216.7914
  26   1.0000      -7.966854      -216.7891
  27   1.0000      -7.966697      -216.7848
  28   1.0000      -7.966603      -216.7823
  29   1.0000      -4.576640      -124.5367
  30   1.0000      -3.189502       -86.7908
  31   1.0000      -3.188441       -86.7619
  32   1.0000      -3.188099       -86.7526
  33   1.0000      -1.409606       -38.3573
  34   1.0000      -1.174402       -31.9571
  35   1.0000      -1.081502       -29.4292
  36   1.0000      -1.048657       -28.5354
  37   1.0000      -1.043957       -28.4075
  38   1.0000      -1.041662       -28.3451
  39   1.0000      -1.041040       -28.3281
  40   1.0000      -0.999836       -27.2069
  41   1.0000      -0.985919       -26.8282
  42   1.0000      -0.924701       -25.1624
  43   1.0000      -0.918902       -25.0046
  44   1.0000      -0.905947       -24.6521
  45   1.0000      -0.905922       -24.6514
  46   1.0000      -0.896337       -24.3906
  47   1.0000      -0.895944       -24.3799
  48   1.0000      -0.791755       -21.5447
  49   1.0000      -0.764528       -20.8039
  50   1.0000      -0.693095       -18.8601
  51   1.0000      -0.688634       -18.7387
  52   1.0000      -0.673704       -18.3324
  53   1.0000      -0.668259       -18.1843
  54   1.0000      -0.653468       -17.7818
  55   1.0000      -0.627256       -17.0685
  56   1.0000      -0.603763       -16.4292
  57   1.0000      -0.594990       -16.1905
  58   1.0000      -0.588951       -16.0262
  59   1.0000      -0.577686       -15.7196
  60   1.0000      -0.572101       -15.5677
  61   1.0000      -0.566545       -15.4165
  62   1.0000      -0.558949       -15.2098
  63   1.0000      -0.543902       -14.8003
  64   1.0000      -0.533371       -14.5138
  65   1.0000      -0.525223       -14.2920
  66   1.0000      -0.513496       -13.9729
  67   1.0000      -0.477898       -13.0043
  68   1.0000      -0.462761       -12.5924
  69   1.0000      -0.453673       -12.3451
  70   1.0000      -0.429983       -11.7004
  71   1.0000      -0.426219       -11.5980
  72   1.0000      -0.423331       -11.5194
  73   1.0000      -0.415133       -11.2963
  74   1.0000      -0.413324       -11.2471
  75   1.0000      -0.412825       -11.2335
  76   1.0000      -0.388684       -10.5766
  77   0.0000       0.006965         0.1895
  78   0.0000       0.018571         0.5053
  79   0.0000       0.019773         0.5380
  80   0.0000       0.022178         0.6035
  81   0.0000       0.030099         0.8190

                 SPIN DOWN ORBITALS
  NO   OCC          E(Eh)            E(eV)
   0   1.0000    -261.549944     -7117.1358
   1   1.0000    -104.775412     -2851.0839
   2   1.0000    -104.772744     -2851.0113
   3   1.0000    -104.772532     -2851.0055
   4   1.0000     -32.059284      -872.3775
   5   1.0000     -27.537267      -749.3271
   6   1.0000     -27.537186      -749.3249
   7   1.0000     -27.536851      -749.3158
   8   1.0000     -20.565031      -559.6029
   9   1.0000     -11.391847      -309.9879
  10   1.0000     -11.345592      -308.7293
  11   1.0000     -11.283529      -307.0404
  12   1.0000     -11.275845      -306.8313
  13   1.0000     -11.261814      -306.4495
  14   1.0000     -11.259559      -306.3882
  15   1.0000     -11.253267      -306.2170
  16   1.0000     -11.247693      -306.0653
  17   1.0000     -10.501959      -285.7728
  18   1.0000     -10.499272      -285.6997
  19   1.0000     -10.499032      -285.6932
  20   1.0000      -7.967857      -216.8164
  21   1.0000      -7.967231      -216.7994
  22   1.0000      -7.967166      -216.7976
  23   1.0000      -7.965182      -216.7436
  24   1.0000      -7.965006      -216.7388
  25   1.0000      -7.964534      -216.7260
  26   1.0000      -7.964441      -216.7234
  27   1.0000      -7.964267      -216.7187
  28   1.0000      -7.964167      -216.7160
  29   1.0000      -4.134314      -112.5004
  30   1.0000      -2.656026       -72.2742
  31   1.0000      -2.655973       -72.2727
  32   1.0000      -2.655299       -72.2544
  33   1.0000      -1.398355       -38.0512
  34   1.0000      -1.172842       -31.9147
  35   1.0000      -1.079029       -29.3619
  36   1.0000      -1.042640       -28.3717
  37   1.0000      -1.033507       -28.1232
  38   1.0000      -1.021781       -27.8041
  39   1.0000      -1.020052       -27.7570
  40   1.0000      -0.999728       -27.2040
  41   1.0000      -0.985327       -26.8121
  42   1.0000      -0.921848       -25.0847
  43   1.0000      -0.805680       -21.9237
  44   1.0000      -0.765288       -20.8246
  45   1.0000      -0.694151       -18.8888
  46   1.0000      -0.688294       -18.7294
  47   1.0000      -0.675616       -18.3845
  48   1.0000      -0.667158       -18.1543
  49   1.0000      -0.653144       -17.7730
  50   1.0000      -0.626642       -17.0518
  51   1.0000      -0.603406       -16.4195
  52   1.0000      -0.594503       -16.1772
  53   1.0000      -0.588809       -16.0223
  54   1.0000      -0.577594       -15.7171
  55   1.0000      -0.571904       -15.5623
  56   1.0000      -0.566179       -15.4065
  57   1.0000      -0.558828       -15.2065
  58   1.0000      -0.543253       -14.7827
  59   1.0000      -0.531504       -14.4629
  60   1.0000      -0.523837       -14.2543
  61   1.0000      -0.505041       -13.7429
  62   1.0000      -0.475501       -12.9390
  63   1.0000      -0.467041       -12.7088
  64   1.0000      -0.464199       -12.6315
  65   1.0000      -0.438058       -11.9202
  66   1.0000      -0.435082       -11.8392
  67   1.0000      -0.433067       -11.7844
  68   1.0000      -0.421576       -11.4717
  69   1.0000      -0.412955       -11.2371
  70   1.0000      -0.398694       -10.8490
  71   1.0000      -0.385883       -10.5004
  72   0.0000       0.006972         0.1897
  73   0.0000       0.018800         0.5116
  74   0.0000       0.019859         0.5404
  75   0.0000       0.022161         0.6030
  76   0.0000       0.030008         0.8166

E(0)                                       ...  -3028.430940552
E(0)                                       ...  -3028.430940552
E(CORR)(strong-pairs)                      ...     -2.875040179
E(CORR)(weak-pairs)                        ...     -0.035667839
E(CORR)(corrected)                         ...     -2.910708018
E(TOT)                                     ...  -3031.341648569
E(CCSD(T))                                 ...  -3031.462357883
FINAL SINGLE POINT ENERGY     -3031.462357883334

DIPOLE MOMENT
-------------
                                X             Y             Z
Electronic contribution:     43.88725       6.03029      -1.72414
Nuclear contribution   :    -48.94767      -6.68376       1.65945
                        -----------------------------------------
Total Dipole Moment    :     -5.06042      -0.65347      -0.06469
                        -----------------------------------------
Magnitude (a.u.)       :      5.10285
Magnitude (Debye)      :     12.97041

Rotational constants in cm-1:     0.019931     0.010093     0.009664
Rotational constants in MHz :   597.512158   302.594933   289.722515

                             ****ORCA TERMINATED NORMALLY****
TOTAL RUN TIME: 0 days 21 hours 31 minutes 4 seconds 766 msec
