                         Program Version 4.1.2  - RELEASE  -
|  1> ! aug-cc-pVTZ aug-cc-pVTZ/C DLPNO-CCSD(T1) TightSCF NormalPNO UNO MiniPrint AutoAux
|  2> %pal nproc 10 end
|  3> %maxcore 20000
|  4> %mdci
|  5>      density none
|  6> end
|  7>
|  8> * xyz 0 6
|  9>  O     -0.38484000     -0.16842600     -0.51384200
| 10>  C     -1.35190900     -1.18703600     -0.40177900
| 11>  C     -2.88646700     -0.09399000     -0.15605900
| 12>  C     -2.04232900      1.09866200     -0.27456500
| 13>  C     -1.90824700      1.78060100     -1.58583000
| 14> Fe      1.38744500      0.05093600      0.04361900
| 15> Cl      1.84547700      2.03724700     -0.82293900
| 16>  C     -1.58123200      1.83760400      0.92611000
| 17> Cl      2.50084500     -1.67982500     -0.72580900
| 18> Cl      1.34096900      0.12951200      2.26021300
| 19>  H     -3.48920900     -0.25729900     -1.05024400
| 20>  H     -2.42751200      2.46640500      1.24859400
| 21>  H     -1.32473900      1.17847100      1.75615300
| 22>  H     -0.73299800      2.48591000      0.69904300
| 23>  H     -2.65469400      2.59217200     -1.59405200
| 24>  H     -0.91754200      2.22865000     -1.69682700
| 25>  H     -2.12444000      1.11576800     -2.42346700
| 26>  C     -3.64668200     -0.35572800      1.12815200
| 27>  H     -4.46539100      0.36338000      1.25739200
| 28>  H     -4.09152300     -1.35470500      1.09898200
| 29>  H     -3.01061800     -0.30122300      2.01451800
| 30>  C     -1.16095300     -2.07175700      0.80249300
| 31>  H     -1.98426500     -2.78292700      0.91441800
| 32>  H     -0.23384600     -2.64129300      0.65174700
| 33>  H     -1.03941100     -1.49369400      1.71991900
| 34>  C     -1.51811100     -1.92635400     -1.70690200
| 35>  H     -0.57602700     -2.44965400     -1.91610800
| 36>  H     -2.32796300     -2.66063200     -1.65409700
| 37>  H     -1.70304900     -1.23614900     -2.53397300
| 38> *
| 39>
| 40>
| 41>                          ****END OF INPUT****

CARTESIAN COORDINATES (ANGSTROEM)
---------------------------------
  O     -0.384840   -0.168426   -0.513842
  C     -1.351909   -1.187036   -0.401779
  C     -2.886467   -0.093990   -0.156059
  C     -2.042329    1.098662   -0.274565
  C     -1.908247    1.780601   -1.585830
  Fe     1.387445    0.050936    0.043619
  Cl     1.845477    2.037247   -0.822939
  C     -1.581232    1.837604    0.926110
  Cl     2.500845   -1.679825   -0.725809
  Cl     1.340969    0.129512    2.260213
  H     -3.489209   -0.257299   -1.050244
  H     -2.427512    2.466405    1.248594
  H     -1.324739    1.178471    1.756153
  H     -0.732998    2.485910    0.699043
  H     -2.654694    2.592172   -1.594052
  H     -0.917542    2.228650   -1.696827
  H     -2.124440    1.115768   -2.423467
  C     -3.646682   -0.355728    1.128152
  H     -4.465391    0.363380    1.257392
  H     -4.091523   -1.354705    1.098982
  H     -3.010618   -0.301223    2.014518
  C     -1.160953   -2.071757    0.802493
  H     -1.984265   -2.782927    0.914418
  H     -0.233846   -2.641293    0.651747
  H     -1.039411   -1.493694    1.719919
  C     -1.518111   -1.926354   -1.706902
  H     -0.576027   -2.449654   -1.916108
  H     -2.327963   -2.660632   -1.654097
  H     -1.703049   -1.236149   -2.533973

ORBITAL ENERGIES
----------------
                 SPIN UP ORBITALS
  NO   OCC          E(Eh)            E(eV)
   0   1.0000    -261.549651     -7117.1278
   1   1.0000    -104.777175     -2851.1319
   2   1.0000    -104.775448     -2851.0849
   3   1.0000    -104.774376     -2851.0557
   4   1.0000     -32.217556      -876.6843
   5   1.0000     -27.693447      -753.5770
   6   1.0000     -27.693291      -753.5728
   7   1.0000     -27.692998      -753.5648
   8   1.0000     -20.555411      -559.3412
   9   1.0000     -11.396972      -310.1274
  10   1.0000     -11.363638      -309.2203
  11   1.0000     -11.285106      -307.0833
  12   1.0000     -11.276398      -306.8464
  13   1.0000     -11.273128      -306.7574
  14   1.0000     -11.260762      -306.4209
  15   1.0000     -11.244869      -305.9884
  16   1.0000     -11.241181      -305.8881
  17   1.0000     -10.503710      -285.8205
  18   1.0000     -10.502058      -285.7755
  19   1.0000     -10.500948      -285.7453
  20   1.0000      -7.970531      -216.8892
  21   1.0000      -7.969794      -216.8691
  22   1.0000      -7.969717      -216.8670
  23   1.0000      -7.968950      -216.8462
  24   1.0000      -7.968104      -216.8231
  25   1.0000      -7.968057      -216.8218
  26   1.0000      -7.967751      -216.8135
  27   1.0000      -7.967059      -216.7947
  28   1.0000      -7.966985      -216.7927
  29   1.0000      -4.572989      -124.4374
  30   1.0000      -3.185476       -86.6812
  31   1.0000      -3.185170       -86.6729
  32   1.0000      -3.184545       -86.6559
  33   1.0000      -1.368191       -37.2304
  34   1.0000      -1.171325       -31.8734
  35   1.0000      -1.083868       -29.4935
  36   1.0000      -1.048367       -28.5275
  37   1.0000      -1.042527       -28.3686
  38   1.0000      -1.041213       -28.3329
  39   1.0000      -1.040250       -28.3066
  40   1.0000      -1.009649       -27.4739
  41   1.0000      -0.973228       -26.4829
  42   1.0000      -0.929144       -25.2833
  43   1.0000      -0.907262       -24.6879
  44   1.0000      -0.902565       -24.5600
  45   1.0000      -0.902210       -24.5504
  46   1.0000      -0.894170       -24.3316
  47   1.0000      -0.893631       -24.3169
  48   1.0000      -0.786779       -21.4093
  49   1.0000      -0.760948       -20.7065
  50   1.0000      -0.696221       -18.9451
  51   1.0000      -0.688151       -18.7255
  52   1.0000      -0.670016       -18.2321
  53   1.0000      -0.643310       -17.5054
  54   1.0000      -0.632436       -17.2095
  55   1.0000      -0.626277       -17.0419
  56   1.0000      -0.598200       -16.2778
  57   1.0000      -0.595437       -16.2027
  58   1.0000      -0.591200       -16.0874
  59   1.0000      -0.581102       -15.8126
  60   1.0000      -0.574191       -15.6245
  61   1.0000      -0.560501       -15.2520
  62   1.0000      -0.551084       -14.9957
  63   1.0000      -0.540877       -14.7180
  64   1.0000      -0.535239       -14.5646
  65   1.0000      -0.527776       -14.3615
  66   1.0000      -0.507637       -13.8135
  67   1.0000      -0.479714       -13.0537
  68   1.0000      -0.463401       -12.6098
  69   1.0000      -0.451793       -12.2939
  70   1.0000      -0.431597       -11.7444
  71   1.0000      -0.426743       -11.6123
  72   1.0000      -0.423396       -11.5212
  73   1.0000      -0.417311       -11.3556
  74   1.0000      -0.414691       -11.2843
  75   1.0000      -0.413494       -11.2517
  76   1.0000      -0.391037       -10.6407
  77   0.0000       0.008268         0.2250
  78   0.0000       0.019949         0.5428
  79   0.0000       0.022305         0.6069
  80   0.0000       0.030751         0.8368
  81   0.0000       0.036318         0.9883

                 SPIN DOWN ORBITALS
  NO   OCC          E(Eh)            E(eV)
   0   1.0000    -261.546102     -7117.0313
   1   1.0000    -104.775854     -2851.0959
   2   1.0000    -104.774072     -2851.0475
   3   1.0000    -104.772939     -2851.0166
   4   1.0000     -32.055574      -872.2765
   5   1.0000     -27.533628      -749.2281
   6   1.0000     -27.533455      -749.2234
   7   1.0000     -27.533010      -749.2113
   8   1.0000     -20.549799      -559.1885
   9   1.0000     -11.397016      -310.1286
  10   1.0000     -11.363576      -309.2186
  11   1.0000     -11.284797      -307.0749
  12   1.0000     -11.276377      -306.8458
  13   1.0000     -11.273138      -306.7577
  14   1.0000     -11.260782      -306.4215
  15   1.0000     -11.244805      -305.9867
  16   1.0000     -11.241155      -305.8874
  17   1.0000     -10.502292      -285.7819
  18   1.0000     -10.500579      -285.7353
  19   1.0000     -10.499410      -285.7035
  20   1.0000      -7.968253      -216.8272
  21   1.0000      -7.967630      -216.8102
  22   1.0000      -7.967552      -216.8081
  23   1.0000      -7.966462      -216.7785
  24   1.0000      -7.965922      -216.7638
  25   1.0000      -7.965852      -216.7618
  26   1.0000      -7.965386      -216.7492
  27   1.0000      -7.964632      -216.7287
  28   1.0000      -7.964572      -216.7270
  29   1.0000      -4.130895      -112.4074
  30   1.0000      -2.652755       -72.1851
  31   1.0000      -2.652643       -72.1821
  32   1.0000      -2.651896       -72.1617
  33   1.0000      -1.353477       -36.8300
  34   1.0000      -1.170044       -31.8385
  35   1.0000      -1.081094       -29.4181
  36   1.0000      -1.039237       -28.2791
  37   1.0000      -1.033810       -28.1314
  38   1.0000      -1.022970       -27.8364
  39   1.0000      -1.021002       -27.7829
  40   1.0000      -1.009271       -27.4637
  41   1.0000      -0.972641       -26.4669
  42   1.0000      -0.924377       -25.1536
  43   1.0000      -0.792070       -21.5533
  44   1.0000      -0.765042       -20.8179
  45   1.0000      -0.696347       -18.9486
  46   1.0000      -0.687588       -18.7102
  47   1.0000      -0.670982       -18.2583
  48   1.0000      -0.644774       -17.5452
  49   1.0000      -0.630490       -17.1565
  50   1.0000      -0.626361       -17.0442
  51   1.0000      -0.597250       -16.2520
  52   1.0000      -0.595530       -16.2052
  53   1.0000      -0.591109       -16.0849
  54   1.0000      -0.579364       -15.7653
  55   1.0000      -0.574022       -15.6199
  56   1.0000      -0.560503       -15.2521
  57   1.0000      -0.549450       -14.9513
  58   1.0000      -0.540264       -14.7013
  59   1.0000      -0.534239       -14.5374
  60   1.0000      -0.522200       -14.2098
  61   1.0000      -0.503619       -13.7042
  62   1.0000      -0.475728       -12.9452
  63   1.0000      -0.467330       -12.7167
  64   1.0000      -0.462210       -12.5774
  65   1.0000      -0.438096       -11.9212
  66   1.0000      -0.435059       -11.8386
  67   1.0000      -0.433393       -11.7932
  68   1.0000      -0.423505       -11.5242
  69   1.0000      -0.412676       -11.2295
  70   1.0000      -0.400978       -10.9112
  71   1.0000      -0.389252       -10.5921
  72   0.0000       0.008247         0.2244
  73   0.0000       0.019823         0.5394
  74   0.0000       0.022285         0.6064
  75   0.0000       0.030794         0.8379
  76   0.0000       0.035574         0.9680

E(0)                                       ...  -3028.420008370
E(0)                                       ...  -3028.420008370
E(CORR)(strong-pairs)                      ...     -2.872110007
E(CORR)(weak-pairs)                        ...     -0.035969950
E(CORR)(corrected)                         ...     -2.908079957
E(TOT)                                     ...  -3031.328088327
E(CCSD(T))                                 ...  -3031.447193016
FINAL SINGLE POINT ENERGY     -3031.447193016233

DIPOLE MOMENT
-------------
                                X             Y             Z
Electronic contribution:     40.28927       3.81378       2.12685
Nuclear contribution   :    -44.85638      -3.50821      -2.60235
                        -----------------------------------------
Total Dipole Moment    :     -4.56712       0.30557      -0.47550
                        -----------------------------------------
Magnitude (a.u.)       :      4.60196
Magnitude (Debye)      :     11.69725

Rotational constants in cm-1:     0.018975     0.011849     0.010750
Rotational constants in MHz :   568.868461   355.218191   322.289308

                             ****ORCA TERMINATED NORMALLY****
TOTAL RUN TIME: 0 days 21 hours 52 minutes 31 seconds 337 msec
