                         Program Version 4.1.2  - RELEASE  -
|  1> ! aug-cc-pVTZ aug-cc-pVTZ/C DLPNO-CCSD(T1) TightSCF NormalPNO UNO MiniPrint AutoAux
|  2> %pal nproc 10 end
|  3> %maxcore 20000
|  4> %mdci
|  5>      density none
|  6> end
|  7>
|  8> * xyz 0 6
|  9>  O     -0.40662400     -0.19111500     -0.54074400
| 10>  C     -1.45973500     -1.17911600     -0.33777100
| 11>  C     -2.73877800     -0.13981100     -0.25780600
| 12>  C     -1.93072500      1.15009400     -0.25658900
| 13>  C     -1.83737500      1.94807300     -1.50326800
| 14> Fe      1.37790800      0.03103000      0.02529700
| 15> Cl      1.84807000      2.00596100     -0.85292500
| 16>  C     -1.57502500      1.82007800      1.01816500
| 17> Cl      2.46965100     -1.70985300     -0.73502700
| 18> Cl      1.37470300      0.15168700      2.23442200
| 19>  H     -3.28074900     -0.20840900     -1.20585700
| 20>  H     -2.44955100      2.42036600      1.31712400
| 21>  H     -1.35839400      1.11744500      1.82274000
| 22>  H     -0.72795900      2.49713500      0.88687100
| 23>  H     -2.64790500      2.69482500     -1.47441200
| 24>  H     -0.88509400      2.48360900     -1.55159300
| 25>  H     -1.96847900      1.33217800     -2.39410800
| 26>  C     -3.71564300     -0.32601400      0.89832500
| 27>  H     -4.49970200      0.43950100      0.87801400
| 28>  H     -4.20631900     -1.30015100      0.81079300
| 29>  H     -3.22551000     -0.28591700      1.87379200
| 30>  C     -1.22376900     -1.97427400      0.93435500
| 31>  H     -2.04295300     -2.67899200      1.11006000
| 32>  H     -0.29817400     -2.55032600      0.82720500
| 33>  H     -1.11087800     -1.33112900      1.80916900
| 34>  C     -1.52590600     -2.07113200     -1.56481600
| 35>  H     -0.58458600     -2.62180800     -1.66391600
| 36>  H     -2.34757200     -2.79158600     -1.48043000
| 37>  H     -1.66827100     -1.47449900     -2.47077200
| 38> *
| 39>
| 40>
| 41>                          ****END OF INPUT****

CARTESIAN COORDINATES (ANGSTROEM)
---------------------------------
  O     -0.406624   -0.191115   -0.540744
  C     -1.459735   -1.179116   -0.337771
  C     -2.738778   -0.139811   -0.257806
  C     -1.930725    1.150094   -0.256589
  C     -1.837375    1.948073   -1.503268
  Fe     1.377908    0.031030    0.025297
  Cl     1.848070    2.005961   -0.852925
  C     -1.575025    1.820078    1.018165
  Cl     2.469651   -1.709853   -0.735027
  Cl     1.374703    0.151687    2.234422
  H     -3.280749   -0.208409   -1.205857
  H     -2.449551    2.420366    1.317124
  H     -1.358394    1.117445    1.822740
  H     -0.727959    2.497135    0.886871
  H     -2.647905    2.694825   -1.474412
  H     -0.885094    2.483609   -1.551593
  H     -1.968479    1.332178   -2.394108
  C     -3.715643   -0.326014    0.898325
  H     -4.499702    0.439501    0.878014
  H     -4.206319   -1.300151    0.810793
  H     -3.225510   -0.285917    1.873792
  C     -1.223769   -1.974274    0.934355
  H     -2.042953   -2.678992    1.110060
  H     -0.298174   -2.550326    0.827205
  H     -1.110878   -1.331129    1.809169
  C     -1.525906   -2.071132   -1.564816
  H     -0.584586   -2.621808   -1.663916
  H     -2.347572   -2.791586   -1.480430
  H     -1.668271   -1.474499   -2.470772

ORBITAL ENERGIES
----------------
                 SPIN UP ORBITALS
  NO   OCC          E(Eh)            E(eV)
   0   1.0000    -261.549383     -7117.1205
   1   1.0000    -104.777274     -2851.1346
   2   1.0000    -104.775569     -2851.0882
   3   1.0000    -104.773284     -2851.0260
   4   1.0000     -32.217309      -876.6775
   5   1.0000     -27.693243      -753.5715
   6   1.0000     -27.693021      -753.5654
   7   1.0000     -27.692694      -753.5565
   8   1.0000     -20.562224      -559.5266
   9   1.0000     -11.404886      -310.3427
  10   1.0000     -11.334812      -308.4359
  11   1.0000     -11.293046      -307.2994
  12   1.0000     -11.278676      -306.9084
  13   1.0000     -11.277780      -306.8840
  14   1.0000     -11.264392      -306.5197
  15   1.0000     -11.236136      -305.7508
  16   1.0000     -11.235084      -305.7222
  17   1.0000     -10.503884      -285.8252
  18   1.0000     -10.502274      -285.7814
  19   1.0000     -10.499917      -285.7173
  20   1.0000      -7.970714      -216.8942
  21   1.0000      -7.969971      -216.8739
  22   1.0000      -7.969890      -216.8717
  23   1.0000      -7.969155      -216.8517
  24   1.0000      -7.968316      -216.8289
  25   1.0000      -7.968292      -216.8282
  26   1.0000      -7.966718      -216.7854
  27   1.0000      -7.966039      -216.7669
  28   1.0000      -7.965961      -216.7648
  29   1.0000      -4.572680      -124.4290
  30   1.0000      -3.185062       -86.6699
  31   1.0000      -3.184865       -86.6646
  32   1.0000      -3.184265       -86.6483
  33   1.0000      -1.355735       -36.8914
  34   1.0000      -1.169136       -31.8138
  35   1.0000      -1.092870       -29.7385
  36   1.0000      -1.048724       -28.5372
  37   1.0000      -1.043333       -28.3905
  38   1.0000      -1.040996       -28.3269
  39   1.0000      -1.035498       -28.1773
  40   1.0000      -1.013012       -27.5655
  41   1.0000      -0.964435       -26.2436
  42   1.0000      -0.933182       -25.3932
  43   1.0000      -0.903174       -24.5766
  44   1.0000      -0.901998       -24.5446
  45   1.0000      -0.901075       -24.5195
  46   1.0000      -0.893692       -24.3186
  47   1.0000      -0.893107       -24.3027
  48   1.0000      -0.801381       -21.8067
  49   1.0000      -0.757676       -20.6174
  50   1.0000      -0.698474       -19.0064
  51   1.0000      -0.688530       -18.7359
  52   1.0000      -0.670345       -18.2410
  53   1.0000      -0.635442       -17.2912
  54   1.0000      -0.632438       -17.2095
  55   1.0000      -0.619936       -16.8693
  56   1.0000      -0.602296       -16.3893
  57   1.0000      -0.594899       -16.1880
  58   1.0000      -0.592358       -16.1189
  59   1.0000      -0.582468       -15.8498
  60   1.0000      -0.573516       -15.6062
  61   1.0000      -0.559031       -15.2120
  62   1.0000      -0.543950       -14.8016
  63   1.0000      -0.536480       -14.5984
  64   1.0000      -0.528291       -14.3755
  65   1.0000      -0.518121       -14.0988
  66   1.0000      -0.504721       -13.7342
  67   1.0000      -0.475847       -12.9484
  68   1.0000      -0.467396       -12.7185
  69   1.0000      -0.453110       -12.3298
  70   1.0000      -0.442743       -12.0477
  71   1.0000      -0.428041       -11.6476
  72   1.0000      -0.423764       -11.5312
  73   1.0000      -0.418954       -11.4003
  74   1.0000      -0.415772       -11.3137
  75   1.0000      -0.414177       -11.2703
  76   1.0000      -0.412956       -11.2371
  77   0.0000       0.007267         0.1978
  78   0.0000       0.019889         0.5412
  79   0.0000       0.022113         0.6017
  80   0.0000       0.030654         0.8341
  81   0.0000       0.037228         1.0130

                 SPIN DOWN ORBITALS
  NO   OCC          E(Eh)            E(eV)
   0   1.0000    -261.545833     -7117.0239
   1   1.0000    -104.775935     -2851.0981
   2   1.0000    -104.774176     -2851.0503
   3   1.0000    -104.771821     -2850.9862
   4   1.0000     -32.055324      -872.2697
   5   1.0000     -27.533379      -749.2213
   6   1.0000     -27.533194      -749.2163
   7   1.0000     -27.532773      -749.2049
   8   1.0000     -20.556738      -559.3773
   9   1.0000     -11.404939      -310.3442
  10   1.0000     -11.334622      -308.4307
  11   1.0000     -11.292944      -307.2966
  12   1.0000     -11.278656      -306.9078
  13   1.0000     -11.277786      -306.8842
  14   1.0000     -11.264380      -306.5194
  15   1.0000     -11.236100      -305.7498
  16   1.0000     -11.235072      -305.7219
  17   1.0000     -10.502446      -285.7861
  18   1.0000     -10.500777      -285.7407
  19   1.0000     -10.498353      -285.6747
  20   1.0000      -7.968399      -216.8312
  21   1.0000      -7.967777      -216.8142
  22   1.0000      -7.967707      -216.8123
  23   1.0000      -7.966672      -216.7842
  24   1.0000      -7.966091      -216.7684
  25   1.0000      -7.966036      -216.7669
  26   1.0000      -7.964333      -216.7205
  27   1.0000      -7.963549      -216.6992
  28   1.0000      -7.963494      -216.6977
  29   1.0000      -4.130604      -112.3995
  30   1.0000      -2.652506       -72.1784
  31   1.0000      -2.652458       -72.1770
  32   1.0000      -2.651383       -72.1478
  33   1.0000      -1.341568       -36.5059
  34   1.0000      -1.167320       -31.7644
  35   1.0000      -1.090434       -29.6722
  36   1.0000      -1.034268       -28.1439
  37   1.0000      -1.034055       -28.1381
  38   1.0000      -1.023497       -27.8508
  39   1.0000      -1.020485       -27.7688
  40   1.0000      -1.012482       -27.5510
  41   1.0000      -0.963714       -26.2240
  42   1.0000      -0.927606       -25.2415
  43   1.0000      -0.803548       -21.8657
  44   1.0000      -0.761673       -20.7262
  45   1.0000      -0.698552       -19.0086
  46   1.0000      -0.688198       -18.7268
  47   1.0000      -0.671381       -18.2692
  48   1.0000      -0.636367       -17.3164
  49   1.0000      -0.632485       -17.2108
  50   1.0000      -0.618413       -16.8279
  51   1.0000      -0.602350       -16.3908
  52   1.0000      -0.593808       -16.1583
  53   1.0000      -0.592301       -16.1173
  54   1.0000      -0.581068       -15.8117
  55   1.0000      -0.573069       -15.5940
  56   1.0000      -0.558548       -15.1989
  57   1.0000      -0.539927       -14.6922
  58   1.0000      -0.535861       -14.5815
  59   1.0000      -0.526053       -14.3146
  60   1.0000      -0.513251       -13.9663
  61   1.0000      -0.503029       -13.6881
  62   1.0000      -0.472679       -12.8623
  63   1.0000      -0.468172       -12.7396
  64   1.0000      -0.461776       -12.5656
  65   1.0000      -0.447087       -12.1659
  66   1.0000      -0.438755       -11.9391
  67   1.0000      -0.434791       -11.8313
  68   1.0000      -0.433382       -11.7929
  69   1.0000      -0.414103       -11.2683
  70   1.0000      -0.407915       -11.0999
  71   1.0000      -0.400439       -10.8965
  72   0.0000       0.007244         0.1971
  73   0.0000       0.019780         0.5382
  74   0.0000       0.022093         0.6012
  75   0.0000       0.030690         0.8351
  76   0.0000       0.037208         1.0125

E(0)                                       ...  -3028.442680615
E(0)                                       ...  -3028.442680615
E(CORR)(strong-pairs)                      ...     -2.873405850
E(CORR)(weak-pairs)                        ...     -0.034930732
E(CORR)(corrected)                         ...     -2.908336582
E(TOT)                                     ...  -3031.351017197
E(CCSD(T))                                 ...  -3031.469643052
FINAL SINGLE POINT ENERGY     -3031.469643051671

DIPOLE MOMENT
-------------
                                X             Y             Z
Electronic contribution:     40.36689       3.49296       1.53030
Nuclear contribution   :    -45.02025      -2.90999      -1.86492
                        -----------------------------------------
Total Dipole Moment    :     -4.65336       0.58296      -0.33462
                        -----------------------------------------
Magnitude (a.u.)       :      4.70166
Magnitude (Debye)      :     11.95066

Rotational constants in cm-1:     0.019010     0.012040     0.010730
Rotational constants in MHz :   569.902996   360.955473   321.675470

                             ****ORCA TERMINATED NORMALLY****
TOTAL RUN TIME: 0 days 22 hours 35 minutes 16 seconds 760 msec
