                         Program Version 4.1.2  - RELEASE  -
|  1> ! aug-cc-pVTZ aug-cc-pVTZ/C DLPNO-CCSD(T1) TightSCF NormalPNO UNO MiniPrint AutoAux
|  2> %pal nproc 10 end
|  3> %maxcore 20000
|  4> %mdci
|  5>      density none
|  6> end
|  7>
|  8> * xyz 0 6
|  9>  O     -0.24917700     -0.27722500     -0.75375600
| 10>  C     -1.11927000     -1.19452400     -0.57679300
| 11>  C     -2.79926600     -0.31620800      0.63509800
| 12>  C     -2.76530300      0.86316100     -0.05291100
| 13>  C     -3.55260400      1.06958800     -1.31115500
| 14> Fe      1.48480700      0.16449400     -0.03492100
| 15> Cl      1.97982700      2.05532600     -1.01129600
| 16>  C     -1.87470900      1.99478200      0.33806000
| 17> Cl      2.70589400     -1.56400700     -0.60125500
| 18> Cl      1.27357000      0.36657900      2.14827900
| 19>  H     -3.52179800     -1.05572700      0.29263900
| 20>  H     -2.37937300      2.95800600      0.20433000
| 21>  H     -1.49516200      1.92456100      1.35740300
| 22>  H     -1.00738300      1.99948500     -0.34057400
| 23>  H     -4.25243200      1.90273200     -1.16334100
| 24>  H     -2.89764600      1.36349100     -2.14219500
| 25>  H     -4.13124000      0.18913300     -1.59902600
| 26>  C     -2.38094100     -0.44375000      2.08443600
| 27>  H     -3.07102200      0.13187600      2.71382100
| 28>  H     -2.43147900     -1.48139200      2.42047500
| 29>  H     -1.37193700     -0.07450000      2.27741900
| 30>  C     -0.81247800     -2.29097300      0.41358700
| 31>  H     -1.67954200     -2.91606800      0.63292900
| 32>  H     -0.04903200     -2.91223500     -0.07576600
| 33>  H     -0.37432300     -1.90525100      1.33346400
| 34>  C     -1.88566400     -1.61004100     -1.81079200
| 35>  H     -1.21773400     -2.28544900     -2.36240100
| 36>  H     -2.80215200     -2.15566900     -1.57968300
| 37>  H     -2.09584300     -0.75851700     -2.45604400
| 38> *
| 39>
| 40>
| 41>                          ****END OF INPUT****

CARTESIAN COORDINATES (ANGSTROEM)
---------------------------------
  O     -0.249177   -0.277225   -0.753756
  C     -1.119270   -1.194524   -0.576793
  C     -2.799266   -0.316208    0.635098
  C     -2.765303    0.863161   -0.052911
  C     -3.552604    1.069588   -1.311155
  Fe     1.484807    0.164494   -0.034921
  Cl     1.979827    2.055326   -1.011296
  C     -1.874709    1.994782    0.338060
  Cl     2.705894   -1.564007   -0.601255
  Cl     1.273570    0.366579    2.148279
  H     -3.521798   -1.055727    0.292639
  H     -2.379373    2.958006    0.204330
  H     -1.495162    1.924561    1.357403
  H     -1.007383    1.999485   -0.340574
  H     -4.252432    1.902732   -1.163341
  H     -2.897646    1.363491   -2.142195
  H     -4.131240    0.189133   -1.599026
  C     -2.380941   -0.443750    2.084436
  H     -3.071022    0.131876    2.713821
  H     -2.431479   -1.481392    2.420475
  H     -1.371937   -0.074500    2.277419
  C     -0.812478   -2.290973    0.413587
  H     -1.679542   -2.916068    0.632929
  H     -0.049032   -2.912235   -0.075766
  H     -0.374323   -1.905251    1.333464
  C     -1.885664   -1.610041   -1.810792
  H     -1.217734   -2.285449   -2.362401
  H     -2.802152   -2.155669   -1.579683
  H     -2.095843   -0.758517   -2.456044

ORBITAL ENERGIES
----------------
                 SPIN UP ORBITALS
  NO   OCC          E(Eh)            E(eV)
   0   1.0000    -261.565179     -7117.5504
   1   1.0000    -104.787035     -2851.4002
   2   1.0000    -104.783253     -2851.2973
   3   1.0000    -104.781298     -2851.2441
   4   1.0000     -32.232995      -877.1044
   5   1.0000     -27.709293      -754.0082
   6   1.0000     -27.708448      -753.9852
   7   1.0000     -27.708259      -753.9801
   8   1.0000     -20.595273      -560.4259
   9   1.0000     -11.412666      -310.5544
  10   1.0000     -11.303028      -307.5710
  11   1.0000     -11.269988      -306.6720
  12   1.0000     -11.265540      -306.5509
  13   1.0000     -11.261145      -306.4313
  14   1.0000     -11.259649      -306.3906
  15   1.0000     -11.243807      -305.9595
  16   1.0000     -11.240979      -305.8826
  17   1.0000     -10.513728      -286.0931
  18   1.0000     -10.509919      -285.9894
  19   1.0000     -10.507912      -285.9348
  20   1.0000      -7.980578      -217.1626
  21   1.0000      -7.979779      -217.1408
  22   1.0000      -7.979758      -217.1403
  23   1.0000      -7.976773      -217.0590
  24   1.0000      -7.976021      -217.0386
  25   1.0000      -7.975963      -217.0370
  26   1.0000      -7.974726      -217.0033
  27   1.0000      -7.974035      -216.9845
  28   1.0000      -7.973963      -216.9826
  29   1.0000      -4.588130      -124.8494
  30   1.0000      -3.201161       -87.1080
  31   1.0000      -3.199717       -87.0687
  32   1.0000      -3.199509       -87.0631
  33   1.0000      -1.438280       -39.1376
  34   1.0000      -1.148658       -31.2566
  35   1.0000      -1.091250       -29.6944
  36   1.0000      -1.059022       -28.8175
  37   1.0000      -1.053209       -28.6593
  38   1.0000      -1.049987       -28.5716
  39   1.0000      -1.030482       -28.0408
  40   1.0000      -1.000859       -27.2347
  41   1.0000      -0.976514       -26.5723
  42   1.0000      -0.933966       -25.4145
  43   1.0000      -0.917296       -24.9609
  44   1.0000      -0.917173       -24.9575
  45   1.0000      -0.909480       -24.7482
  46   1.0000      -0.907012       -24.6810
  47   1.0000      -0.906481       -24.6666
  48   1.0000      -0.802404       -21.8345
  49   1.0000      -0.747848       -20.3500
  50   1.0000      -0.697002       -18.9664
  51   1.0000      -0.688464       -18.7341
  52   1.0000      -0.682129       -18.5617
  53   1.0000      -0.668249       -18.1840
  54   1.0000      -0.636173       -17.3112
  55   1.0000      -0.622707       -16.9447
  56   1.0000      -0.605201       -16.4684
  57   1.0000      -0.595226       -16.1969
  58   1.0000      -0.582468       -15.8498
  59   1.0000      -0.575616       -15.6633
  60   1.0000      -0.566486       -15.4149
  61   1.0000      -0.560484       -15.2515
  62   1.0000      -0.554368       -15.0851
  63   1.0000      -0.542438       -14.7605
  64   1.0000      -0.537641       -14.6299
  65   1.0000      -0.526984       -14.3400
  66   1.0000      -0.510168       -13.8824
  67   1.0000      -0.491460       -13.3733
  68   1.0000      -0.470807       -12.8113
  69   1.0000      -0.466740       -12.7006
  70   1.0000      -0.438925       -11.9438
  71   1.0000      -0.434191       -11.8150
  72   1.0000      -0.431865       -11.7517
  73   1.0000      -0.423576       -11.5261
  74   1.0000      -0.422099       -11.4859
  75   1.0000      -0.420884       -11.4528
  76   1.0000      -0.371928       -10.1207
  77   0.0000       0.011265         0.3065
  78   0.0000       0.021534         0.5860
  79   0.0000       0.023099         0.6286
  80   0.0000       0.029104         0.7920
  81   0.0000       0.037571         1.0223

                 SPIN DOWN ORBITALS
  NO   OCC          E(Eh)            E(eV)
   0   1.0000    -261.561611     -7117.4533
   1   1.0000    -104.785585     -2851.3607
   2   1.0000    -104.781738     -2851.2560
   3   1.0000    -104.779794     -2851.2031
   4   1.0000     -32.070951      -872.6949
   5   1.0000     -27.548882      -749.6432
   6   1.0000     -27.548823      -749.6416
   7   1.0000     -27.548610      -749.6358
   8   1.0000     -20.591250      -560.3164
   9   1.0000     -11.412560      -310.5515
  10   1.0000     -11.302802      -307.5649
  11   1.0000     -11.269878      -306.6690
  12   1.0000     -11.265525      -306.5505
  13   1.0000     -11.261176      -306.4322
  14   1.0000     -11.259746      -306.3933
  15   1.0000     -11.243848      -305.9607
  16   1.0000     -11.240968      -305.8823
  17   1.0000     -10.512175      -286.0508
  18   1.0000     -10.508301      -285.9454
  19   1.0000     -10.506310      -285.8912
  20   1.0000      -7.978068      -217.0943
  21   1.0000      -7.977419      -217.0766
  22   1.0000      -7.977365      -217.0751
  23   1.0000      -7.974215      -216.9894
  24   1.0000      -7.973509      -216.9702
  25   1.0000      -7.973423      -216.9679
  26   1.0000      -7.972280      -216.9368
  27   1.0000      -7.971483      -216.9151
  28   1.0000      -7.971391      -216.9126
  29   1.0000      -4.145887      -112.8153
  30   1.0000      -2.667537       -72.5874
  31   1.0000      -2.667485       -72.5860
  32   1.0000      -2.666893       -72.5699
  33   1.0000      -1.428145       -38.8618
  34   1.0000      -1.148055       -31.2402
  35   1.0000      -1.088498       -29.6195
  36   1.0000      -1.043870       -28.4051
  37   1.0000      -1.032125       -28.0856
  38   1.0000      -1.029603       -28.0169
  39   1.0000      -1.027895       -27.9704
  40   1.0000      -1.000187       -27.2165
  41   1.0000      -0.976424       -26.5698
  42   1.0000      -0.909647       -24.7527
  43   1.0000      -0.816874       -22.2283
  44   1.0000      -0.747971       -20.3533
  45   1.0000      -0.699851       -19.0439
  46   1.0000      -0.687514       -18.7082
  47   1.0000      -0.681367       -18.5409
  48   1.0000      -0.668088       -18.1796
  49   1.0000      -0.636126       -17.3099
  50   1.0000      -0.622187       -16.9306
  51   1.0000      -0.604677       -16.4541
  52   1.0000      -0.595144       -16.1947
  53   1.0000      -0.582220       -15.8430
  54   1.0000      -0.574223       -15.6254
  55   1.0000      -0.566343       -15.4110
  56   1.0000      -0.560407       -15.2495
  57   1.0000      -0.554205       -15.0807
  58   1.0000      -0.540317       -14.7028
  59   1.0000      -0.536654       -14.6031
  60   1.0000      -0.516257       -14.0481
  61   1.0000      -0.509917       -13.8756
  62   1.0000      -0.491750       -13.3812
  63   1.0000      -0.477474       -12.9927
  64   1.0000      -0.474649       -12.9159
  65   1.0000      -0.447649       -12.1812
  66   1.0000      -0.443751       -12.0751
  67   1.0000      -0.441297       -12.0083
  68   1.0000      -0.426383       -11.6025
  69   1.0000      -0.421313       -11.4645
  70   1.0000      -0.407058       -11.0766
  71   1.0000      -0.370357       -10.0779
  72   0.0000       0.011251         0.3062
  73   0.0000       0.021512         0.5854
  74   0.0000       0.023078         0.6280
  75   0.0000       0.028880         0.7859
  76   0.0000       0.036915         1.0045

E(0)                                       ...  -3028.443369252
E(0)                                       ...  -3028.443369252
E(CORR)(strong-pairs)                      ...     -2.871924376
E(CORR)(weak-pairs)                        ...     -0.036481131
E(CORR)(corrected)                         ...     -2.908405507
E(TOT)                                     ...  -3031.351774759
E(CCSD(T))                                 ...  -3031.471263442
FINAL SINGLE POINT ENERGY     -3031.471263441500

DIPOLE MOMENT
-------------
                                X             Y             Z
Electronic contribution:     43.15046       5.64792       0.61460
Nuclear contribution   :    -47.20198      -6.68363      -1.09001
                        -----------------------------------------
Total Dipole Moment    :     -4.05152      -1.03571      -0.47541
                        -----------------------------------------
Magnitude (a.u.)       :      4.20875
Magnitude (Debye)      :     10.69778

Rotational constants in cm-1:     0.019202     0.010689     0.010087
Rotational constants in MHz :   575.669943   320.440054   302.396935

                             ****ORCA TERMINATED NORMALLY****
TOTAL RUN TIME: 0 days 17 hours 50 minutes 19 seconds 668 msec
