                         Program Version 4.1.2  - RELEASE  -
|  1> ! aug-cc-pVTZ aug-cc-pVTZ/C DLPNO-CCSD(T1) TightSCF NormalPNO UNO MiniPrint AutoAux
|  2> %pal nproc 10 end
|  3> %maxcore 20000
|  4> %mdci
|  5>      density none
|  6> end
|  7>
|  8> * xyz 0 6
|  9>  O      0.18227900      0.42214100     -0.87632200
| 10>  C      0.93477400      1.39783300     -0.66325100
| 11>  C      3.14244600      0.05844000      0.54286500
| 12>  C      2.65795000     -0.93895800     -0.22175900
| 13>  C      3.09146200     -1.10945400     -1.65368300
| 14> Fe     -1.48385200     -0.17091400      0.02032900
| 15> Cl     -2.06936800     -1.96903900     -1.04858100
| 16>  C      1.71636600     -2.00261500      0.26536600
| 17> Cl     -2.74075600      1.58888800     -0.31342100
| 18> Cl     -1.05391100     -0.47741500      2.14846200
| 19>  H      3.87082800      0.72897800      0.08442800
| 20>  H      2.22211600     -2.97769600      0.25482800
| 21>  H      1.33958700     -1.82905000      1.27299200
| 22>  H      0.85836500     -2.09933000     -0.41150600
| 23>  H      3.58525800     -2.08118500     -1.78555800
| 24>  H      2.22393000     -1.11230700     -2.32689900
| 25>  H      3.79043700     -0.33155700     -1.97508000
| 26>  C      2.93118200      0.25484600      2.01939300
| 27>  H      3.76124800     -0.18947500      2.58581700
| 28>  H      2.91090400      1.31806700      2.28252600
| 29>  H      2.00561100     -0.19881000      2.38234000
| 30>  C      0.79312400      2.23231900      0.56923000
| 31>  H      1.67403800      2.85000600      0.74826500
| 32>  H     -0.07099800      2.89217400      0.40025700
| 33>  H      0.56612300      1.62000600      1.44281300
| 34>  C      1.76960200      1.91451300     -1.79292700
| 35>  H      1.22501900      2.77239300     -2.21446800
| 36>  H      2.73895300      2.27764600     -1.44739600
| 37>  H      1.88765900      1.16386900     -2.57256600
| 38> *
| 39>
| 40>
| 41>                          ****END OF INPUT****

CARTESIAN COORDINATES (ANGSTROEM)
---------------------------------
  O      0.182279    0.422141   -0.876322
  C      0.934774    1.397833   -0.663251
  C      3.142446    0.058440    0.542865
  C      2.657950   -0.938958   -0.221759
  C      3.091462   -1.109454   -1.653683
  Fe    -1.483852   -0.170914    0.020329
  Cl    -2.069368   -1.969039   -1.048581
  C      1.716366   -2.002615    0.265366
  Cl    -2.740756    1.588888   -0.313421
  Cl    -1.053911   -0.477415    2.148462
  H      3.870828    0.728978    0.084428
  H      2.222116   -2.977696    0.254828
  H      1.339587   -1.829050    1.272992
  H      0.858365   -2.099330   -0.411506
  H      3.585258   -2.081185   -1.785558
  H      2.223930   -1.112307   -2.326899
  H      3.790437   -0.331557   -1.975080
  C      2.931182    0.254846    2.019393
  H      3.761248   -0.189475    2.585817
  H      2.910904    1.318067    2.282526
  H      2.005611   -0.198810    2.382340
  C      0.793124    2.232319    0.569230
  H      1.674038    2.850006    0.748265
  H     -0.070998    2.892174    0.400257
  H      0.566123    1.620006    1.442813
  C      1.769602    1.914513   -1.792927
  H      1.225019    2.772393   -2.214468
  H      2.738953    2.277646   -1.447396
  H      1.887659    1.163869   -2.572566

ORBITAL ENERGIES
----------------
                 SPIN UP ORBITALS
  NO   OCC          E(Eh)            E(eV)
   0   1.0000    -261.578463     -7117.9119
   1   1.0000    -104.795599     -2851.6332
   2   1.0000    -104.792529     -2851.5497
   3   1.0000    -104.790560     -2851.4961
   4   1.0000     -32.246127      -877.4617
   5   1.0000     -27.722665      -754.3721
   6   1.0000     -27.721435      -754.3386
   7   1.0000     -27.721239      -754.3333
   8   1.0000     -20.626695      -561.2809
   9   1.0000     -11.422289      -310.8163
  10   1.0000     -11.279433      -306.9290
  11   1.0000     -11.273630      -306.7711
  12   1.0000     -11.259826      -306.3954
  13   1.0000     -11.240355      -305.8656
  14   1.0000     -11.239283      -305.8364
  15   1.0000     -11.234805      -305.7146
  16   1.0000     -11.226248      -305.4817
  17   1.0000     -10.522334      -286.3273
  18   1.0000     -10.519232      -286.2428
  19   1.0000     -10.517211      -286.1879
  20   1.0000      -7.989156      -217.3960
  21   1.0000      -7.988422      -217.3760
  22   1.0000      -7.988364      -217.3744
  23   1.0000      -7.986119      -217.3134
  24   1.0000      -7.985325      -217.2917
  25   1.0000      -7.985272      -217.2903
  26   1.0000      -7.983993      -217.2555
  27   1.0000      -7.983343      -217.2378
  28   1.0000      -7.983300      -217.2366
  29   1.0000      -4.600898      -125.1968
  30   1.0000      -3.214067       -87.4592
  31   1.0000      -3.212240       -87.4095
  32   1.0000      -3.212115       -87.4061
  33   1.0000      -1.470318       -40.0094
  34   1.0000      -1.120494       -30.4902
  35   1.0000      -1.103147       -30.0181
  36   1.0000      -1.069053       -29.0904
  37   1.0000      -1.063231       -28.9320
  38   1.0000      -1.060417       -28.8554
  39   1.0000      -1.020984       -27.7824
  40   1.0000      -1.009029       -27.4571
  41   1.0000      -0.954490       -25.9730
  42   1.0000      -0.944716       -25.7070
  43   1.0000      -0.929745       -25.2996
  44   1.0000      -0.929605       -25.2958
  45   1.0000      -0.918710       -24.9994
  46   1.0000      -0.918088       -24.9825
  47   1.0000      -0.892198       -24.2779
  48   1.0000      -0.817028       -22.2325
  49   1.0000      -0.724779       -19.7223
  50   1.0000      -0.715809       -19.4782
  51   1.0000      -0.705694       -19.2029
  52   1.0000      -0.684817       -18.6348
  53   1.0000      -0.650796       -17.7091
  54   1.0000      -0.621573       -16.9139
  55   1.0000      -0.617235       -16.7958
  56   1.0000      -0.604126       -16.4391
  57   1.0000      -0.599887       -16.3238
  58   1.0000      -0.586423       -15.9574
  59   1.0000      -0.580131       -15.7862
  60   1.0000      -0.561111       -15.2686
  61   1.0000      -0.548477       -14.9248
  62   1.0000      -0.546947       -14.8832
  63   1.0000      -0.537675       -14.6309
  64   1.0000      -0.536777       -14.6064
  65   1.0000      -0.523169       -14.2362
  66   1.0000      -0.506228       -13.7752
  67   1.0000      -0.488962       -13.3053
  68   1.0000      -0.478623       -13.0240
  69   1.0000      -0.478183       -13.0120
  70   1.0000      -0.448763       -12.2115
  71   1.0000      -0.442321       -12.0362
  72   1.0000      -0.440499       -11.9866
  73   1.0000      -0.431909       -11.7528
  74   1.0000      -0.430932       -11.7263
  75   1.0000      -0.429671       -11.6920
  76   1.0000      -0.356209        -9.6929
  77   0.0000       0.012725         0.3463
  78   0.0000       0.023902         0.6504
  79   0.0000       0.024716         0.6725
  80   0.0000       0.030863         0.8398
  81   0.0000       0.039488         1.0745

                 SPIN DOWN ORBITALS
  NO   OCC          E(Eh)            E(eV)
   0   1.0000    -261.574876     -7117.8142
   1   1.0000    -104.794099     -2851.5924
   2   1.0000    -104.790964     -2851.5071
   3   1.0000    -104.788980     -2851.4531
   4   1.0000     -32.084156      -873.0543
   5   1.0000     -27.562109      -750.0031
   6   1.0000     -27.561977      -749.9995
   7   1.0000     -27.561900      -749.9974
   8   1.0000     -20.623343      -561.1897
   9   1.0000     -11.422224      -310.8145
  10   1.0000     -11.279328      -306.9261
  11   1.0000     -11.273623      -306.7709
  12   1.0000     -11.259869      -306.3966
  13   1.0000     -11.240295      -305.8640
  14   1.0000     -11.239277      -305.8363
  15   1.0000     -11.234810      -305.7147
  16   1.0000     -11.226256      -305.4819
  17   1.0000     -10.520732      -286.2837
  18   1.0000     -10.517561      -286.1974
  19   1.0000     -10.515535      -286.1422
  20   1.0000      -7.986662      -217.3281
  21   1.0000      -7.985892      -217.3072
  22   1.0000      -7.985855      -217.3062
  23   1.0000      -7.983431      -217.2402
  24   1.0000      -7.982754      -217.2218
  25   1.0000      -7.982660      -217.2192
  26   1.0000      -7.981532      -217.1885
  27   1.0000      -7.980608      -217.1634
  28   1.0000      -7.980528      -217.1612
  29   1.0000      -4.158876      -113.1688
  30   1.0000      -2.680413       -72.9377
  31   1.0000      -2.680372       -72.9366
  32   1.0000      -2.679954       -72.9252
  33   1.0000      -1.462181       -39.7880
  34   1.0000      -1.120197       -30.4821
  35   1.0000      -1.100961       -29.9587
  36   1.0000      -1.053261       -28.6607
  37   1.0000      -1.040636       -28.3171
  38   1.0000      -1.037465       -28.2309
  39   1.0000      -1.020031       -27.7565
  40   1.0000      -1.008786       -27.4505
  41   1.0000      -0.954347       -25.9691
  42   1.0000      -0.892276       -24.2801
  43   1.0000      -0.829338       -22.5674
  44   1.0000      -0.724865       -19.7246
  45   1.0000      -0.717395       -19.5213
  46   1.0000      -0.704947       -19.1826
  47   1.0000      -0.684257       -18.6196
  48   1.0000      -0.650750       -17.7078
  49   1.0000      -0.620998       -16.8982
  50   1.0000      -0.617157       -16.7937
  51   1.0000      -0.603977       -16.4351
  52   1.0000      -0.599811       -16.3217
  53   1.0000      -0.586146       -15.9498
  54   1.0000      -0.578726       -15.7479
  55   1.0000      -0.560235       -15.2448
  56   1.0000      -0.548036       -14.9128
  57   1.0000      -0.544889       -14.8272
  58   1.0000      -0.536798       -14.6070
  59   1.0000      -0.527104       -14.3432
  60   1.0000      -0.522713       -14.2237
  61   1.0000      -0.508107       -13.8263
  62   1.0000      -0.489029       -13.3072
  63   1.0000      -0.486774       -13.2458
  64   1.0000      -0.484657       -13.1882
  65   1.0000      -0.455729       -12.4010
  66   1.0000      -0.452666       -12.3177
  67   1.0000      -0.449554       -12.2330
  68   1.0000      -0.433065       -11.7843
  69   1.0000      -0.431154       -11.7323
  70   1.0000      -0.414938       -11.2911
  71   1.0000      -0.355828        -9.6826
  72   0.0000       0.012708         0.3458
  73   0.0000       0.023878         0.6497
  74   0.0000       0.024676         0.6715
  75   0.0000       0.030809         0.8384
  76   0.0000       0.039407         1.0723

E(0)                                       ...  -3028.472100469
E(0)                                       ...  -3028.472100469
E(CORR)(strong-pairs)                      ...     -2.865451082
E(CORR)(weak-pairs)                        ...     -0.035369550
E(CORR)(corrected)                         ...     -2.900820631
E(TOT)                                     ...  -3031.372921101
E(CCSD(T))                                 ...  -3031.490502433
FINAL SINGLE POINT ENERGY     -3031.490502433345

DIPOLE MOMENT
-------------
                                X             Y             Z
Electronic contribution:    -43.75266      -4.86242       1.78442
Nuclear contribution   :     46.88400       6.44716      -2.40493
                        -----------------------------------------
Total Dipole Moment    :      3.13134       1.58473      -0.62051
                        -----------------------------------------
Magnitude (a.u.)       :      3.56395
Magnitude (Debye)      :      9.05884

Rotational constants in cm-1:     0.018706     0.010636     0.010018
Rotational constants in MHz :   560.783290   318.868296   300.324370

                             ****ORCA TERMINATED NORMALLY****
TOTAL RUN TIME: 0 days 21 hours 12 minutes 26 seconds 757 msec
