                         Program Version 4.1.2  - RELEASE  -
|  1> ! aug-cc-pVTZ aug-cc-pVTZ/C DLPNO-CCSD(T1) TightSCF NormalPNO UNO MiniPrint AutoAux
|  2> %pal nproc 10 end
|  3> %maxcore 20000
|  4> %mdci
|  5>      density none
|  6> end
|  7>
|  8> * xyz 0 6
|  9>  O     -0.33161900     -0.21873500     -0.56773400
| 10>  C     -1.28343800     -1.18426100     -0.38129600
| 11>  C     -2.50008400     -0.49047500      0.49102100
| 12>  C     -2.59328900      0.84544400     -0.06284500
| 13>  C     -3.43774100      1.11436200     -1.25061600
| 14> Fe      1.40340400      0.14665600     -0.06530100
| 15> Cl      1.54553900      2.27264100     -0.73820900
| 16>  C     -1.82282500      1.96164200      0.46431700
| 17> Cl      2.76902300     -1.28800100     -1.01480600
| 18> Cl      1.45529600      0.05952900      2.15990400
| 19>  H     -3.39162300     -1.06462800      0.21849400
| 20>  H     -2.22598600      2.93850400      0.18818000
| 21>  H     -1.59307800      1.89357500      1.52777900
| 22>  H     -0.83692800      1.86686800     -0.05288100
| 23>  H     -4.20234300      1.84988600     -0.95963100
| 24>  H     -2.83634600      1.60348000     -2.02922100
| 25>  H     -3.92992400      0.22910900     -1.65066400
| 26>  C     -2.24603600     -0.54325600      2.00397900
| 27>  H     -2.97317700      0.07948000      2.53560500
| 28>  H     -2.36524800     -1.56750400      2.36164500
| 29>  H     -1.23874000     -0.20938400      2.26192000
| 30>  C     -0.75871700     -2.39669300      0.39937000
| 31>  H     -1.54472800     -3.13602500      0.58472900
| 32>  H      0.01816300     -2.86071400     -0.21735700
| 33>  H     -0.30023200     -2.10423000      1.34441100
| 34>  C     -1.81504700     -1.64529200     -1.74752900
| 35>  H     -1.00438300     -2.17794500     -2.25271700
| 36>  H     -2.67052000     -2.32297100     -1.65250400
| 37>  H     -2.08496600     -0.80039700     -2.38359800
| 38> *
| 39>
| 40>
| 41>                          ****END OF INPUT****

CARTESIAN COORDINATES (ANGSTROEM)
---------------------------------
  O     -0.331619   -0.218735   -0.567734
  C     -1.283438   -1.184261   -0.381296
  C     -2.500084   -0.490475    0.491021
  C     -2.593289    0.845444   -0.062845
  C     -3.437741    1.114362   -1.250616
  Fe     1.403404    0.146656   -0.065301
  Cl     1.545539    2.272641   -0.738209
  C     -1.822825    1.961642    0.464317
  Cl     2.769023   -1.288001   -1.014806
  Cl     1.455296    0.059529    2.159904
  H     -3.391623   -1.064628    0.218494
  H     -2.225986    2.938504    0.188180
  H     -1.593078    1.893575    1.527779
  H     -0.836928    1.866868   -0.052881
  H     -4.202343    1.849886   -0.959631
  H     -2.836346    1.603480   -2.029221
  H     -3.929924    0.229109   -1.650664
  C     -2.246036   -0.543256    2.003979
  H     -2.973177    0.079480    2.535605
  H     -2.365248   -1.567504    2.361645
  H     -1.238740   -0.209384    2.261920
  C     -0.758717   -2.396693    0.399370
  H     -1.544728   -3.136025    0.584729
  H      0.018163   -2.860714   -0.217357
  H     -0.300232   -2.104230    1.344411
  C     -1.815047   -1.645292   -1.747529
  H     -1.004383   -2.177945   -2.252717
  H     -2.670520   -2.322971   -1.652504
  H     -2.084966   -0.800397   -2.383598

ORBITAL ENERGIES
----------------
                 SPIN UP ORBITALS
  NO   OCC          E(Eh)            E(eV)
   0   1.0000    -261.539362     -7116.8478
   1   1.0000    -104.769475     -2850.9223
   2   1.0000    -104.769380     -2850.9198
   3   1.0000    -104.765790     -2850.8221
   4   1.0000     -32.207275      -876.4045
   5   1.0000     -27.683233      -753.2991
   6   1.0000     -27.682998      -753.2927
   7   1.0000     -27.682680      -753.2840
   8   1.0000     -20.530157      -558.6540
   9   1.0000     -11.410728      -310.5017
  10   1.0000     -11.339166      -308.5544
  11   1.0000     -11.306241      -307.6584
  12   1.0000     -11.291014      -307.2441
  13   1.0000     -11.277989      -306.8897
  14   1.0000     -11.254326      -306.2458
  15   1.0000     -11.239827      -305.8512
  16   1.0000     -11.230751      -305.6043
  17   1.0000     -10.496052      -285.6121
  18   1.0000     -10.495855      -285.6067
  19   1.0000     -10.492345      -285.5112
  20   1.0000      -7.962955      -216.6830
  21   1.0000      -7.962699      -216.6760
  22   1.0000      -7.962082      -216.6593
  23   1.0000      -7.962022      -216.6576
  24   1.0000      -7.961911      -216.6546
  25   1.0000      -7.961808      -216.6518
  26   1.0000      -7.959124      -216.5788
  27   1.0000      -7.958467      -216.5609
  28   1.0000      -7.958378      -216.5585
  29   1.0000      -4.562840      -124.1612
  30   1.0000      -3.175361       -86.4060
  31   1.0000      -3.175016       -86.3966
  32   1.0000      -3.174526       -86.3832
  33   1.0000      -1.361148       -37.0387
  34   1.0000      -1.202393       -32.7188
  35   1.0000      -1.093054       -29.7435
  36   1.0000      -1.045061       -28.4376
  37   1.0000      -1.039584       -28.2885
  38   1.0000      -1.034856       -28.1599
  39   1.0000      -1.032380       -28.0925
  40   1.0000      -1.020296       -27.7637
  41   1.0000      -0.965842       -26.2819
  42   1.0000      -0.933511       -25.4021
  43   1.0000      -0.903730       -24.5917
  44   1.0000      -0.892600       -24.2889
  45   1.0000      -0.892404       -24.2835
  46   1.0000      -0.884728       -24.0747
  47   1.0000      -0.884540       -24.0696
  48   1.0000      -0.806046       -21.9336
  49   1.0000      -0.764932       -20.8149
  50   1.0000      -0.715119       -19.4594
  51   1.0000      -0.695356       -18.9216
  52   1.0000      -0.681048       -18.5323
  53   1.0000      -0.646578       -17.5943
  54   1.0000      -0.641750       -17.4629
  55   1.0000      -0.627775       -17.0826
  56   1.0000      -0.610749       -16.6193
  57   1.0000      -0.601772       -16.3751
  58   1.0000      -0.589811       -16.0496
  59   1.0000      -0.587387       -15.9836
  60   1.0000      -0.570588       -15.5265
  61   1.0000      -0.559673       -15.2295
  62   1.0000      -0.553760       -15.0686
  63   1.0000      -0.536364       -14.5952
  64   1.0000      -0.525867       -14.3096
  65   1.0000      -0.520532       -14.1644
  66   1.0000      -0.500354       -13.6153
  67   1.0000      -0.463628       -12.6160
  68   1.0000      -0.460471       -12.5300
  69   1.0000      -0.440034       -11.9739
  70   1.0000      -0.429700       -11.6927
  71   1.0000      -0.419815       -11.4238
  72   1.0000      -0.415064       -11.2945
  73   1.0000      -0.411482       -11.1970
  74   1.0000      -0.407974       -11.1015
  75   1.0000      -0.407171       -11.0797
  76   1.0000      -0.405791       -11.0421
  77   0.0000      -0.005055        -0.1376
  78   0.0000       0.002349         0.0639
  79   0.0000       0.017673         0.4809
  80   0.0000       0.018809         0.5118
  81   0.0000       0.028630         0.7791

                 SPIN DOWN ORBITALS
  NO   OCC          E(Eh)            E(eV)
   0   1.0000    -261.535817     -7116.7514
   1   1.0000    -104.768145     -2850.8862
   2   1.0000    -104.768124     -2850.8856
   3   1.0000    -104.764392     -2850.7840
   4   1.0000     -32.045249      -871.9956
   5   1.0000     -27.523432      -748.9507
   6   1.0000     -27.523158      -748.9432
   7   1.0000     -27.522558      -748.9269
   8   1.0000     -20.523759      -558.4799
   9   1.0000     -11.410749      -310.5023
  10   1.0000     -11.338989      -308.5496
  11   1.0000     -11.306238      -307.6584
  12   1.0000     -11.290870      -307.2402
  13   1.0000     -11.278022      -306.8906
  14   1.0000     -11.254342      -306.2462
  15   1.0000     -11.239716      -305.8482
  16   1.0000     -11.230704      -305.6030
  17   1.0000     -10.494618      -285.5731
  18   1.0000     -10.494503      -285.5699
  19   1.0000     -10.490849      -285.4705
  20   1.0000      -7.960474      -216.6155
  21   1.0000      -7.960388      -216.6132
  22   1.0000      -7.960016      -216.6030
  23   1.0000      -7.959944      -216.6011
  24   1.0000      -7.959938      -216.6009
  25   1.0000      -7.959824      -216.5978
  26   1.0000      -7.956866      -216.5173
  27   1.0000      -7.956082      -216.4960
  28   1.0000      -7.956013      -216.4941
  29   1.0000      -4.120732      -112.1308
  30   1.0000      -2.642690       -71.9113
  31   1.0000      -2.642591       -71.9086
  32   1.0000      -2.641762       -71.8860
  33   1.0000      -1.344781       -36.5934
  34   1.0000      -1.201212       -32.6866
  35   1.0000      -1.090302       -29.6686
  36   1.0000      -1.043781       -28.4027
  37   1.0000      -1.025908       -27.9164
  38   1.0000      -1.020039       -27.7567
  39   1.0000      -1.015190       -27.6247
  40   1.0000      -1.012690       -27.5567
  41   1.0000      -0.964987       -26.2586
  42   1.0000      -0.932528       -25.3754
  43   1.0000      -0.810027       -22.0420
  44   1.0000      -0.773063       -21.0361
  45   1.0000      -0.716138       -19.4871
  46   1.0000      -0.694847       -18.9078
  47   1.0000      -0.681446       -18.5431
  48   1.0000      -0.646214       -17.5844
  49   1.0000      -0.643845       -17.5199
  50   1.0000      -0.625887       -17.0313
  51   1.0000      -0.610849       -16.6220
  52   1.0000      -0.602143       -16.3851
  53   1.0000      -0.589918       -16.0525
  54   1.0000      -0.585947       -15.9444
  55   1.0000      -0.568973       -15.4825
  56   1.0000      -0.559572       -15.2267
  57   1.0000      -0.552560       -15.0359
  58   1.0000      -0.535494       -14.5715
  59   1.0000      -0.522895       -14.2287
  60   1.0000      -0.516953       -14.0670
  61   1.0000      -0.495254       -13.4766
  62   1.0000      -0.462967       -12.5980
  63   1.0000      -0.460468       -12.5300
  64   1.0000      -0.444664       -12.0999
  65   1.0000      -0.438305       -11.9269
  66   1.0000      -0.430832       -11.7235
  67   1.0000      -0.426390       -11.6027
  68   1.0000      -0.425446       -11.5770
  69   1.0000      -0.405526       -11.0349
  70   1.0000      -0.396247       -10.7824
  71   1.0000      -0.393897       -10.7185
  72   0.0000      -0.005329        -0.1450
  73   0.0000       0.002344         0.0638
  74   0.0000       0.017668         0.4808
  75   0.0000       0.018796         0.5115
  76   0.0000       0.028652         0.7796

E(0)                                       ...  -3028.425970177
E(0)                                       ...  -3028.425970177
E(CORR)(strong-pairs)                      ...     -2.870440700
E(CORR)(weak-pairs)                        ...     -0.035911132
E(CORR)(corrected)                         ...     -2.906351832
E(TOT)                                     ...  -3031.332322009
E(CCSD(T))                                 ...  -3031.449928078
FINAL SINGLE POINT ENERGY     -3031.449928077710

DIPOLE MOMENT
-------------
                                X             Y             Z
Electronic contribution:     39.56422       7.67096       0.27675
Nuclear contribution   :    -45.10225      -7.55533      -0.49819
                        -----------------------------------------
Total Dipole Moment    :     -5.53803       0.11563      -0.22144
                        -----------------------------------------
Magnitude (a.u.)       :      5.54367
Magnitude (Debye)      :     14.09088

Rotational constants in cm-1:     0.019153     0.011422     0.010599
Rotational constants in MHz :   574.201784   342.435749   317.748299

                             ****ORCA TERMINATED NORMALLY****
TOTAL RUN TIME: 0 days 21 hours 11 minutes 55 seconds 502 msec
