                         Program Version 4.1.2  - RELEASE  -
|  1> ! aug-cc-pVTZ aug-cc-pVTZ/C DLPNO-CCSD(T1) TightSCF NormalPNO UNO MiniPrint AutoAux
|  2> %pal nproc 10 end
|  3> %maxcore 20000
|  4> %mdci
|  5>      density none
|  6> end
|  7>
|  8> * xyz 0 6
|  9>  O     -0.29579500     -0.13259800     -0.42689500
| 10>  C     -1.19166300     -1.06323300     -0.17660800
| 11>  C     -2.57369400     -0.25726900      0.84828500
| 12>  C     -3.11821800      0.64872200     -0.07193900
| 13>  C     -4.27737500      0.29660000     -0.93598100
| 14> Fe      1.54336600      0.16917100     -0.10431900
| 15> Cl      1.89575800      2.11899200     -1.04871100
| 16>  C     -2.44130500      1.94196100     -0.30034600
| 17> Cl      2.52605300     -1.56054200     -1.04430100
| 18> Cl      1.86530100      0.22168800      2.07991900
| 19>  H     -3.20111500     -1.13158900      1.02464100
| 20>  H     -2.93856700      2.56884700     -1.04263800
| 21>  H     -2.29287700      2.50279400      0.62878800
| 22>  H     -1.41773000      1.68926000     -0.64853800
| 23>  H     -5.11062600      0.96524500     -0.67284800
| 24>  H     -4.05814000      0.49110300     -1.99330800
| 25>  H     -4.61005900     -0.73510200     -0.80916500
| 26>  C     -1.87626500      0.28814400      2.08995400
| 27>  H     -2.51483100      1.02602200      2.58760400
| 28>  H     -1.67921700     -0.51197000      2.80436200
| 29>  H     -0.92286000      0.76203900      1.85013100
| 30>  C     -0.74182600     -2.15048400      0.80042900
| 31>  H     -1.56101500     -2.81086100      1.09564800
| 32>  H      0.00965700     -2.74238300      0.26353800
| 33>  H     -0.25699400     -1.73117100      1.68162900
| 34>  C     -1.82107500     -1.63459600     -1.44099400
| 35>  H     -1.06058900     -2.26284100     -1.91800700
| 36>  H     -2.69750300     -2.25433800     -1.23114200
| 37>  H     -2.08107300     -0.84414200     -2.14744500
| 38> *
| 39>
| 40>
| 41>                          ****END OF INPUT****

CARTESIAN COORDINATES (ANGSTROEM)
---------------------------------
  O     -0.295795   -0.132598   -0.426895
  C     -1.191663   -1.063233   -0.176608
  C     -2.573694   -0.257269    0.848285
  C     -3.118218    0.648722   -0.071939
  C     -4.277375    0.296600   -0.935981
  Fe     1.543366    0.169171   -0.104319
  Cl     1.895758    2.118992   -1.048711
  C     -2.441305    1.941961   -0.300346
  Cl     2.526053   -1.560542   -1.044301
  Cl     1.865301    0.221688    2.079919
  H     -3.201115   -1.131589    1.024641
  H     -2.938567    2.568847   -1.042638
  H     -2.292877    2.502794    0.628788
  H     -1.417730    1.689260   -0.648538
  H     -5.110626    0.965245   -0.672848
  H     -4.058140    0.491103   -1.993308
  H     -4.610059   -0.735102   -0.809165
  C     -1.876265    0.288144    2.089954
  H     -2.514831    1.026022    2.587604
  H     -1.679217   -0.511970    2.804362
  H     -0.922860    0.762039    1.850131
  C     -0.741826   -2.150484    0.800429
  H     -1.561015   -2.810861    1.095648
  H      0.009657   -2.742383    0.263538
  H     -0.256994   -1.731171    1.681629
  C     -1.821075   -1.634596   -1.440994
  H     -1.060589   -2.262841   -1.918007
  H     -2.697503   -2.254338   -1.231142
  H     -2.081073   -0.844142   -2.147445

ORBITAL ENERGIES
----------------
                 SPIN UP ORBITALS
  NO   OCC          E(Eh)            E(eV)
   0   1.0000    -261.547169     -7117.0603
   1   1.0000    -104.772122     -2850.9944
   2   1.0000    -104.769704     -2850.9286
   3   1.0000    -104.769244     -2850.9161
   4   1.0000     -32.215054      -876.6162
   5   1.0000     -27.691131      -753.5140
   6   1.0000     -27.690618      -753.5000
   7   1.0000     -27.690468      -753.4959
   8   1.0000     -20.557104      -559.3872
   9   1.0000     -11.378666      -309.6292
  10   1.0000     -11.368646      -309.3566
  11   1.0000     -11.294306      -307.3337
  12   1.0000     -11.282100      -307.0015
  13   1.0000     -11.271905      -306.7241
  14   1.0000     -11.254527      -306.2513
  15   1.0000     -11.250257      -306.1351
  16   1.0000     -11.246189      -306.0244
  17   1.0000     -10.498774      -285.6862
  18   1.0000     -10.496303      -285.6189
  19   1.0000     -10.495877      -285.6073
  20   1.0000      -7.965639      -216.7560
  21   1.0000      -7.964831      -216.7341
  22   1.0000      -7.964789      -216.7329
  23   1.0000      -7.963119      -216.6875
  24   1.0000      -7.962743      -216.6773
  25   1.0000      -7.962424      -216.6686
  26   1.0000      -7.962327      -216.6659
  27   1.0000      -7.961972      -216.6563
  28   1.0000      -7.961889      -216.6540
  29   1.0000      -4.570395      -124.3668
  30   1.0000      -3.183131       -86.6174
  31   1.0000      -3.182315       -86.5952
  32   1.0000      -3.181919       -86.5844
  33   1.0000      -1.393888       -37.9296
  34   1.0000      -1.186291       -32.2806
  35   1.0000      -1.079831       -29.3837
  36   1.0000      -1.046025       -28.4638
  37   1.0000      -1.043436       -28.3933
  38   1.0000      -1.038110       -28.2484
  39   1.0000      -1.036150       -28.1951
  40   1.0000      -1.011104       -27.5135
  41   1.0000      -0.979055       -26.6414
  42   1.0000      -0.927258       -25.2320
  43   1.0000      -0.914228       -24.8774
  44   1.0000      -0.899766       -24.4839
  45   1.0000      -0.899752       -24.4835
  46   1.0000      -0.890549       -24.2331
  47   1.0000      -0.890140       -24.2219
  48   1.0000      -0.791317       -21.5328
  49   1.0000      -0.768952       -20.9242
  50   1.0000      -0.701033       -19.0761
  51   1.0000      -0.691351       -18.8126
  52   1.0000      -0.667844       -18.1729
  53   1.0000      -0.662671       -18.0322
  54   1.0000      -0.655512       -17.8374
  55   1.0000      -0.632106       -17.2005
  56   1.0000      -0.605075       -16.4649
  57   1.0000      -0.597493       -16.2586
  58   1.0000      -0.591462       -16.0945
  59   1.0000      -0.579261       -15.7625
  60   1.0000      -0.577988       -15.7278
  61   1.0000      -0.564000       -15.3472
  62   1.0000      -0.558967       -15.2103
  63   1.0000      -0.542299       -14.7567
  64   1.0000      -0.533707       -14.5229
  65   1.0000      -0.524683       -14.2773
  66   1.0000      -0.507830       -13.8188
  67   1.0000      -0.471138       -12.8203
  68   1.0000      -0.458663       -12.4809
  69   1.0000      -0.447361       -12.1733
  70   1.0000      -0.425790       -11.5863
  71   1.0000      -0.422527       -11.4975
  72   1.0000      -0.418830       -11.3969
  73   1.0000      -0.410697       -11.1756
  74   1.0000      -0.408835       -11.1250
  75   1.0000      -0.408382       -11.1126
  76   1.0000      -0.396622       -10.7926
  77   0.0000       0.004123         0.1122
  78   0.0000       0.008538         0.2323
  79   0.0000       0.018212         0.4956
  80   0.0000       0.019416         0.5283
  81   0.0000       0.027990         0.7616

                 SPIN DOWN ORBITALS
  NO   OCC          E(Eh)            E(eV)
   0   1.0000    -261.543613     -7116.9635
   1   1.0000    -104.770716     -2850.9561
   2   1.0000    -104.768291     -2850.8901
   3   1.0000    -104.767799     -2850.8768
   4   1.0000     -32.052962      -872.2055
   5   1.0000     -27.530973      -749.1558
   6   1.0000     -27.530878      -749.1533
   7   1.0000     -27.530483      -749.1425
   8   1.0000     -20.552268      -559.2557
   9   1.0000     -11.378651      -309.6288
  10   1.0000     -11.368328      -309.3479
  11   1.0000     -11.294350      -307.3349
  12   1.0000     -11.282068      -307.0007
  13   1.0000     -11.271945      -306.7252
  14   1.0000     -11.254422      -306.2484
  15   1.0000     -11.250283      -306.1358
  16   1.0000     -11.246184      -306.0242
  17   1.0000     -10.497265      -285.6451
  18   1.0000     -10.494792      -285.5778
  19   1.0000     -10.494328      -285.5652
  20   1.0000      -7.963165      -216.6887
  21   1.0000      -7.962561      -216.6723
  22   1.0000      -7.962497      -216.6705
  23   1.0000      -7.960770      -216.6236
  24   1.0000      -7.960241      -216.6092
  25   1.0000      -7.960056      -216.6041
  26   1.0000      -7.959954      -216.6014
  27   1.0000      -7.959605      -216.5919
  28   1.0000      -7.959516      -216.5894
  29   1.0000      -4.128053      -112.3300
  30   1.0000      -2.649828       -72.1055
  31   1.0000      -2.649767       -72.1038
  32   1.0000      -2.648982       -72.0825
  33   1.0000      -1.381492       -37.5923
  34   1.0000      -1.185127       -32.2489
  35   1.0000      -1.077293       -29.3146
  36   1.0000      -1.045355       -28.4455
  37   1.0000      -1.028853       -27.9965
  38   1.0000      -1.017199       -27.6794
  39   1.0000      -1.015464       -27.6322
  40   1.0000      -1.010850       -27.5066
  41   1.0000      -0.978447       -26.6249
  42   1.0000      -0.926623       -25.2147
  43   1.0000      -0.802287       -21.8313
  44   1.0000      -0.772124       -21.0106
  45   1.0000      -0.701563       -19.0905
  46   1.0000      -0.690699       -18.7949
  47   1.0000      -0.668721       -18.1968
  48   1.0000      -0.664357       -18.0781
  49   1.0000      -0.654040       -17.7973
  50   1.0000      -0.631679       -17.1888
  51   1.0000      -0.604879       -16.4596
  52   1.0000      -0.597362       -16.2550
  53   1.0000      -0.590661       -16.0727
  54   1.0000      -0.579080       -15.7576
  55   1.0000      -0.577714       -15.7204
  56   1.0000      -0.563631       -15.3372
  57   1.0000      -0.558968       -15.2103
  58   1.0000      -0.541479       -14.7344
  59   1.0000      -0.533456       -14.5161
  60   1.0000      -0.520626       -14.1669
  61   1.0000      -0.499990       -13.6054
  62   1.0000      -0.468655       -12.7528
  63   1.0000      -0.462372       -12.5818
  64   1.0000      -0.457282       -12.4433
  65   1.0000      -0.433388       -11.7931
  66   1.0000      -0.430757       -11.7215
  67   1.0000      -0.428678       -11.6649
  68   1.0000      -0.421693       -11.4748
  69   1.0000      -0.408163       -11.1067
  70   1.0000      -0.394489       -10.7346
  71   1.0000      -0.391069       -10.6415
  72   0.0000       0.004123         0.1122
  73   0.0000       0.008691         0.2365
  74   0.0000       0.018211         0.4956
  75   0.0000       0.019379         0.5273
  76   0.0000       0.027980         0.7614

E(0)                                       ...  -3028.427625024
E(0)                                       ...  -3028.427625024
E(CORR)(strong-pairs)                      ...     -2.874890197
E(CORR)(weak-pairs)                        ...     -0.035291803
E(CORR)(corrected)                         ...     -2.910182000
E(TOT)                                     ...  -3031.337807024
E(CCSD(T))                                 ...  -3031.458344589
FINAL SINGLE POINT ENERGY     -3031.458344588853

DIPOLE MOMENT
-------------
                                X             Y             Z
Electronic contribution:     43.86036       6.11412      -1.83926
Nuclear contribution   :    -49.42698      -6.53710       1.81565
                        -----------------------------------------
Total Dipole Moment    :     -5.56662      -0.42298      -0.02361
                        -----------------------------------------
Magnitude (a.u.)       :      5.58272
Magnitude (Debye)      :     14.19015

Rotational constants in cm-1:     0.020209     0.009959     0.009546
Rotational constants in MHz :   605.843237   298.572304   286.179189

                             ****ORCA TERMINATED NORMALLY****
TOTAL RUN TIME: 0 days 21 hours 18 minutes 51 seconds 920 msec
