                         Program Version 4.1.2  - RELEASE  -
|  1> ! aug-cc-pVTZ aug-cc-pVTZ/C DLPNO-CCSD(T1) TightSCF NormalPNO UNO MiniPrint AutoAux
|  2> %pal nproc 10 end
|  3> %maxcore 20000
|  4> %mdci
|  5>      density none
|  6> end
|  7>
|  8> * xyz 0 6
|  9>  O     -0.33531800     -0.22056400     -0.58480700
| 10>  C     -1.35758200     -1.14006300     -0.45544300
| 11>  C     -2.85937700     -0.11611200     -0.11101100
| 12>  C     -2.11560000      1.11021800     -0.23539500
| 13>  C     -1.97400000      1.78777300     -1.54292100
| 14> Fe      1.39167300      0.04184800      0.03184000
| 15> Cl      1.80086100      2.07481900     -0.76969000
| 16>  C     -1.57658700      1.81056100      0.95038700
| 17> Cl      2.63224000     -1.60991500     -0.71874400
| 18> Cl      1.28229000      0.07420100      2.25672800
| 19>  H     -3.49463800     -0.30062700     -0.97776300
| 20>  H     -2.41514100      2.38374700      1.38080100
| 21>  H     -1.22686700      1.12335900      1.72328100
| 22>  H     -0.77474400      2.50262100      0.68748100
| 23>  H     -2.60250800      2.69265500     -1.50026400
| 24>  H     -0.93991300      2.11795800     -1.68739600
| 25>  H     -2.30780500      1.17442800     -2.38054300
| 26>  C     -3.55276200     -0.44230600      1.20074300
| 27>  H     -4.39797200      0.23614100      1.36825000
| 28>  H     -3.95105400     -1.45979400      1.17131700
| 29>  H     -2.88667700     -0.36911600      2.06276500
| 30>  C     -1.16018100     -2.10020500      0.69729800
| 31>  H     -1.99841300     -2.79240800      0.81023600
| 32>  H     -0.25946900     -2.68417000      0.46609600
| 33>  H     -0.97187300     -1.57936100      1.63720700
| 34>  C     -1.63679800     -1.82938600     -1.77763100
| 35>  H     -0.74240400     -2.40831200     -2.03827100
| 36>  H     -2.49420200     -2.50650500     -1.71338300
| 37>  H     -1.80159300     -1.10182200     -2.57635600
| 38> *
| 39>
| 40>
| 41>                          ****END OF INPUT****

CARTESIAN COORDINATES (ANGSTROEM)
---------------------------------
  O     -0.335318   -0.220564   -0.584807
  C     -1.357582   -1.140063   -0.455443
  C     -2.859377   -0.116112   -0.111011
  C     -2.115600    1.110218   -0.235395
  C     -1.974000    1.787773   -1.542921
  Fe     1.391673    0.041848    0.031840
  Cl     1.800861    2.074819   -0.769690
  C     -1.576587    1.810561    0.950387
  Cl     2.632240   -1.609915   -0.718744
  Cl     1.282290    0.074201    2.256728
  H     -3.494638   -0.300627   -0.977763
  H     -2.415141    2.383747    1.380801
  H     -1.226867    1.123359    1.723281
  H     -0.774744    2.502621    0.687481
  H     -2.602508    2.692655   -1.500264
  H     -0.939913    2.117958   -1.687396
  H     -2.307805    1.174428   -2.380543
  C     -3.552762   -0.442306    1.200743
  H     -4.397972    0.236141    1.368250
  H     -3.951054   -1.459794    1.171317
  H     -2.886677   -0.369116    2.062765
  C     -1.160181   -2.100205    0.697298
  H     -1.998413   -2.792408    0.810236
  H     -0.259469   -2.684170    0.466096
  H     -0.971873   -1.579361    1.637207
  C     -1.636798   -1.829386   -1.777631
  H     -0.742404   -2.408312   -2.038271
  H     -2.494202   -2.506505   -1.713383
  H     -1.801593   -1.101822   -2.576356

ORBITAL ENERGIES
----------------
                 SPIN UP ORBITALS
  NO   OCC          E(Eh)            E(eV)
   0   1.0000    -261.546587     -7117.0445
   1   1.0000    -104.774506     -2851.0592
   2   1.0000    -104.773910     -2851.0430
   3   1.0000    -104.770809     -2850.9587
   4   1.0000     -32.214471      -876.6003
   5   1.0000     -27.690325      -753.4921
   6   1.0000     -27.690268      -753.4905
   7   1.0000     -27.689929      -753.4813
   8   1.0000     -20.545690      -559.0766
   9   1.0000     -11.395853      -310.0969
  10   1.0000     -11.364069      -309.2320
  11   1.0000     -11.286630      -307.1248
  12   1.0000     -11.279872      -306.9409
  13   1.0000     -11.275060      -306.8100
  14   1.0000     -11.263703      -306.5010
  15   1.0000     -11.245635      -306.0093
  16   1.0000     -11.240367      -305.8659
  17   1.0000     -10.500991      -285.7465
  18   1.0000     -10.500502      -285.7332
  19   1.0000     -10.497340      -285.6471
  20   1.0000      -7.967829      -216.8156
  21   1.0000      -7.967401      -216.8040
  22   1.0000      -7.967068      -216.7949
  23   1.0000      -7.966976      -216.7924
  24   1.0000      -7.966531      -216.7803
  25   1.0000      -7.966488      -216.7792
  26   1.0000      -7.964145      -216.7154
  27   1.0000      -7.963458      -216.6967
  28   1.0000      -7.963368      -216.6943
  29   1.0000      -4.569973      -124.3553
  30   1.0000      -3.182502       -86.6003
  31   1.0000      -3.182177       -86.5914
  32   1.0000      -3.181580       -86.5752
  33   1.0000      -1.370510       -37.2935
  34   1.0000      -1.182957       -32.1899
  35   1.0000      -1.086453       -29.5639
  36   1.0000      -1.045478       -28.4489
  37   1.0000      -1.041249       -28.3338
  38   1.0000      -1.040007       -28.3000
  39   1.0000      -1.037592       -28.2343
  40   1.0000      -1.013045       -27.5663
  41   1.0000      -0.973732       -26.4966
  42   1.0000      -0.934419       -25.4268
  43   1.0000      -0.908874       -24.7317
  44   1.0000      -0.899582       -24.4789
  45   1.0000      -0.899568       -24.4785
  46   1.0000      -0.891352       -24.2549
  47   1.0000      -0.891030       -24.2462
  48   1.0000      -0.787926       -21.4406
  49   1.0000      -0.763736       -20.7823
  50   1.0000      -0.701915       -19.1001
  51   1.0000      -0.691530       -18.8175
  52   1.0000      -0.673653       -18.3310
  53   1.0000      -0.643842       -17.5198
  54   1.0000      -0.635910       -17.3040
  55   1.0000      -0.629525       -17.1302
  56   1.0000      -0.600956       -16.3529
  57   1.0000      -0.597224       -16.2513
  58   1.0000      -0.593797       -16.1580
  59   1.0000      -0.582865       -15.8606
  60   1.0000      -0.577446       -15.7131
  61   1.0000      -0.559728       -15.2310
  62   1.0000      -0.555966       -15.1286
  63   1.0000      -0.542151       -14.7527
  64   1.0000      -0.534736       -14.5509
  65   1.0000      -0.529184       -14.3998
  66   1.0000      -0.506571       -13.7845
  67   1.0000      -0.473987       -12.8978
  68   1.0000      -0.461224       -12.5506
  69   1.0000      -0.448265       -12.1979
  70   1.0000      -0.427182       -11.6242
  71   1.0000      -0.425162       -11.5692
  72   1.0000      -0.421218       -11.4619
  73   1.0000      -0.414439       -11.2775
  74   1.0000      -0.412666       -11.2292
  75   1.0000      -0.410465       -11.1693
  76   1.0000      -0.399842       -10.8802
  77   0.0000       0.006827         0.1858
  78   0.0000       0.018302         0.4980
  79   0.0000       0.021260         0.5785
  80   0.0000       0.026539         0.7222
  81   0.0000       0.030316         0.8249

                 SPIN DOWN ORBITALS
  NO   OCC          E(Eh)            E(eV)
   0   1.0000    -261.543045     -7116.9481
   1   1.0000    -104.773222     -2851.0243
   2   1.0000    -104.772568     -2851.0065
   3   1.0000    -104.769381     -2850.9198
   4   1.0000     -32.052434      -872.1911
   5   1.0000     -27.530550      -749.1444
   6   1.0000     -27.530345      -749.1388
   7   1.0000     -27.529814      -749.1243
   8   1.0000     -20.539703      -558.9137
   9   1.0000     -11.395871      -310.0974
  10   1.0000     -11.363937      -309.2285
  11   1.0000     -11.286375      -307.1179
  12   1.0000     -11.279856      -306.9405
  13   1.0000     -11.275077      -306.8104
  14   1.0000     -11.263723      -306.5015
  15   1.0000     -11.245546      -306.0069
  16   1.0000     -11.240330      -305.8649
  17   1.0000     -10.499611      -285.7089
  18   1.0000     -10.499056      -285.6938
  19   1.0000     -10.495812      -285.6056
  20   1.0000      -7.965554      -216.7538
  21   1.0000      -7.964998      -216.7386
  22   1.0000      -7.964918      -216.7364
  23   1.0000      -7.964905      -216.7361
  24   1.0000      -7.964438      -216.7234
  25   1.0000      -7.964367      -216.7214
  26   1.0000      -7.961789      -216.6513
  27   1.0000      -7.961044      -216.6310
  28   1.0000      -7.960975      -216.6291
  29   1.0000      -4.127769      -112.3223
  30   1.0000      -2.649607       -72.0995
  31   1.0000      -2.649528       -72.0973
  32   1.0000      -2.648874       -72.0795
  33   1.0000      -1.354871       -36.8679
  34   1.0000      -1.181721       -32.1563
  35   1.0000      -1.083777       -29.4911
  36   1.0000      -1.039834       -28.2953
  37   1.0000      -1.031316       -28.0635
  38   1.0000      -1.021025       -27.7835
  39   1.0000      -1.017700       -27.6930
  40   1.0000      -1.012320       -27.5466
  41   1.0000      -0.973035       -26.4776
  42   1.0000      -0.932020       -25.3616
  43   1.0000      -0.794558       -21.6210
  44   1.0000      -0.769001       -20.9256
  45   1.0000      -0.702111       -19.1054
  46   1.0000      -0.690637       -18.7932
  47   1.0000      -0.675041       -18.3688
  48   1.0000      -0.646109       -17.5815
  49   1.0000      -0.633688       -17.2435
  50   1.0000      -0.629446       -17.1281
  51   1.0000      -0.600124       -16.3302
  52   1.0000      -0.597312       -16.2537
  53   1.0000      -0.593648       -16.1540
  54   1.0000      -0.581429       -15.8215
  55   1.0000      -0.577322       -15.7097
  56   1.0000      -0.559730       -15.2310
  57   1.0000      -0.554800       -15.0969
  58   1.0000      -0.541433       -14.7331
  59   1.0000      -0.533415       -14.5150
  60   1.0000      -0.523373       -14.2417
  61   1.0000      -0.500867       -13.6293
  62   1.0000      -0.470976       -12.8159
  63   1.0000      -0.464256       -12.6330
  64   1.0000      -0.457847       -12.4586
  65   1.0000      -0.435706       -11.8562
  66   1.0000      -0.432021       -11.7559
  67   1.0000      -0.431447       -11.7403
  68   1.0000      -0.424768       -11.5585
  69   1.0000      -0.410429       -11.1683
  70   1.0000      -0.398663       -10.8482
  71   1.0000      -0.393334       -10.7032
  72   0.0000       0.006818         0.1855
  73   0.0000       0.018143         0.4937
  74   0.0000       0.021242         0.5780
  75   0.0000       0.026219         0.7135
  76   0.0000       0.030350         0.8259

E(0)                                       ...  -3028.425548466
E(0)                                       ...  -3028.425548466
E(CORR)(strong-pairs)                      ...     -2.869752028
E(CORR)(weak-pairs)                        ...     -0.035777206
E(CORR)(corrected)                         ...     -2.905529234
E(TOT)                                     ...  -3031.331077700
E(CCSD(T))                                 ...  -3031.449429366
FINAL SINGLE POINT ENERGY     -3031.449429365859

DIPOLE MOMENT
-------------
                                X             Y             Z
Electronic contribution:     40.24466       4.11834       2.23983
Nuclear contribution   :    -45.06609      -3.76362      -2.69475
                        -----------------------------------------
Total Dipole Moment    :     -4.82143       0.35473      -0.45492
                        -----------------------------------------
Magnitude (a.u.)       :      4.85582
Magnitude (Debye)      :     12.34250

Rotational constants in cm-1:     0.019140     0.011741     0.010712
Rotational constants in MHz :   573.788353   351.990555   321.135230

                             ****ORCA TERMINATED NORMALLY****
TOTAL RUN TIME: 0 days 20 hours 43 minutes 7 seconds 910 msec
