                         Program Version 4.1.2  - RELEASE  -
|  1> ! aug-cc-pVTZ aug-cc-pVTZ/C DLPNO-CCSD(T1) TightSCF NormalPNO UNO MiniPrint AutoAux
|  2> %pal nproc 10 end
|  3> %maxcore 20000
|  4> %mdci
|  5>      density none
|  6> end
|  7>
|  8> * xyz 0 6
|  9>  O     -0.32362900     -0.08897300     -0.40580400
| 10>  C     -1.25520500     -1.05171300     -0.23366900
| 11>  C     -2.50928400     -0.41280700      0.71979000
| 12>  C     -2.98373600      0.70542900     -0.04142400
| 13>  C     -4.13441100      0.57503900     -0.96897700
| 14> Fe      1.49998600      0.17275000     -0.08682600
| 15> Cl      1.78968100      2.22899000     -0.83046900
| 16>  C     -2.21923900      1.94135900     -0.03677300
| 17> Cl      2.54052400     -1.42163700     -1.19226000
| 18> Cl      1.82139600      0.03491800      2.10166400
| 19>  H     -3.24681700     -1.21939000      0.73756500
| 20>  H     -2.63682600      2.74413400     -0.64490600
| 21>  H     -1.94406600      2.28848200      0.96327300
| 22>  H     -1.23479500      1.59030200     -0.45874300
| 23>  H     -4.96465700      1.15843100     -0.53941900
| 24>  H     -3.91732500      1.03312300     -1.94131900
| 25>  H     -4.47044400     -0.45457400     -1.09842200
| 26>  C     -1.96244800     -0.08811000      2.11763400
| 27>  H     -2.64676600      0.57946100      2.65084300
| 28>  H     -1.86944600     -1.00318800      2.70413500
| 29>  H     -0.97695000      0.37873200      2.06803500
| 30>  C     -0.73459000     -2.25194600      0.57741700
| 31>  H     -1.53438100     -2.96121700      0.81124300
| 32>  H      0.01248500     -2.75450100     -0.04553300
| 33>  H     -0.23978900     -1.93468100      1.49544600
| 34>  C     -1.79962500     -1.52005300     -1.58932600
| 35>  H     -0.99110800     -2.04606200     -2.10522400
| 36>  H     -2.64727400     -2.20574500     -1.48410400
| 37>  H     -2.08845300     -0.67481100     -2.21891700
| 38> *
| 39>
| 40>
| 41>                          ****END OF INPUT****

CARTESIAN COORDINATES (ANGSTROEM)
---------------------------------
  O     -0.323629   -0.088973   -0.405804
  C     -1.255205   -1.051713   -0.233669
  C     -2.509284   -0.412807    0.719790
  C     -2.983736    0.705429   -0.041424
  C     -4.134411    0.575039   -0.968977
  Fe     1.499986    0.172750   -0.086826
  Cl     1.789681    2.228990   -0.830469
  C     -2.219239    1.941359   -0.036773
  Cl     2.540524   -1.421637   -1.192260
  Cl     1.821396    0.034918    2.101664
  H     -3.246817   -1.219390    0.737565
  H     -2.636826    2.744134   -0.644906
  H     -1.944066    2.288482    0.963273
  H     -1.234795    1.590302   -0.458743
  H     -4.964657    1.158431   -0.539419
  H     -3.917325    1.033123   -1.941319
  H     -4.470444   -0.454574   -1.098422
  C     -1.962448   -0.088110    2.117634
  H     -2.646766    0.579461    2.650843
  H     -1.869446   -1.003188    2.704135
  H     -0.976950    0.378732    2.068035
  C     -0.734590   -2.251946    0.577417
  H     -1.534381   -2.961217    0.811243
  H      0.012485   -2.754501   -0.045533
  H     -0.239789   -1.934681    1.495446
  C     -1.799625   -1.520053   -1.589326
  H     -0.991108   -2.046062   -2.105224
  H     -2.647274   -2.205745   -1.484104
  H     -2.088453   -0.674811   -2.218917

ORBITAL ENERGIES
----------------
                 SPIN UP ORBITALS
  NO   OCC          E(Eh)            E(eV)
   0   1.0000    -261.538905     -7116.8354
   1   1.0000    -104.767021     -2850.8556
   2   1.0000    -104.765818     -2850.8229
   3   1.0000    -104.763999     -2850.7734
   4   1.0000     -32.206834      -876.3925
   5   1.0000     -27.682722      -753.2852
   6   1.0000     -27.682533      -753.2800
   7   1.0000     -27.682310      -753.2739
   8   1.0000     -20.537469      -558.8529
   9   1.0000     -11.400092      -310.2123
  10   1.0000     -11.348712      -308.8141
  11   1.0000     -11.308309      -307.7147
  12   1.0000     -11.291851      -307.2669
  13   1.0000     -11.278859      -306.9134
  14   1.0000     -11.255082      -306.2663
  15   1.0000     -11.245236      -305.9984
  16   1.0000     -11.234206      -305.6983
  17   1.0000     -10.493630      -285.5462
  18   1.0000     -10.492392      -285.5125
  19   1.0000     -10.490609      -285.4640
  20   1.0000      -7.960504      -216.6163
  21   1.0000      -7.959682      -216.5939
  22   1.0000      -7.959624      -216.5924
  23   1.0000      -7.959221      -216.5814
  24   1.0000      -7.958496      -216.5617
  25   1.0000      -7.958396      -216.5590
  26   1.0000      -7.957450      -216.5332
  27   1.0000      -7.956708      -216.5130
  28   1.0000      -7.956628      -216.5109
  29   1.0000      -4.562308      -124.1467
  30   1.0000      -3.174831       -86.3915
  31   1.0000      -3.174454       -86.3813
  32   1.0000      -3.173926       -86.3669
  33   1.0000      -1.369760       -37.2731
  34   1.0000      -1.203979       -32.7619
  35   1.0000      -1.088428       -29.6176
  36   1.0000      -1.047050       -28.4917
  37   1.0000      -1.037924       -28.2434
  38   1.0000      -1.032747       -28.1025
  39   1.0000      -1.030754       -28.0482
  40   1.0000      -1.022260       -27.8171
  41   1.0000      -0.967931       -26.3387
  42   1.0000      -0.932837       -25.3838
  43   1.0000      -0.904820       -24.6214
  44   1.0000      -0.891901       -24.2698
  45   1.0000      -0.891833       -24.2680
  46   1.0000      -0.883383       -24.0381
  47   1.0000      -0.883052       -24.0291
  48   1.0000      -0.802839       -21.8464
  49   1.0000      -0.769042       -20.9267
  50   1.0000      -0.715025       -19.4568
  51   1.0000      -0.698195       -18.9989
  52   1.0000      -0.677433       -18.4339
  53   1.0000      -0.649918       -17.6852
  54   1.0000      -0.647968       -17.6321
  55   1.0000      -0.636667       -17.3246
  56   1.0000      -0.611091       -16.6286
  57   1.0000      -0.601033       -16.3549
  58   1.0000      -0.591899       -16.1064
  59   1.0000      -0.583633       -15.8815
  60   1.0000      -0.573993       -15.6192
  61   1.0000      -0.562669       -15.3110
  62   1.0000      -0.553700       -15.0670
  63   1.0000      -0.538667       -14.6579
  64   1.0000      -0.531583       -14.4651
  65   1.0000      -0.515103       -14.0167
  66   1.0000      -0.500159       -13.6100
  67   1.0000      -0.463180       -12.6038
  68   1.0000      -0.457548       -12.4505
  69   1.0000      -0.438897       -11.9430
  70   1.0000      -0.428810       -11.6685
  71   1.0000      -0.417949       -11.3730
  72   1.0000      -0.413748       -11.2587
  73   1.0000      -0.408070       -11.1042
  74   1.0000      -0.405300       -11.0288
  75   1.0000      -0.404506       -11.0072
  76   1.0000      -0.403664       -10.9843
  77   0.0000      -0.003371        -0.0917
  78   0.0000       0.000707         0.0192
  79   0.0000       0.016792         0.4569
  80   0.0000       0.017434         0.4744
  81   0.0000       0.026846         0.7305

                 SPIN DOWN ORBITALS
  NO   OCC          E(Eh)            E(eV)
   0   1.0000    -261.535357     -7116.7389
   1   1.0000    -104.765660     -2850.8185
   2   1.0000    -104.764468     -2850.7861
   3   1.0000    -104.762584     -2850.7348
   4   1.0000     -32.044760      -871.9823
   5   1.0000     -27.522835      -748.9344
   6   1.0000     -27.522675      -748.9301
   7   1.0000     -27.522188      -748.9168
   8   1.0000     -20.531782      -558.6982
   9   1.0000     -11.400062      -310.2115
  10   1.0000     -11.348580      -308.8106
  11   1.0000     -11.308315      -307.7149
  12   1.0000     -11.291718      -307.2633
  13   1.0000     -11.278863      -306.9135
  14   1.0000     -11.255109      -306.2671
  15   1.0000     -11.245139      -305.9958
  16   1.0000     -11.234171      -305.6973
  17   1.0000     -10.492166      -285.5063
  18   1.0000     -10.490944      -285.4731
  19   1.0000     -10.489091      -285.4227
  20   1.0000      -7.958059      -216.5498
  21   1.0000      -7.957514      -216.5350
  22   1.0000      -7.957440      -216.5329
  23   1.0000      -7.956906      -216.5184
  24   1.0000      -7.956277      -216.5013
  25   1.0000      -7.956169      -216.4984
  26   1.0000      -7.955039      -216.4676
  27   1.0000      -7.954369      -216.4494
  28   1.0000      -7.954291      -216.4473
  29   1.0000      -4.120044      -112.1121
  30   1.0000      -2.641931       -71.8906
  31   1.0000      -2.641857       -71.8886
  32   1.0000      -2.640938       -71.8636
  33   1.0000      -1.355276       -36.8789
  34   1.0000      -1.202985       -32.7349
  35   1.0000      -1.085978       -29.5510
  36   1.0000      -1.046151       -28.4672
  37   1.0000      -1.023970       -27.8636
  38   1.0000      -1.021095       -27.7854
  39   1.0000      -1.012508       -27.5517
  40   1.0000      -1.010704       -27.5027
  41   1.0000      -0.967280       -26.3210
  42   1.0000      -0.932477       -25.3740
  43   1.0000      -0.808085       -21.9891
  44   1.0000      -0.776271       -21.1234
  45   1.0000      -0.715682       -19.4747
  46   1.0000      -0.697591       -18.9824
  47   1.0000      -0.677591       -18.4382
  48   1.0000      -0.651282       -17.7223
  49   1.0000      -0.647852       -17.6290
  50   1.0000      -0.635786       -17.3006
  51   1.0000      -0.611117       -16.6293
  52   1.0000      -0.600931       -16.3522
  53   1.0000      -0.591668       -16.1001
  54   1.0000      -0.582487       -15.8503
  55   1.0000      -0.572782       -15.5862
  56   1.0000      -0.562332       -15.3018
  57   1.0000      -0.553718       -15.0674
  58   1.0000      -0.538695       -14.6586
  59   1.0000      -0.529597       -14.4111
  60   1.0000      -0.510672       -13.8961
  61   1.0000      -0.494160       -13.4468
  62   1.0000      -0.461497       -12.5580
  63   1.0000      -0.458383       -12.4732
  64   1.0000      -0.445468       -12.1218
  65   1.0000      -0.435251       -11.8438
  66   1.0000      -0.428206       -11.6521
  67   1.0000      -0.424971       -11.5641
  68   1.0000      -0.424032       -11.5385
  69   1.0000      -0.403308       -10.9746
  70   1.0000      -0.395344       -10.7578
  71   1.0000      -0.390514       -10.6264
  72   0.0000      -0.003481        -0.0947
  73   0.0000       0.000698         0.0190
  74   0.0000       0.016785         0.4567
  75   0.0000       0.017420         0.4740
  76   0.0000       0.026861         0.7309

E(0)                                       ...  -3028.425861519
E(0)                                       ...  -3028.425861519
E(CORR)(strong-pairs)                      ...     -2.873815051
E(CORR)(weak-pairs)                        ...     -0.035213497
E(CORR)(corrected)                         ...     -2.909028548
E(TOT)                                     ...  -3031.334890067
E(CCSD(T))                                 ...  -3031.453917583
FINAL SINGLE POINT ENERGY     -3031.453917582931

DIPOLE MOMENT
-------------
                                X             Y             Z
Electronic contribution:     42.12761       7.00867      -1.10785
Nuclear contribution   :    -48.12012      -7.08084       1.06646
                        -----------------------------------------
Total Dipole Moment    :     -5.99251      -0.07217      -0.04139
                        -----------------------------------------
Magnitude (a.u.)       :      5.99309
Magnitude (Debye)      :     15.23322

Rotational constants in cm-1:     0.020040     0.010355     0.009881
Rotational constants in MHz :   600.795923   310.437031   296.228242

                             ****ORCA TERMINATED NORMALLY****
TOTAL RUN TIME: 0 days 22 hours 14 minutes 19 seconds 665 msec
