                         Program Version 4.1.2  - RELEASE  -
|  1> ! aug-cc-pVTZ aug-cc-pVTZ/C DLPNO-CCSD(T1) TightSCF NormalPNO UNO MiniPrint AutoAux
|  2> %pal nproc 10 end
|  3> %maxcore 20000
|  4> %mdci
|  5>      density none
|  6> end
|  7>
|  8> * xyz 0 6
|  9>  O     -0.30867000     -0.15092600     -0.69631100
| 10>  C     -1.19613200     -1.07190300     -0.59769100
| 11>  C     -3.05849800     -0.08623900      0.19133100
| 12>  C     -2.38514900      1.04050000     -0.17552900
| 13>  C     -2.47728700      1.60556600     -1.55772500
| 14> Fe      1.44723600      0.08498700      0.03969700
| 15> Cl      2.07408000      2.02221900     -0.76201400
| 16>  C     -1.56319100      1.84765100      0.77770200
| 17> Cl      2.52160900     -1.67751000     -0.70874300
| 18> Cl      1.27853800      0.06457700      2.24002100
| 19>  H     -3.73172500     -0.51840100     -0.54587500
| 20>  H     -2.19121900      2.66553400      1.16012500
| 21>  H     -1.19876700      1.28058100      1.63401900
| 22>  H     -0.71001300      2.30775600      0.27092000
| 23>  H     -2.78445200      2.65702000     -1.49119700
| 24>  H     -1.48747000      1.59835700     -2.02983900
| 25>  H     -3.19646600      1.07917000     -2.18931000
| 26>  C     -3.31697900     -0.50744500      1.61594000
| 27>  H     -4.20528700      0.01663600      1.99273400
| 28>  H     -3.52451000     -1.57822300      1.69040900
| 29>  H     -2.49055400     -0.27226200      2.29029800
| 30>  C     -1.05105000     -2.09114700      0.49939900
| 31>  H     -1.92203300     -2.74076000      0.58883500
| 32>  H     -0.18875200     -2.70759100      0.20484400
| 33>  H     -0.80610800     -1.63338900      1.45763200
| 34>  C     -1.77662300     -1.56795700     -1.89933100
| 35>  H     -0.98937100     -2.19021100     -2.34764100
| 36>  H     -2.66486700     -2.18580200     -1.75700600
| 37>  H     -1.97957500     -0.75269500     -2.59265100
| 38> *
| 39>
| 40>
| 41>                          ****END OF INPUT****

CARTESIAN COORDINATES (ANGSTROEM)
---------------------------------
  O     -0.308670   -0.150926   -0.696311
  C     -1.196132   -1.071903   -0.597691
  C     -3.058498   -0.086239    0.191331
  C     -2.385149    1.040500   -0.175529
  C     -2.477287    1.605566   -1.557725
  Fe     1.447236    0.084987    0.039697
  Cl     2.074080    2.022219   -0.762014
  C     -1.563191    1.847651    0.777702
  Cl     2.521609   -1.677510   -0.708743
  Cl     1.278538    0.064577    2.240021
  H     -3.731725   -0.518401   -0.545875
  H     -2.191219    2.665534    1.160125
  H     -1.198767    1.280581    1.634019
  H     -0.710013    2.307756    0.270920
  H     -2.784452    2.657020   -1.491197
  H     -1.487470    1.598357   -2.029839
  H     -3.196466    1.079170   -2.189310
  C     -3.316979   -0.507445    1.615940
  H     -4.205287    0.016636    1.992734
  H     -3.524510   -1.578223    1.690409
  H     -2.490554   -0.272262    2.290298
  C     -1.051050   -2.091147    0.499399
  H     -1.922033   -2.740760    0.588835
  H     -0.188752   -2.707591    0.204844
  H     -0.806108   -1.633389    1.457632
  C     -1.776623   -1.567957   -1.899331
  H     -0.989371   -2.190211   -2.347641
  H     -2.664867   -2.185802   -1.757006
  H     -1.979575   -0.752695   -2.592651

ORBITAL ENERGIES
----------------
                 SPIN UP ORBITALS
  NO   OCC          E(Eh)            E(eV)
   0   1.0000    -261.564726     -7117.5380
   1   1.0000    -104.785770     -2851.3658
   2   1.0000    -104.783043     -2851.2916
   3   1.0000    -104.782461     -2851.2757
   4   1.0000     -32.232537      -877.0919
   5   1.0000     -27.708780      -753.9942
   6   1.0000     -27.708017      -753.9735
   7   1.0000     -27.707857      -753.9691
   8   1.0000     -20.585605      -560.1628
   9   1.0000     -11.413990      -310.5904
  10   1.0000     -11.307287      -307.6869
  11   1.0000     -11.269625      -306.6621
  12   1.0000     -11.263495      -306.4953
  13   1.0000     -11.260701      -306.4193
  14   1.0000     -11.254297      -306.2450
  15   1.0000     -11.250931      -306.1534
  16   1.0000     -11.244206      -305.9704
  17   1.0000     -10.512428      -286.0577
  18   1.0000     -10.509667      -285.9826
  19   1.0000     -10.509046      -285.9657
  20   1.0000      -7.979288      -217.1275
  21   1.0000      -7.978483      -217.1055
  22   1.0000      -7.978446      -217.1045
  23   1.0000      -7.976537      -217.0526
  24   1.0000      -7.975848      -217.0339
  25   1.0000      -7.975763      -217.0315
  26   1.0000      -7.975684      -217.0294
  27   1.0000      -7.975162      -217.0152
  28   1.0000      -7.975095      -217.0134
  29   1.0000      -4.587697      -124.8376
  30   1.0000      -3.200642       -87.0939
  31   1.0000      -3.199384       -87.0597
  32   1.0000      -3.199090       -87.0517
  33   1.0000      -1.435954       -39.0743
  34   1.0000      -1.151223       -31.3264
  35   1.0000      -1.092804       -29.7367
  36   1.0000      -1.058029       -28.7904
  37   1.0000      -1.052548       -28.6413
  38   1.0000      -1.050276       -28.5795
  39   1.0000      -1.032798       -28.1039
  40   1.0000      -1.002971       -27.2922
  41   1.0000      -0.975297       -26.5392
  42   1.0000      -0.933539       -25.4029
  43   1.0000      -0.916972       -24.9521
  44   1.0000      -0.916846       -24.9486
  45   1.0000      -0.914214       -24.8770
  46   1.0000      -0.906842       -24.6764
  47   1.0000      -0.906512       -24.6674
  48   1.0000      -0.799811       -21.7640
  49   1.0000      -0.747412       -20.3381
  50   1.0000      -0.697682       -18.9849
  51   1.0000      -0.693104       -18.8603
  52   1.0000      -0.685716       -18.6593
  53   1.0000      -0.667625       -18.1670
  54   1.0000      -0.636931       -17.3318
  55   1.0000      -0.620325       -16.8799
  56   1.0000      -0.603793       -16.4300
  57   1.0000      -0.598477       -16.2854
  58   1.0000      -0.582938       -15.8626
  59   1.0000      -0.575539       -15.6612
  60   1.0000      -0.567939       -15.4544
  61   1.0000      -0.562358       -15.3025
  62   1.0000      -0.551706       -15.0127
  63   1.0000      -0.548878       -14.9357
  64   1.0000      -0.540996       -14.7212
  65   1.0000      -0.523816       -14.2538
  66   1.0000      -0.511418       -13.9164
  67   1.0000      -0.490518       -13.3477
  68   1.0000      -0.470769       -12.8103
  69   1.0000      -0.465446       -12.6654
  70   1.0000      -0.438609       -11.9351
  71   1.0000      -0.433546       -11.7974
  72   1.0000      -0.432134       -11.7590
  73   1.0000      -0.423529       -11.5248
  74   1.0000      -0.422007       -11.4834
  75   1.0000      -0.421586       -11.4719
  76   1.0000      -0.371501       -10.1091
  77   0.0000       0.011699         0.3184
  78   0.0000       0.022135         0.6023
  79   0.0000       0.022938         0.6242
  80   0.0000       0.030282         0.8240
  81   0.0000       0.038755         1.0546

                 SPIN DOWN ORBITALS
  NO   OCC          E(Eh)            E(eV)
   0   1.0000    -261.561167     -7117.4412
   1   1.0000    -104.784336     -2851.3267
   2   1.0000    -104.781550     -2851.2509
   3   1.0000    -104.780991     -2851.2357
   4   1.0000     -32.070498      -872.6826
   5   1.0000     -27.548444      -749.6313
   6   1.0000     -27.548384      -749.6296
   7   1.0000     -27.548117      -749.6224
   8   1.0000     -20.581394      -560.0482
   9   1.0000     -11.413876      -310.5873
  10   1.0000     -11.307230      -307.6854
  11   1.0000     -11.269517      -306.6591
  12   1.0000     -11.263480      -306.4949
  13   1.0000     -11.260569      -306.4157
  14   1.0000     -11.254299      -306.2450
  15   1.0000     -11.250945      -306.1538
  16   1.0000     -11.244236      -305.9712
  17   1.0000     -10.510892      -286.0159
  18   1.0000     -10.508069      -285.9391
  19   1.0000     -10.507480      -285.9231
  20   1.0000      -7.976785      -217.0594
  21   1.0000      -7.976156      -217.0423
  22   1.0000      -7.976094      -217.0405
  23   1.0000      -7.973963      -216.9826
  24   1.0000      -7.973463      -216.9690
  25   1.0000      -7.973309      -216.9648
  26   1.0000      -7.973215      -216.9622
  27   1.0000      -7.972670      -216.9474
  28   1.0000      -7.972582      -216.9450
  29   1.0000      -4.145430      -112.8029
  30   1.0000      -2.667058       -72.5743
  31   1.0000      -2.667034       -72.5737
  32   1.0000      -2.666454       -72.5579
  33   1.0000      -1.425298       -38.7843
  34   1.0000      -1.150553       -31.3081
  35   1.0000      -1.090163       -29.6648
  36   1.0000      -1.043099       -28.3842
  37   1.0000      -1.032485       -28.0953
  38   1.0000      -1.030932       -28.0531
  39   1.0000      -1.028759       -27.9940
  40   1.0000      -1.002138       -27.2696
  41   1.0000      -0.975198       -26.5365
  42   1.0000      -0.915132       -24.9020
  43   1.0000      -0.813479       -22.1359
  44   1.0000      -0.747483       -20.3400
  45   1.0000      -0.700227       -19.0542
  46   1.0000      -0.693335       -18.8666
  47   1.0000      -0.684201       -18.6181
  48   1.0000      -0.667325       -18.1588
  49   1.0000      -0.636838       -17.3292
  50   1.0000      -0.619924       -16.8690
  51   1.0000      -0.603296       -16.4165
  52   1.0000      -0.598431       -16.2841
  53   1.0000      -0.582653       -15.8548
  54   1.0000      -0.575153       -15.6507
  55   1.0000      -0.567674       -15.4472
  56   1.0000      -0.562155       -15.2970
  57   1.0000      -0.551098       -14.9961
  58   1.0000      -0.546726       -14.8772
  59   1.0000      -0.539413       -14.6782
  60   1.0000      -0.514083       -13.9889
  61   1.0000      -0.511376       -13.9152
  62   1.0000      -0.489689       -13.3251
  63   1.0000      -0.476236       -12.9591
  64   1.0000      -0.475036       -12.9264
  65   1.0000      -0.446451       -12.1485
  66   1.0000      -0.443386       -12.0652
  67   1.0000      -0.441276       -12.0077
  68   1.0000      -0.426235       -11.5984
  69   1.0000      -0.421988       -11.4829
  70   1.0000      -0.407286       -11.0828
  71   1.0000      -0.369903       -10.0656
  72   0.0000       0.011691         0.3181
  73   0.0000       0.022111         0.6017
  74   0.0000       0.022917         0.6236
  75   0.0000       0.030275         0.8238
  76   0.0000       0.038650         1.0517

E(0)                                       ...  -3028.436214849
E(0)                                       ...  -3028.436214849
E(CORR)(strong-pairs)                      ...     -2.872235421
E(CORR)(weak-pairs)                        ...     -0.036541563
E(CORR)(corrected)                         ...     -2.908776984
E(TOT)                                     ...  -3031.344991833
E(CCSD(T))                                 ...  -3031.464486996
FINAL SINGLE POINT ENERGY     -3031.464486996098

DIPOLE MOMENT
-------------
                                X             Y             Z
Electronic contribution:     42.27050       3.05769       2.23914
Nuclear contribution   :    -46.26597      -3.74560      -2.82036
                        -----------------------------------------
Total Dipole Moment    :     -3.99547      -0.68790      -0.58123
                        -----------------------------------------
Magnitude (a.u.)       :      4.09571
Magnitude (Debye)      :     10.41047

Rotational constants in cm-1:     0.019277     0.011133     0.010467
Rotational constants in MHz :   577.924483   333.758001   313.802422

                             ****ORCA TERMINATED NORMALLY****
TOTAL RUN TIME: 0 days 18 hours 59 minutes 41 seconds 669 msec
