                         Program Version 4.1.2  - RELEASE  -
|  1> ! aug-cc-pVTZ aug-cc-pVTZ/C DLPNO-CCSD(T1) TightSCF NormalPNO UNO MiniPrint AutoAux
|  2> %pal nproc 10 end
|  3> %maxcore 20000
|  4> %mdci
|  5>      density none
|  6> end
|  7>
|  8> * xyz 0 6
|  9>  O      0.22952500      0.31623200     -0.84688100
| 10>  C      1.05566000      1.25235900     -0.66344800
| 11>  C      2.96963300      0.17941900      0.53468500
| 12>  C      2.62546600     -0.94546100     -0.13446700
| 13>  C      3.14567400     -1.23611800     -1.51336100
| 14> Fe     -1.46893600     -0.15066700      0.00278100
| 15> Cl     -2.05350100     -2.01919300     -0.95151600
| 16>  C      1.71040700     -1.99578400      0.41585400
| 17> Cl     -2.69157200      1.59874600     -0.48450700
| 18> Cl     -1.11757100     -0.33524700      2.16602500
| 19>  H      3.69491300      0.83775300      0.05763000
| 20>  H      2.24495500     -2.95221300      0.48903500
| 21>  H      1.30231000     -1.75485300      1.39662900
| 22>  H      0.87317000     -2.16549600     -0.27370800
| 23>  H      3.67601200     -2.19711300     -1.51296200
| 24>  H      2.31722200     -1.34275500     -2.22651700
| 25>  H      3.83694800     -0.47024200     -1.87453300
| 26>  C      2.73985700      0.42877100      2.00436600
| 27>  H      3.51737300     -0.07858400      2.59094200
| 28>  H      2.80754700      1.49279400      2.24651300
| 29>  H      1.77272800      0.06269500      2.35680400
| 30>  C      0.84591100      2.23708700      0.44807600
| 31>  H      1.72911400      2.84955600      0.63226500
| 32>  H      0.03134100      2.89332200      0.10672600
| 33>  H      0.50963300      1.75630200      1.36626400
| 34>  C      1.85219600      1.70728700     -1.85388600
| 35>  H      1.21752800      2.44310200     -2.36892500
| 36>  H      2.78122600      2.20511200     -1.57343700
| 37>  H      2.04024200      0.88954400     -2.54693200
| 38> *
| 39>
| 40>
| 41>                          ****END OF INPUT****

CARTESIAN COORDINATES (ANGSTROEM)
---------------------------------
  O      0.229525    0.316232   -0.846881
  C      1.055660    1.252359   -0.663448
  C      2.969633    0.179419    0.534685
  C      2.625466   -0.945461   -0.134467
  C      3.145674   -1.236118   -1.513361
  Fe    -1.468936   -0.150667    0.002781
  Cl    -2.053501   -2.019193   -0.951516
  C      1.710407   -1.995784    0.415854
  Cl    -2.691572    1.598746   -0.484507
  Cl    -1.117571   -0.335247    2.166025
  H      3.694913    0.837753    0.057630
  H      2.244955   -2.952213    0.489035
  H      1.302310   -1.754853    1.396629
  H      0.873170   -2.165496   -0.273708
  H      3.676012   -2.197113   -1.512962
  H      2.317222   -1.342755   -2.226517
  H      3.836948   -0.470242   -1.874533
  C      2.739857    0.428771    2.004366
  H      3.517373   -0.078584    2.590942
  H      2.807547    1.492794    2.246513
  H      1.772728    0.062695    2.356804
  C      0.845911    2.237087    0.448076
  H      1.729114    2.849556    0.632265
  H      0.031341    2.893322    0.106726
  H      0.509633    1.756302    1.366264
  C      1.852196    1.707287   -1.853886
  H      1.217528    2.443102   -2.368925
  H      2.781226    2.205112   -1.573437
  H      2.040242    0.889544   -2.546932

ORBITAL ENERGIES
----------------
                 SPIN UP ORBITALS
  NO   OCC          E(Eh)            E(eV)
   0   1.0000    -261.572945     -7117.7617
   1   1.0000    -104.792153     -2851.5395
   2   1.0000    -104.788657     -2851.4443
   3   1.0000    -104.786765     -2851.3928
   4   1.0000     -32.240688      -877.3137
   5   1.0000     -27.717103      -754.2207
   6   1.0000     -27.716069      -754.1926
   7   1.0000     -27.715877      -754.1873
   8   1.0000     -20.612405      -560.8921
   9   1.0000     -11.420285      -310.7618
  10   1.0000     -11.276845      -306.8586
  11   1.0000     -11.275724      -306.8281
  12   1.0000     -11.270232      -306.6786
  13   1.0000     -11.248279      -306.0812
  14   1.0000     -11.247598      -306.0627
  15   1.0000     -11.238482      -305.8147
  16   1.0000     -11.232844      -305.6612
  17   1.0000     -10.518860      -286.2327
  18   1.0000     -10.515339      -286.1369
  19   1.0000     -10.513398      -286.0841
  20   1.0000      -7.985700      -217.3019
  21   1.0000      -7.984929      -217.2810
  22   1.0000      -7.984884      -217.2797
  23   1.0000      -7.982211      -217.2070
  24   1.0000      -7.981436      -217.1859
  25   1.0000      -7.981381      -217.1844
  26   1.0000      -7.980192      -217.1521
  27   1.0000      -7.979524      -217.1339
  28   1.0000      -7.979472      -217.1325
  29   1.0000      -4.595628      -125.0534
  30   1.0000      -3.208720       -87.3137
  31   1.0000      -3.207095       -87.2695
  32   1.0000      -3.206923       -87.2648
  33   1.0000      -1.456773       -39.6408
  34   1.0000      -1.132885       -30.8274
  35   1.0000      -1.098404       -29.8891
  36   1.0000      -1.064892       -28.9772
  37   1.0000      -1.059062       -28.8185
  38   1.0000      -1.056089       -28.7376
  39   1.0000      -1.023911       -27.8620
  40   1.0000      -1.007891       -27.4261
  41   1.0000      -0.963109       -26.2075
  42   1.0000      -0.940371       -25.5888
  43   1.0000      -0.924597       -25.1595
  44   1.0000      -0.924494       -25.1568
  45   1.0000      -0.914072       -24.8732
  46   1.0000      -0.913364       -24.8539
  47   1.0000      -0.900529       -24.5046
  48   1.0000      -0.810485       -22.0544
  49   1.0000      -0.734724       -19.9929
  50   1.0000      -0.708064       -19.2674
  51   1.0000      -0.698294       -19.0015
  52   1.0000      -0.684369       -18.6226
  53   1.0000      -0.659377       -17.9426
  54   1.0000      -0.625385       -17.0176
  55   1.0000      -0.621440       -16.9102
  56   1.0000      -0.605036       -16.4639
  57   1.0000      -0.598756       -16.2930
  58   1.0000      -0.585094       -15.9212
  59   1.0000      -0.577142       -15.7048
  60   1.0000      -0.561018       -15.2661
  61   1.0000      -0.554435       -15.0869
  62   1.0000      -0.547204       -14.8902
  63   1.0000      -0.544261       -14.8101
  64   1.0000      -0.535270       -14.5654
  65   1.0000      -0.528587       -14.3836
  66   1.0000      -0.500704       -13.6249
  67   1.0000      -0.497269       -13.5314
  68   1.0000      -0.475319       -12.9341
  69   1.0000      -0.473896       -12.8954
  70   1.0000      -0.444698       -12.1009
  71   1.0000      -0.438944       -11.9443
  72   1.0000      -0.437080       -11.8936
  73   1.0000      -0.428445       -11.6586
  74   1.0000      -0.427412       -11.6305
  75   1.0000      -0.426132       -11.5956
  76   1.0000      -0.362934        -9.8759
  77   0.0000       0.012445         0.3387
  78   0.0000       0.023170         0.6305
  79   0.0000       0.023901         0.6504
  80   0.0000       0.030421         0.8278
  81   0.0000       0.039070         1.0632

                 SPIN DOWN ORBITALS
  NO   OCC          E(Eh)            E(eV)
   0   1.0000    -261.569370     -7117.6644
   1   1.0000    -104.790684     -2851.4995
   2   1.0000    -104.787112     -2851.4023
   3   1.0000    -104.785220     -2851.3508
   4   1.0000     -32.078680      -872.9053
   5   1.0000     -27.556590      -749.8529
   6   1.0000     -27.556537      -749.8515
   7   1.0000     -27.556401      -749.8478
   8   1.0000     -20.608736      -560.7922
   9   1.0000     -11.420201      -310.7595
  10   1.0000     -11.276834      -306.8583
  11   1.0000     -11.275614      -306.8250
  12   1.0000     -11.270222      -306.6783
  13   1.0000     -11.248244      -306.0803
  14   1.0000     -11.247599      -306.0627
  15   1.0000     -11.238484      -305.8147
  16   1.0000     -11.232861      -305.6617
  17   1.0000     -10.517289      -286.1900
  18   1.0000     -10.513689      -286.0920
  19   1.0000     -10.511756      -286.0394
  20   1.0000      -7.983200      -217.2339
  21   1.0000      -7.982495      -217.2147
  22   1.0000      -7.982453      -217.2136
  23   1.0000      -7.979578      -217.1353
  24   1.0000      -7.978887      -217.1166
  25   1.0000      -7.978798      -217.1141
  26   1.0000      -7.977743      -217.0854
  27   1.0000      -7.976874      -217.0618
  28   1.0000      -7.976790      -217.0595
  29   1.0000      -4.153488      -113.0221
  30   1.0000      -2.675051       -72.7918
  31   1.0000      -2.675044       -72.7917
  32   1.0000      -2.674520       -72.7774
  33   1.0000      -1.447696       -39.3938
  34   1.0000      -1.132534       -30.8178
  35   1.0000      -1.095940       -29.8220
  36   1.0000      -1.049427       -28.5564
  37   1.0000      -1.036936       -28.2165
  38   1.0000      -1.033618       -28.1262
  39   1.0000      -1.023333       -27.8463
  40   1.0000      -1.007245       -27.4085
  41   1.0000      -0.963012       -26.2049
  42   1.0000      -0.900740       -24.5104
  43   1.0000      -0.823715       -22.4144
  44   1.0000      -0.734801       -19.9949
  45   1.0000      -0.710356       -19.3298
  46   1.0000      -0.697375       -18.9765
  47   1.0000      -0.683679       -18.6039
  48   1.0000      -0.659292       -17.9403
  49   1.0000      -0.625342       -17.0164
  50   1.0000      -0.620912       -16.8959
  51   1.0000      -0.604702       -16.4548
  52   1.0000      -0.598652       -16.2901
  53   1.0000      -0.584819       -15.9137
  54   1.0000      -0.575791       -15.6681
  55   1.0000      -0.560354       -15.2480
  56   1.0000      -0.554269       -15.0824
  57   1.0000      -0.545498       -14.8437
  58   1.0000      -0.544137       -14.8067
  59   1.0000      -0.530007       -14.4222
  60   1.0000      -0.521837       -14.1999
  61   1.0000      -0.501977       -13.6595
  62   1.0000      -0.497343       -13.5334
  63   1.0000      -0.483287       -13.1509
  64   1.0000      -0.480701       -13.0805
  65   1.0000      -0.452307       -12.3079
  66   1.0000      -0.449063       -12.2196
  67   1.0000      -0.446234       -12.1427
  68   1.0000      -0.430131       -11.7045
  69   1.0000      -0.427239       -11.6258
  70   1.0000      -0.411825       -11.2063
  71   1.0000      -0.362124        -9.8539
  72   0.0000       0.012429         0.3382
  73   0.0000       0.023146         0.6298
  74   0.0000       0.023869         0.6495
  75   0.0000       0.030332         0.8254
  76   0.0000       0.038926         1.0592

E(0)                                       ...  -3028.457424700
E(0)                                       ...  -3028.457424700
E(CORR)(strong-pairs)                      ...     -2.869398491
E(CORR)(weak-pairs)                        ...     -0.035933680
E(CORR)(corrected)                         ...     -2.905332171
E(TOT)                                     ...  -3031.362756871
E(CCSD(T))                                 ...  -3031.481259461
FINAL SINGLE POINT ENERGY     -3031.481259460791

DIPOLE MOMENT
-------------
                                X             Y             Z
Electronic contribution:    -43.08798      -4.63620       1.50236
Nuclear contribution   :     46.59964       5.90789      -2.12225
                        -----------------------------------------
Total Dipole Moment    :      3.51166       1.27169      -0.61990
                        -----------------------------------------
Magnitude (a.u.)       :      3.78592
Magnitude (Debye)      :      9.62305

Rotational constants in cm-1:     0.018952     0.010863     0.010223
Rotational constants in MHz :   568.170912   325.658533   306.476019

                             ****ORCA TERMINATED NORMALLY****
TOTAL RUN TIME: 0 days 17 hours 36 minutes 38 seconds 423 msec
