                         Program Version 4.1.2  - RELEASE  -
|  1> ! aug-cc-pVTZ aug-cc-pVTZ/C DLPNO-CCSD(T1) TightSCF NormalPNO UNO MiniPrint AutoAux
|  2> %pal nproc 10 end
|  3> %maxcore 20000
|  4> %mdci
|  5>      density none
|  6> end
|  7>
|  8> * xyz 0 6
|  9>  O     -0.26479900     -0.36391800     -0.58587500
| 10>  C     -1.29489000     -1.15074200     -0.25350100
| 11>  C     -2.34444000     -0.26866700      0.83410600
| 12>  C     -2.95943500      0.69358800     -0.01748000
| 13>  C     -4.30056600      0.46088900     -0.60883200
| 14> Fe      1.48376900      0.12669400     -0.10521400
| 15> Cl      2.76652800     -0.47183300     -1.77957900
| 16>  C     -2.19998900      1.87494500     -0.43456900
| 17> Cl      2.06855600     -0.83638800      1.79410700
| 18> Cl      1.32468500      2.32740000      0.16290500
| 19>  H     -3.05558600     -1.03165600      1.15863400
| 20>  H     -2.72870000      2.51849800     -1.13902400
| 21>  H     -1.81630400      2.45520400      0.41163100
| 22>  H     -1.26905100      1.46921800     -0.89007100
| 23>  H     -4.98324300      1.20405800     -0.16669700
| 24>  H     -4.30193700      0.65788600     -1.68756500
| 25>  H     -4.69734500     -0.53457200     -0.40367500
| 26>  C     -1.49689600      0.27404500      1.98806100
| 27>  H     -2.12709200      0.87264500      2.65421400
| 28>  H     -1.06826100     -0.53852500      2.57409300
| 29>  H     -0.67827300      0.90075600      1.63494100
| 30>  C     -0.90336400     -2.38274400      0.58081700
| 31>  H     -1.78252100     -2.95878400      0.88289600
| 32>  H     -0.27974800     -3.01094800     -0.06429000
| 33>  H     -0.30746300     -2.12075400      1.45325000
| 34>  C     -2.06452100     -1.58278000     -1.50782800
| 35>  H     -1.42248100     -2.26624000     -2.07142200
| 36>  H     -2.99548900     -2.10593500     -1.26697600
| 37>  H     -2.27760200     -0.73078200     -2.15838300
| 38> *
| 39>
| 40>
| 41>                          ****END OF INPUT****

CARTESIAN COORDINATES (ANGSTROEM)
---------------------------------
  O     -0.264799   -0.363918   -0.585875
  C     -1.294890   -1.150742   -0.253501
  C     -2.344440   -0.268667    0.834106
  C     -2.959435    0.693588   -0.017480
  C     -4.300566    0.460889   -0.608832
  Fe     1.483769    0.126694   -0.105214
  Cl     2.766528   -0.471833   -1.779579
  C     -2.199989    1.874945   -0.434569
  Cl     2.068556   -0.836388    1.794107
  Cl     1.324685    2.327400    0.162905
  H     -3.055586   -1.031656    1.158634
  H     -2.728700    2.518498   -1.139024
  H     -1.816304    2.455204    0.411631
  H     -1.269051    1.469218   -0.890071
  H     -4.983243    1.204058   -0.166697
  H     -4.301937    0.657886   -1.687565
  H     -4.697345   -0.534572   -0.403675
  C     -1.496896    0.274045    1.988061
  H     -2.127092    0.872645    2.654214
  H     -1.068261   -0.538525    2.574093
  H     -0.678273    0.900756    1.634941
  C     -0.903364   -2.382744    0.580817
  H     -1.782521   -2.958784    0.882896
  H     -0.279748   -3.010948   -0.064290
  H     -0.307463   -2.120754    1.453250
  C     -2.064521   -1.582780   -1.507828
  H     -1.422481   -2.266240   -2.071422
  H     -2.995489   -2.105935   -1.266976
  H     -2.277602   -0.730782   -2.158383

ORBITAL ENERGIES
----------------
                 SPIN UP ORBITALS
  NO   OCC          E(Eh)            E(eV)
   0   1.0000    -261.541552     -7116.9074
   1   1.0000    -104.769242     -2850.9160
   2   1.0000    -104.767755     -2850.8755
   3   1.0000    -104.760908     -2850.6892
   4   1.0000     -32.209351      -876.4610
   5   1.0000     -27.685267      -753.3544
   6   1.0000     -27.685109      -753.3501
   7   1.0000     -27.684812      -753.3420
   8   1.0000     -20.541270      -558.9564
   9   1.0000     -11.395984      -310.1005
  10   1.0000     -11.357387      -309.0502
  11   1.0000     -11.307069      -307.6810
  12   1.0000     -11.289792      -307.2109
  13   1.0000     -11.277881      -306.8868
  14   1.0000     -11.252356      -306.1922
  15   1.0000     -11.250317      -306.1367
  16   1.0000     -11.237984      -305.8011
  17   1.0000     -10.495868      -285.6071
  18   1.0000     -10.494488      -285.5695
  19   1.0000     -10.487512      -285.3797
  20   1.0000      -7.962762      -216.6778
  21   1.0000      -7.961928      -216.6551
  22   1.0000      -7.961837      -216.6526
  23   1.0000      -7.961339      -216.6391
  24   1.0000      -7.960544      -216.6174
  25   1.0000      -7.960527      -216.6169
  26   1.0000      -7.954360      -216.4492
  27   1.0000      -7.953643      -216.4296
  28   1.0000      -7.953521      -216.4263
  29   1.0000      -4.564671      -124.2110
  30   1.0000      -3.177210       -86.4563
  31   1.0000      -3.176704       -86.4425
  32   1.0000      -3.176392       -86.4340
  33   1.0000      -1.373049       -37.3626
  34   1.0000      -1.201083       -32.6831
  35   1.0000      -1.084073       -29.4991
  36   1.0000      -1.048532       -28.5320
  37   1.0000      -1.039683       -28.2912
  38   1.0000      -1.035411       -28.1750
  39   1.0000      -1.029277       -28.0081
  40   1.0000      -1.022526       -27.8243
  41   1.0000      -0.970241       -26.4016
  42   1.0000      -0.932094       -25.3636
  43   1.0000      -0.908110       -24.7109
  44   1.0000      -0.894399       -24.3378
  45   1.0000      -0.893533       -24.3143
  46   1.0000      -0.885801       -24.1039
  47   1.0000      -0.884694       -24.0737
  48   1.0000      -0.800389       -21.7797
  49   1.0000      -0.768962       -20.9245
  50   1.0000      -0.712034       -19.3754
  51   1.0000      -0.696115       -18.9422
  52   1.0000      -0.675051       -18.3691
  53   1.0000      -0.656016       -17.8511
  54   1.0000      -0.647759       -17.6264
  55   1.0000      -0.636442       -17.3185
  56   1.0000      -0.609663       -16.5898
  57   1.0000      -0.600785       -16.3482
  58   1.0000      -0.592580       -16.1249
  59   1.0000      -0.581432       -15.8216
  60   1.0000      -0.578035       -15.7291
  61   1.0000      -0.564177       -15.3520
  62   1.0000      -0.555261       -15.1094
  63   1.0000      -0.540787       -14.7156
  64   1.0000      -0.533412       -14.5149
  65   1.0000      -0.522152       -14.2085
  66   1.0000      -0.502337       -13.6693
  67   1.0000      -0.462684       -12.5903
  68   1.0000      -0.457850       -12.4587
  69   1.0000      -0.442738       -12.0475
  70   1.0000      -0.422408       -11.4943
  71   1.0000      -0.418870       -11.3980
  72   1.0000      -0.415549       -11.3077
  73   1.0000      -0.407527       -11.0894
  74   1.0000      -0.406758       -11.0685
  75   1.0000      -0.403908       -10.9909
  76   1.0000      -0.401451       -10.9240
  77   0.0000      -0.003107        -0.0845
  78   0.0000       0.000890         0.0242
  79   0.0000       0.017010         0.4629
  80   0.0000       0.017748         0.4829
  81   0.0000       0.026928         0.7328

                 SPIN DOWN ORBITALS
  NO   OCC          E(Eh)            E(eV)
   0   1.0000    -261.538021     -7116.8114
   1   1.0000    -104.767922     -2850.8801
   2   1.0000    -104.766346     -2850.8372
   3   1.0000    -104.759447     -2850.6495
   4   1.0000     -32.047243      -872.0498
   5   1.0000     -27.525358      -749.0031
   6   1.0000     -27.525200      -748.9988
   7   1.0000     -27.524664      -748.9842
   8   1.0000     -20.535755      -558.8063
   9   1.0000     -11.395963      -310.0999
  10   1.0000     -11.357252      -309.0465
  11   1.0000     -11.307074      -307.6811
  12   1.0000     -11.289675      -307.2077
  13   1.0000     -11.277884      -306.8868
  14   1.0000     -11.252393      -306.1932
  15   1.0000     -11.250202      -306.1336
  16   1.0000     -11.237935      -305.7998
  17   1.0000     -10.494446      -285.5684
  18   1.0000     -10.492975      -285.5284
  19   1.0000     -10.485948      -285.3372
  20   1.0000      -7.960323      -216.6114
  21   1.0000      -7.959855      -216.5987
  22   1.0000      -7.959761      -216.5961
  23   1.0000      -7.958894      -216.5725
  24   1.0000      -7.958253      -216.5551
  25   1.0000      -7.958218      -216.5541
  26   1.0000      -7.951892      -216.3820
  27   1.0000      -7.951196      -216.3630
  28   1.0000      -7.951100      -216.3604
  29   1.0000      -4.122276      -112.1728
  30   1.0000      -2.644336       -71.9560
  31   1.0000      -2.643994       -71.9467
  32   1.0000      -2.642956       -71.9185
  33   1.0000      -1.358992       -36.9801
  34   1.0000      -1.200323       -32.6624
  35   1.0000      -1.081484       -29.4287
  36   1.0000      -1.047338       -28.4995
  37   1.0000      -1.025498       -27.9052
  38   1.0000      -1.022427       -27.8217
  39   1.0000      -1.015018       -27.6200
  40   1.0000      -1.008271       -27.4364
  41   1.0000      -0.969580       -26.3836
  42   1.0000      -0.931835       -25.3565
  43   1.0000      -0.806548       -21.9473
  44   1.0000      -0.776275       -21.1235
  45   1.0000      -0.712508       -19.3883
  46   1.0000      -0.695622       -18.9288
  47   1.0000      -0.675010       -18.3679
  48   1.0000      -0.658712       -17.9245
  49   1.0000      -0.646771       -17.5995
  50   1.0000      -0.635270       -17.2866
  51   1.0000      -0.609607       -16.5883
  52   1.0000      -0.600573       -16.3424
  53   1.0000      -0.592212       -16.1149
  54   1.0000      -0.580837       -15.8054
  55   1.0000      -0.577358       -15.7107
  56   1.0000      -0.563722       -15.3397
  57   1.0000      -0.555270       -15.1097
  58   1.0000      -0.540187       -14.6992
  59   1.0000      -0.532366       -14.4864
  60   1.0000      -0.516534       -14.0556
  61   1.0000      -0.495115       -13.4728
  62   1.0000      -0.462289       -12.5795
  63   1.0000      -0.457884       -12.4597
  64   1.0000      -0.449639       -12.2353
  65   1.0000      -0.430848       -11.7240
  66   1.0000      -0.428474       -11.6594
  67   1.0000      -0.425780       -11.5861
  68   1.0000      -0.422190       -11.4884
  69   1.0000      -0.404092       -10.9959
  70   1.0000      -0.393169       -10.6987
  71   1.0000      -0.390202       -10.6179
  72   0.0000      -0.003434        -0.0934
  73   0.0000       0.000893         0.0243
  74   0.0000       0.017001         0.4626
  75   0.0000       0.017725         0.4823
  76   0.0000       0.026944         0.7332

E(0)                                       ...  -3028.424231940
E(0)                                       ...  -3028.424231940
E(CORR)(strong-pairs)                      ...     -2.875058686
E(CORR)(weak-pairs)                        ...     -0.035151969
E(CORR)(corrected)                         ...     -2.910210655
E(TOT)                                     ...  -3031.334442595
E(CCSD(T))                                 ...  -3031.454162073
FINAL SINGLE POINT ENERGY     -3031.454162073469

DIPOLE MOMENT
-------------
                                X             Y             Z
Electronic contribution:     42.43754       6.74110      -0.98304
Nuclear contribution   :    -48.45080      -6.90707       1.02232
                        -----------------------------------------
Total Dipole Moment    :     -6.01326      -0.16597       0.03928
                        -----------------------------------------
Magnitude (a.u.)       :      6.01567
Magnitude (Debye)      :     15.29063

Rotational constants in cm-1:     0.020780     0.010287     0.009797
Rotational constants in MHz :   622.968644   308.388746   293.715269

                             ****ORCA TERMINATED NORMALLY****
TOTAL RUN TIME: 0 days 21 hours 15 minutes 50 seconds 808 msec
