                         Program Version 4.1.2  - RELEASE  -
|  1> ! aug-cc-pVTZ aug-cc-pVTZ/C DLPNO-CCSD(T1) TightSCF NormalPNO UNO MiniPrint AutoAux
|  2> %pal nproc 10 end
|  3> %maxcore 20000
|  4> %mdci
|  5>      density none
|  6> end
|  7>
|  8> * xyz 0 6
|  9>  O     -0.27926700     -0.23319400     -0.78736700
| 10>  C     -1.11041600     -1.17679100     -0.64461900
| 11>  C     -3.06342200     -0.09049400      0.35948600
| 12>  C     -2.48205500      1.00710200     -0.17959100
| 13>  C     -2.74832300      1.43159300     -1.59409000
| 14> Fe      1.45434100      0.11624100      0.03129100
| 15> Cl      2.09564900      2.00258100     -0.85397900
| 16>  C     -1.58819300      1.93555200      0.58337900
| 17> Cl      2.58452700     -1.66015900     -0.57862700
| 18> Cl      1.18649500      0.20172000      2.21415700
| 19>  H     -3.77482500     -0.63262800     -0.26172900
| 20>  H     -2.14528000      2.85473600      0.81285800
| 21>  H     -1.21945000      1.52346700      1.52191300
| 22>  H     -0.73024900      2.23836700     -0.02683600
| 23>  H     -3.11679700      2.46526400     -1.60174400
| 24>  H     -1.81663600      1.43076700     -2.17428700
| 25>  H     -3.49167000      0.80457200     -2.09312600
| 26>  C     -3.09122500     -0.43982000      1.82479400
| 27>  H     -3.94192700      0.05997500      2.30735900
| 28>  H     -3.22666000     -1.51375300      1.98233500
| 29>  H     -2.18820000     -0.13002500      2.35650200
| 30>  C     -0.95438100     -2.15165000      0.48418600
| 31>  H     -1.83666400     -2.77832200      0.61669700
| 32>  H     -0.10992500     -2.79678800      0.19822000
| 33>  H     -0.68253600     -1.65991900      1.41787300
| 34>  C     -1.82160500     -1.65912300     -1.87816600
| 35>  H     -1.12428500     -2.36080800     -2.35891700
| 36>  H     -2.74038100     -2.20061200     -1.64926200
| 37>  H     -2.00893500     -0.84961700     -2.58113300
| 38> *
| 39>
| 40>
| 41>                          ****END OF INPUT****

CARTESIAN COORDINATES (ANGSTROEM)
---------------------------------
  O     -0.279267   -0.233194   -0.787367
  C     -1.110416   -1.176791   -0.644619
  C     -3.063422   -0.090494    0.359486
  C     -2.482055    1.007102   -0.179591
  C     -2.748323    1.431593   -1.594090
  Fe     1.454341    0.116241    0.031291
  Cl     2.095649    2.002581   -0.853979
  C     -1.588193    1.935552    0.583379
  Cl     2.584527   -1.660159   -0.578627
  Cl     1.186495    0.201720    2.214157
  H     -3.774825   -0.632628   -0.261729
  H     -2.145280    2.854736    0.812858
  H     -1.219450    1.523467    1.521913
  H     -0.730249    2.238367   -0.026836
  H     -3.116797    2.465264   -1.601744
  H     -1.816636    1.430767   -2.174287
  H     -3.491670    0.804572   -2.093126
  C     -3.091225   -0.439820    1.824794
  H     -3.941927    0.059975    2.307359
  H     -3.226660   -1.513753    1.982335
  H     -2.188200   -0.130025    2.356502
  C     -0.954381   -2.151650    0.484186
  H     -1.836664   -2.778322    0.616697
  H     -0.109925   -2.796788    0.198220
  H     -0.682536   -1.659919    1.417873
  C     -1.821605   -1.659123   -1.878166
  H     -1.124285   -2.360808   -2.358917
  H     -2.740381   -2.200612   -1.649262
  H     -2.008935   -0.849617   -2.581133

ORBITAL ENERGIES
----------------
                 SPIN UP ORBITALS
  NO   OCC          E(Eh)            E(eV)
   0   1.0000    -261.571925     -7117.7339
   1   1.0000    -104.790818     -2851.5031
   2   1.0000    -104.787846     -2851.4223
   3   1.0000    -104.786505     -2851.3858
   4   1.0000     -32.239667      -877.2859
   5   1.0000     -27.716049      -754.1920
   6   1.0000     -27.715061      -754.1652
   7   1.0000     -27.714896      -754.1607
   8   1.0000     -20.605826      -560.7130
   9   1.0000     -11.420229      -310.7602
  10   1.0000     -11.281919      -306.9966
  11   1.0000     -11.274911      -306.8059
  12   1.0000     -11.268719      -306.6374
  13   1.0000     -11.249670      -306.1191
  14   1.0000     -11.247062      -306.0481
  15   1.0000     -11.243174      -305.9423
  16   1.0000     -11.234611      -305.7093
  17   1.0000     -10.517515      -286.1961
  18   1.0000     -10.514513      -286.1144
  19   1.0000     -10.513123      -286.0766
  20   1.0000      -7.984358      -217.2654
  21   1.0000      -7.983584      -217.2444
  22   1.0000      -7.983538      -217.2431
  23   1.0000      -7.981396      -217.1848
  24   1.0000      -7.980605      -217.1633
  25   1.0000      -7.980540      -217.1615
  26   1.0000      -7.979915      -217.1445
  27   1.0000      -7.979244      -217.1263
  28   1.0000      -7.979192      -217.1248
  29   1.0000      -4.594632      -125.0263
  30   1.0000      -3.207686       -87.2856
  31   1.0000      -3.206139       -87.2435
  32   1.0000      -3.205952       -87.2384
  33   1.0000      -1.453485       -39.5513
  34   1.0000      -1.136345       -30.9215
  35   1.0000      -1.098157       -29.8824
  36   1.0000      -1.063598       -28.9420
  37   1.0000      -1.057973       -28.7889
  38   1.0000      -1.055462       -28.7206
  39   1.0000      -1.025662       -27.9097
  40   1.0000      -1.008041       -27.4302
  41   1.0000      -0.964998       -26.2589
  42   1.0000      -0.939301       -25.5597
  43   1.0000      -0.923652       -25.1338
  44   1.0000      -0.923553       -25.1312
  45   1.0000      -0.913130       -24.8475
  46   1.0000      -0.912632       -24.8340
  47   1.0000      -0.903844       -24.5949
  48   1.0000      -0.808351       -21.9964
  49   1.0000      -0.736645       -20.0451
  50   1.0000      -0.706326       -19.2201
  51   1.0000      -0.697640       -18.9837
  52   1.0000      -0.687112       -18.6973
  53   1.0000      -0.661427       -17.9984
  54   1.0000      -0.627805       -17.0834
  55   1.0000      -0.621276       -16.9058
  56   1.0000      -0.604168       -16.4402
  57   1.0000      -0.599433       -16.3114
  58   1.0000      -0.584654       -15.9092
  59   1.0000      -0.577155       -15.7052
  60   1.0000      -0.561703       -15.2847
  61   1.0000      -0.555638       -15.1197
  62   1.0000      -0.551313       -15.0020
  63   1.0000      -0.544693       -14.8219
  64   1.0000      -0.534657       -14.5487
  65   1.0000      -0.529208       -14.4005
  66   1.0000      -0.500529       -13.6201
  67   1.0000      -0.498109       -13.5542
  68   1.0000      -0.474715       -12.9176
  69   1.0000      -0.472433       -12.8555
  70   1.0000      -0.443651       -12.0724
  71   1.0000      -0.438013       -11.9189
  72   1.0000      -0.436419       -11.8756
  73   1.0000      -0.427711       -11.6386
  74   1.0000      -0.426541       -11.6068
  75   1.0000      -0.425673       -11.5831
  76   1.0000      -0.363820        -9.9000
  77   0.0000       0.012505         0.3403
  78   0.0000       0.023167         0.6304
  79   0.0000       0.023720         0.6455
  80   0.0000       0.030464         0.8290
  81   0.0000       0.039113         1.0643

                 SPIN DOWN ORBITALS
  NO   OCC          E(Eh)            E(eV)
   0   1.0000    -261.568354     -7117.6368
   1   1.0000    -104.789354     -2851.4633
   2   1.0000    -104.786315     -2851.3806
   3   1.0000    -104.784979     -2851.3442
   4   1.0000     -32.077654      -872.8773
   5   1.0000     -27.555565      -749.8250
   6   1.0000     -27.555524      -749.8239
   7   1.0000     -27.555354      -749.8193
   8   1.0000     -20.602090      -560.6114
   9   1.0000     -11.420123      -310.7573
  10   1.0000     -11.281925      -306.9968
  11   1.0000     -11.274802      -306.8030
  12   1.0000     -11.268711      -306.6372
  13   1.0000     -11.249582      -306.1167
  14   1.0000     -11.247059      -306.0480
  15   1.0000     -11.243183      -305.9426
  16   1.0000     -11.234630      -305.7098
  17   1.0000     -10.515949      -286.1535
  18   1.0000     -10.512877      -286.0699
  19   1.0000     -10.511500      -286.0325
  20   1.0000      -7.981857      -217.1974
  21   1.0000      -7.981168      -217.1786
  22   1.0000      -7.981117      -217.1772
  23   1.0000      -7.978754      -217.1129
  24   1.0000      -7.978095      -217.0950
  25   1.0000      -7.978001      -217.0924
  26   1.0000      -7.977487      -217.0785
  27   1.0000      -7.976629      -217.0551
  28   1.0000      -7.976548      -217.0529
  29   1.0000      -4.152458      -112.9941
  30   1.0000      -2.674036       -72.7642
  31   1.0000      -2.674005       -72.7634
  32   1.0000      -2.673480       -72.7491
  33   1.0000      -1.444163       -39.2977
  34   1.0000      -1.135939       -30.9105
  35   1.0000      -1.095700       -29.8155
  36   1.0000      -1.048300       -28.5257
  37   1.0000      -1.035890       -28.1880
  38   1.0000      -1.033229       -28.1156
  39   1.0000      -1.025204       -27.8972
  40   1.0000      -1.007270       -27.4092
  41   1.0000      -0.964871       -26.2555
  42   1.0000      -0.904173       -24.6038
  43   1.0000      -0.821330       -22.3495
  44   1.0000      -0.736713       -20.0470
  45   1.0000      -0.708866       -19.2892
  46   1.0000      -0.696853       -18.9623
  47   1.0000      -0.686165       -18.6715
  48   1.0000      -0.661329       -17.9957
  49   1.0000      -0.627716       -17.0810
  50   1.0000      -0.620767       -16.8919
  51   1.0000      -0.603837       -16.4312
  52   1.0000      -0.599377       -16.3099
  53   1.0000      -0.584379       -15.9018
  54   1.0000      -0.576388       -15.6843
  55   1.0000      -0.561003       -15.2657
  56   1.0000      -0.555562       -15.1176
  57   1.0000      -0.548856       -14.9351
  58   1.0000      -0.544623       -14.8199
  59   1.0000      -0.532573       -14.4920
  60   1.0000      -0.519797       -14.1444
  61   1.0000      -0.500669       -13.6239
  62   1.0000      -0.498642       -13.5687
  63   1.0000      -0.482061       -13.1175
  64   1.0000      -0.480129       -13.0650
  65   1.0000      -0.451109       -12.2753
  66   1.0000      -0.448182       -12.1957
  67   1.0000      -0.445547       -12.1240
  68   1.0000      -0.429422       -11.6852
  69   1.0000      -0.426724       -11.6117
  70   1.0000      -0.411157       -11.1882
  71   1.0000      -0.362847        -9.8736
  72   0.0000       0.012491         0.3399
  73   0.0000       0.023142         0.6297
  74   0.0000       0.023696         0.6448
  75   0.0000       0.030410         0.8275
  76   0.0000       0.038984         1.0608

E(0)                                       ...  -3028.450757364
E(0)                                       ...  -3028.450757364
E(CORR)(strong-pairs)                      ...     -2.870753762
E(CORR)(weak-pairs)                        ...     -0.035853640
E(CORR)(corrected)                         ...     -2.906607401
E(TOT)                                     ...  -3031.357364765
E(CCSD(T))                                 ...  -3031.476126592
FINAL SINGLE POINT ENERGY     -3031.476126592207

DIPOLE MOMENT
-------------
                                X             Y             Z
Electronic contribution:     42.76638       3.51815       2.04846
Nuclear contribution   :    -46.36151      -4.59818      -2.68203
                        -----------------------------------------
Total Dipole Moment    :     -3.59513      -1.08003      -0.63356
                        -----------------------------------------
Magnitude (a.u.)       :      3.80694
Magnitude (Debye)      :      9.67648

Rotational constants in cm-1:     0.019055     0.011005     0.010370
Rotational constants in MHz :   571.244093   329.936377   310.898648

                             ****ORCA TERMINATED NORMALLY****
TOTAL RUN TIME: 0 days 18 hours 13 minutes 6 seconds 57 msec
