                         Program Version 4.1.2  - RELEASE  -
|  1> ! aug-cc-pVTZ aug-cc-pVTZ/C DLPNO-CCSD(T1) TightSCF NormalPNO UNO MiniPrint AutoAux
|  2> %pal nproc 10 end
|  3> %maxcore 20000
|  4> %mdci
|  5>      density none
|  6> end
|  7>
|  8> * xyz 0 6
|  9>  O      0.20018000      0.44709400     -0.85113900
| 10>  C      0.91057200      1.44798000     -0.62356800
| 11>  C      3.20250500     -0.01898100      0.51553900
| 12>  C      2.62418200     -0.93845200     -0.27928800
| 13>  C      2.98962800     -1.05311500     -1.73628500
| 14> Fe     -1.47321500     -0.17464700      0.02861400
| 15> Cl     -2.07344100     -1.93352500     -1.09395300
| 16>  C      1.67180600     -1.99799400      0.19818300
| 17> Cl     -2.72125100      1.59955300     -0.26515100
| 18> Cl     -1.05631000     -0.53106100      2.14971300
| 19>  H      3.93927800      0.64371000      0.05830600
| 20>  H      2.16644100     -2.97842500      0.16195400
| 21>  H      1.31277500     -1.84201800      1.21524900
| 22>  H      0.80417300     -2.07387500     -0.46759300
| 23>  H      3.43920200     -2.03442800     -1.93787700
| 24>  H      2.09528800     -0.98909100     -2.36955700
| 25>  H      3.70452800     -0.28613900     -2.04959600
| 26>  C      3.04020800      0.13398400      2.00246600
| 27>  H      3.89181800     -0.31478700      2.53227400
| 28>  H      3.01703700      1.19071400      2.29377200
| 29>  H      2.13060500     -0.33839100      2.38199300
| 30>  C      0.78727600      2.21870500      0.65120200
| 31>  H      1.65591900      2.85489300      0.82736300
| 32>  H     -0.10286500      2.85745100      0.55177500
| 33>  H      0.61604600      1.55441900      1.49966600
| 34>  C      1.73222700      2.01797500     -1.73552900
| 35>  H      1.22220600      2.93227000     -2.07229300
| 36>  H      2.72497700      2.30852900     -1.38519800
| 37>  H      1.80130600      1.32422400     -2.57173800
| 38> *
| 39>
| 40>
| 41>                          ****END OF INPUT****

CARTESIAN COORDINATES (ANGSTROEM)
---------------------------------
  O      0.200180    0.447094   -0.851139
  C      0.910572    1.447980   -0.623568
  C      3.202505   -0.018981    0.515539
  C      2.624182   -0.938452   -0.279288
  C      2.989628   -1.053115   -1.736285
  Fe    -1.473215   -0.174647    0.028614
  Cl    -2.073441   -1.933525   -1.093953
  C      1.671806   -1.997994    0.198183
  Cl    -2.721251    1.599553   -0.265151
  Cl    -1.056310   -0.531061    2.149713
  H      3.939278    0.643710    0.058306
  H      2.166441   -2.978425    0.161954
  H      1.312775   -1.842018    1.215249
  H      0.804173   -2.073875   -0.467593
  H      3.439202   -2.034428   -1.937877
  H      2.095288   -0.989091   -2.369557
  H      3.704528   -0.286139   -2.049596
  C      3.040208    0.133984    2.002466
  H      3.891818   -0.314787    2.532274
  H      3.017037    1.190714    2.293772
  H      2.130605   -0.338391    2.381993
  C      0.787276    2.218705    0.651202
  H      1.655919    2.854893    0.827363
  H     -0.102865    2.857451    0.551775
  H      0.616046    1.554419    1.499666
  C      1.732227    2.017975   -1.735529
  H      1.222206    2.932270   -2.072293
  H      2.724977    2.308529   -1.385198
  H      1.801306    1.324224   -2.571738

ORBITAL ENERGIES
----------------
                 SPIN UP ORBITALS
  NO   OCC          E(Eh)            E(eV)
   0   1.0000    -261.579856     -7117.9497
   1   1.0000    -104.796214     -2851.6499
   2   1.0000    -104.793368     -2851.5725
   3   1.0000    -104.791564     -2851.5234
   4   1.0000     -32.247485      -877.4987
   5   1.0000     -27.724048      -754.4097
   6   1.0000     -27.722779      -754.3752
   7   1.0000     -27.722589      -754.3700
   8   1.0000     -20.628703      -561.3355
   9   1.0000     -11.422555      -310.8235
  10   1.0000     -11.280281      -306.9521
  11   1.0000     -11.274176      -306.7859
  12   1.0000     -11.256545      -306.3062
  13   1.0000     -11.238116      -305.8047
  14   1.0000     -11.237019      -305.7748
  15   1.0000     -11.234148      -305.6967
  16   1.0000     -11.224770      -305.4415
  17   1.0000     -10.522952      -286.3441
  18   1.0000     -10.520081      -286.2660
  19   1.0000     -10.518222      -286.2154
  20   1.0000      -7.989770      -217.4127
  21   1.0000      -7.989046      -217.3930
  22   1.0000      -7.988984      -217.3913
  23   1.0000      -7.986981      -217.3368
  24   1.0000      -7.986169      -217.3147
  25   1.0000      -7.986115      -217.3132
  26   1.0000      -7.984999      -217.2829
  27   1.0000      -7.984351      -217.2652
  28   1.0000      -7.984313      -217.2642
  29   1.0000      -4.602201      -125.2323
  30   1.0000      -3.215373       -87.4948
  31   1.0000      -3.213511       -87.4441
  32   1.0000      -3.213419       -87.4416
  33   1.0000      -1.472796       -40.0768
  34   1.0000      -1.117686       -30.4138
  35   1.0000      -1.104447       -30.0535
  36   1.0000      -1.069907       -29.1137
  37   1.0000      -1.064119       -28.9561
  38   1.0000      -1.061542       -28.8860
  39   1.0000      -1.020708       -27.7749
  40   1.0000      -1.008308       -27.4374
  41   1.0000      -0.952775       -25.9263
  42   1.0000      -0.945522       -25.7289
  43   1.0000      -0.931021       -25.3344
  44   1.0000      -0.930877       -25.3304
  45   1.0000      -0.919859       -25.0306
  46   1.0000      -0.919244       -25.0139
  47   1.0000      -0.890204       -24.2237
  48   1.0000      -0.818191       -22.2641
  49   1.0000      -0.722755       -19.6672
  50   1.0000      -0.716978       -19.5100
  51   1.0000      -0.707148       -19.2425
  52   1.0000      -0.685406       -18.6509
  53   1.0000      -0.648677       -17.6514
  54   1.0000      -0.621897       -16.9227
  55   1.0000      -0.615441       -16.7470
  56   1.0000      -0.603364       -16.4184
  57   1.0000      -0.600071       -16.3288
  58   1.0000      -0.586769       -15.9668
  59   1.0000      -0.580091       -15.7851
  60   1.0000      -0.561243       -15.2722
  61   1.0000      -0.548153       -14.9160
  62   1.0000      -0.546737       -14.8775
  63   1.0000      -0.537379       -14.6228
  64   1.0000      -0.534947       -14.5566
  65   1.0000      -0.521812       -14.1992
  66   1.0000      -0.507194       -13.8015
  67   1.0000      -0.487310       -13.2604
  68   1.0000      -0.479577       -13.0499
  69   1.0000      -0.478396       -13.0178
  70   1.0000      -0.449617       -12.2347
  71   1.0000      -0.443066       -12.0564
  72   1.0000      -0.441299       -12.0084
  73   1.0000      -0.432739       -11.7754
  74   1.0000      -0.431626       -11.7451
  75   1.0000      -0.430475       -11.7138
  76   1.0000      -0.354068        -9.6347
  77   0.0000       0.012760         0.3472
  78   0.0000       0.024019         0.6536
  79   0.0000       0.024968         0.6794
  80   0.0000       0.030974         0.8428
  81   0.0000       0.039604         1.0777

                 SPIN DOWN ORBITALS
  NO   OCC          E(Eh)            E(eV)
   0   1.0000    -261.576268     -7117.8521
   1   1.0000    -104.794704     -2851.6089
   2   1.0000    -104.791801     -2851.5299
   3   1.0000    -104.789980     -2851.4803
   4   1.0000     -32.085528      -873.0916
   5   1.0000     -27.563495      -750.0408
   6   1.0000     -27.563338      -750.0366
   7   1.0000     -27.563276      -750.0349
   8   1.0000     -20.625445      -561.2469
   9   1.0000     -11.422485      -310.8216
  10   1.0000     -11.280180      -306.9493
  11   1.0000     -11.274172      -306.7858
  12   1.0000     -11.256599      -306.3076
  13   1.0000     -11.238047      -305.8028
  14   1.0000     -11.237011      -305.7746
  15   1.0000     -11.234155      -305.6969
  16   1.0000     -11.224776      -305.4417
  17   1.0000     -10.521342      -286.3003
  18   1.0000     -10.518408      -286.2204
  19   1.0000     -10.516541      -286.1696
  20   1.0000      -7.987277      -217.3449
  21   1.0000      -7.986490      -217.3234
  22   1.0000      -7.986453      -217.3224
  23   1.0000      -7.984264      -217.2629
  24   1.0000      -7.983607      -217.2450
  25   1.0000      -7.983511      -217.2424
  26   1.0000      -7.982541      -217.2160
  27   1.0000      -7.981604      -217.1905
  28   1.0000      -7.981526      -217.1884
  29   1.0000      -4.160208      -113.2050
  30   1.0000      -2.681752       -72.9742
  31   1.0000      -2.681673       -72.9720
  32   1.0000      -2.681291       -72.9616
  33   1.0000      -1.464894       -39.8618
  34   1.0000      -1.117388       -30.4057
  35   1.0000      -1.102350       -29.9965
  36   1.0000      -1.054075       -28.6828
  37   1.0000      -1.041424       -28.3386
  38   1.0000      -1.038487       -28.2587
  39   1.0000      -1.019691       -27.7472
  40   1.0000      -1.008138       -27.4328
  41   1.0000      -0.952561       -25.9205
  42   1.0000      -0.890275       -24.2256
  43   1.0000      -0.829993       -22.5852
  44   1.0000      -0.722918       -19.6716
  45   1.0000      -0.718324       -19.5466
  46   1.0000      -0.706439       -19.2232
  47   1.0000      -0.684885       -18.6367
  48   1.0000      -0.648639       -17.6504
  49   1.0000      -0.621310       -16.9067
  50   1.0000      -0.615353       -16.7446
  51   1.0000      -0.603260       -16.4155
  52   1.0000      -0.599990       -16.3265
  53   1.0000      -0.586491       -15.9592
  54   1.0000      -0.578779       -15.7494
  55   1.0000      -0.560289       -15.2462
  56   1.0000      -0.546737       -14.8775
  57   1.0000      -0.545219       -14.8362
  58   1.0000      -0.535148       -14.5621
  59   1.0000      -0.527083       -14.3427
  60   1.0000      -0.521571       -14.1927
  61   1.0000      -0.508827       -13.8459
  62   1.0000      -0.488692       -13.2980
  63   1.0000      -0.486480       -13.2378
  64   1.0000      -0.485087       -13.1999
  65   1.0000      -0.456376       -12.4186
  66   1.0000      -0.453507       -12.3405
  67   1.0000      -0.450326       -12.2540
  68   1.0000      -0.433652       -11.8003
  69   1.0000      -0.432074       -11.7573
  70   1.0000      -0.415622       -11.3097
  71   1.0000      -0.353729        -9.6255
  72   0.0000       0.012743         0.3468
  73   0.0000       0.023994         0.6529
  74   0.0000       0.024925         0.6782
  75   0.0000       0.030920         0.8414
  76   0.0000       0.039527         1.0756

E(0)                                       ...  -3028.473147519
E(0)                                       ...  -3028.473147519
E(CORR)(strong-pairs)                      ...     -2.865123166
E(CORR)(weak-pairs)                        ...     -0.035246256
E(CORR)(corrected)                         ...     -2.900369422
E(TOT)                                     ...  -3031.373516941
E(CCSD(T))                                 ...  -3031.491010522
FINAL SINGLE POINT ENERGY     -3031.491010521980

DIPOLE MOMENT
-------------
                                X             Y             Z
Electronic contribution:    -43.62223      -4.82277       1.90572
Nuclear contribution   :     46.66297       6.47672      -2.49120
                        -----------------------------------------
Total Dipole Moment    :      3.04073       1.65395      -0.58547
                        -----------------------------------------
Magnitude (a.u.)       :      3.51061
Magnitude (Debye)      :      8.92326

Rotational constants in cm-1:     0.018600     0.010660     0.010040
Rotational constants in MHz :   557.619819   319.571457   300.987050

                             ****ORCA TERMINATED NORMALLY****
TOTAL RUN TIME: 0 days 16 hours 59 minutes 13 seconds 553 msec
