                         Program Version 4.1.2  - RELEASE  -
|  1> ! aug-cc-pVTZ aug-cc-pVTZ/C DLPNO-CCSD(T1) TightSCF NormalPNO UNO MiniPrint AutoAux
|  2> %pal nproc 10 end
|  3> %maxcore 20000
|  4> %mdci
|  5>      density none
|  6> end
|  7>
|  8> * xyz 0 6
|  9>  O     -0.31430200     -0.16353700     -0.73654300
| 10>  C     -1.20730900     -1.08772000     -0.60988000
| 11>  C     -2.90550300     -0.19272800      0.35843100
| 12>  C     -2.44403200      0.99894600     -0.13411200
| 13>  C     -2.78936600      1.48398900     -1.50490300
| 14> Fe      1.42404900      0.10564300      0.01053100
| 15> Cl      2.03496600      2.05882600     -0.77012400
| 16>  C     -1.57412000      1.92133300      0.65111300
| 17> Cl      2.58039500     -1.61839100     -0.70223400
| 18> Cl      1.19831200      0.09034100      2.21367000
| 19>  H     -3.65600800     -0.70748700     -0.23795400
| 20>  H     -2.20066500      2.75198200      1.00876700
| 21>  H     -1.10613700      1.45695800      1.51755100
| 22>  H     -0.79571900      2.35900600      0.01782500
| 23>  H     -3.16590800      2.51220400     -1.43600100
| 24>  H     -1.87983700      1.52885200     -2.11792400
| 25>  H     -3.54398500      0.87175600     -2.00255800
| 26>  C     -2.90851700     -0.53794600      1.83048400
| 27>  H     -3.71822400      0.00919100      2.32991600
| 28>  H     -3.09388600     -1.60262000      1.98963600
| 29>  H     -1.97510800     -0.27673200      2.33409400
| 30>  C     -0.95389300     -2.18754200      0.39312400
| 31>  H     -1.81314500     -2.84894900      0.51450700
| 32>  H     -0.12285100     -2.77146000     -0.02767300
| 33>  H     -0.62327100     -1.80387400      1.35746600
| 34>  C     -1.84458300     -1.54751000     -1.90405600
| 35>  H     -1.08194300     -2.16258100     -2.40015100
| 36>  H     -2.73009000     -2.16516500     -1.74194000
| 37>  H     -2.07258000     -0.71762600     -2.57054200
| 38> *
| 39>
| 40>
| 41>                          ****END OF INPUT****

CARTESIAN COORDINATES (ANGSTROEM)
---------------------------------
  O     -0.314302   -0.163537   -0.736543
  C     -1.207309   -1.087720   -0.609880
  C     -2.905503   -0.192728    0.358431
  C     -2.444032    0.998946   -0.134112
  C     -2.789366    1.483989   -1.504903
  Fe     1.424049    0.105643    0.010531
  Cl     2.034966    2.058826   -0.770124
  C     -1.574120    1.921333    0.651113
  Cl     2.580395   -1.618391   -0.702234
  Cl     1.198312    0.090341    2.213670
  H     -3.656008   -0.707487   -0.237954
  H     -2.200665    2.751982    1.008767
  H     -1.106137    1.456958    1.517551
  H     -0.795719    2.359006    0.017825
  H     -3.165908    2.512204   -1.436001
  H     -1.879837    1.528852   -2.117924
  H     -3.543985    0.871756   -2.002558
  C     -2.908517   -0.537946    1.830484
  H     -3.718224    0.009191    2.329916
  H     -3.093886   -1.602620    1.989636
  H     -1.975108   -0.276732    2.334094
  C     -0.953893   -2.187542    0.393124
  H     -1.813145   -2.848949    0.514507
  H     -0.122851   -2.771460   -0.027673
  H     -0.623271   -1.803874    1.357466
  C     -1.844583   -1.547510   -1.904056
  H     -1.081943   -2.162581   -2.400151
  H     -2.730090   -2.165165   -1.741940
  H     -2.072580   -0.717626   -2.570542

ORBITAL ENERGIES
----------------
                 SPIN UP ORBITALS
  NO   OCC          E(Eh)            E(eV)
   0   1.0000    -261.561449     -7117.4489
   1   1.0000    -104.784246     -2851.3243
   2   1.0000    -104.780287     -2851.2166
   3   1.0000    -104.780109     -2851.2117
   4   1.0000     -32.229290      -877.0036
   5   1.0000     -27.705441      -753.9034
   6   1.0000     -27.704827      -753.8867
   7   1.0000     -27.704642      -753.8816
   8   1.0000     -20.577721      -559.9482
   9   1.0000     -11.407255      -310.4072
  10   1.0000     -11.321209      -308.0658
  11   1.0000     -11.265652      -306.5540
  12   1.0000     -11.265518      -306.5503
  13   1.0000     -11.262952      -306.4805
  14   1.0000     -11.258753      -306.3662
  15   1.0000     -11.249730      -306.1207
  16   1.0000     -11.247746      -306.0667
  17   1.0000     -10.510896      -286.0160
  18   1.0000     -10.506924      -285.9079
  19   1.0000     -10.506707      -285.9020
  20   1.0000      -7.977768      -217.0861
  21   1.0000      -7.976934      -217.0634
  22   1.0000      -7.976900      -217.0625
  23   1.0000      -7.973785      -216.9777
  24   1.0000      -7.973512      -216.9703
  25   1.0000      -7.973019      -216.9569
  26   1.0000      -7.972950      -216.9550
  27   1.0000      -7.972819      -216.9514
  28   1.0000      -7.972753      -216.9496
  29   1.0000      -4.584462      -124.7495
  30   1.0000      -3.197261       -87.0019
  31   1.0000      -3.196253       -86.9745
  32   1.0000      -3.195924       -86.9655
  33   1.0000      -1.424898       -38.7734
  34   1.0000      -1.158514       -31.5248
  35   1.0000      -1.089202       -29.6387
  36   1.0000      -1.055809       -28.7300
  37   1.0000      -1.050168       -28.5765
  38   1.0000      -1.047717       -28.5098
  39   1.0000      -1.036139       -28.1948
  40   1.0000      -0.996949       -27.1284
  41   1.0000      -0.980821       -26.6895
  42   1.0000      -0.930326       -25.3155
  43   1.0000      -0.917369       -24.9629
  44   1.0000      -0.913680       -24.8625
  45   1.0000      -0.913584       -24.8599
  46   1.0000      -0.904117       -24.6023
  47   1.0000      -0.903466       -24.5846
  48   1.0000      -0.795291       -21.6410
  49   1.0000      -0.752765       -20.4838
  50   1.0000      -0.693665       -18.8756
  51   1.0000      -0.690162       -18.7803
  52   1.0000      -0.682424       -18.5697
  53   1.0000      -0.666693       -18.1416
  54   1.0000      -0.641471       -17.4553
  55   1.0000      -0.622551       -16.9405
  56   1.0000      -0.603654       -16.4263
  57   1.0000      -0.595529       -16.2052
  58   1.0000      -0.583093       -15.8668
  59   1.0000      -0.573554       -15.6072
  60   1.0000      -0.569182       -15.4882
  61   1.0000      -0.559953       -15.2371
  62   1.0000      -0.555365       -15.1122
  63   1.0000      -0.548710       -14.9311
  64   1.0000      -0.542730       -14.7684
  65   1.0000      -0.522277       -14.2119
  66   1.0000      -0.515909       -14.0386
  67   1.0000      -0.486095       -13.2273
  68   1.0000      -0.468094       -12.7375
  69   1.0000      -0.462953       -12.5976
  70   1.0000      -0.435655       -11.8548
  71   1.0000      -0.431715       -11.7476
  72   1.0000      -0.430181       -11.7058
  73   1.0000      -0.421318       -11.4646
  74   1.0000      -0.420045       -11.4300
  75   1.0000      -0.419258       -11.4086
  76   1.0000      -0.376467       -10.2442
  77   0.0000       0.010959         0.2982
  78   0.0000       0.021222         0.5775
  79   0.0000       0.022502         0.6123
  80   0.0000       0.029904         0.8137
  81   0.0000       0.037294         1.0148

                 SPIN DOWN ORBITALS
  NO   OCC          E(Eh)            E(eV)
   0   1.0000    -261.557894     -7117.3521
   1   1.0000    -104.782850     -2851.2863
   2   1.0000    -104.778797     -2851.1760
   3   1.0000    -104.778657     -2851.1722
   4   1.0000     -32.067229      -872.5937
   5   1.0000     -27.545202      -749.5430
   6   1.0000     -27.545122      -749.5409
   7   1.0000     -27.544811      -749.5324
   8   1.0000     -20.573267      -559.8271
   9   1.0000     -11.407196      -310.4056
  10   1.0000     -11.321085      -308.0624
  11   1.0000     -11.265539      -306.5509
  12   1.0000     -11.265434      -306.5480
  13   1.0000     -11.262967      -306.4809
  14   1.0000     -11.258735      -306.3657
  15   1.0000     -11.249739      -306.1210
  16   1.0000     -11.247786      -306.0678
  17   1.0000     -10.509399      -285.9753
  18   1.0000     -10.505331      -285.8646
  19   1.0000     -10.505159      -285.8599
  20   1.0000      -7.975276      -217.0183
  21   1.0000      -7.974706      -217.0028
  22   1.0000      -7.974641      -217.0010
  23   1.0000      -7.971237      -216.9084
  24   1.0000      -7.971141      -216.9058
  25   1.0000      -7.970564      -216.8901
  26   1.0000      -7.970476      -216.8877
  27   1.0000      -7.970366      -216.8847
  28   1.0000      -7.970279      -216.8823
  29   1.0000      -4.142158      -112.7138
  30   1.0000      -2.663830       -72.4865
  31   1.0000      -2.663821       -72.4862
  32   1.0000      -2.663060       -72.4655
  33   1.0000      -1.413616       -38.4664
  34   1.0000      -1.157756       -31.5041
  35   1.0000      -1.086503       -29.5652
  36   1.0000      -1.041244       -28.3337
  37   1.0000      -1.035744       -28.1840
  38   1.0000      -1.028999       -28.0005
  39   1.0000      -1.026311       -27.9273
  40   1.0000      -0.996167       -27.1071
  41   1.0000      -0.980659       -26.6851
  42   1.0000      -0.918911       -25.0048
  43   1.0000      -0.808477       -21.9998
  44   1.0000      -0.752977       -20.4896
  45   1.0000      -0.695784       -18.9332
  46   1.0000      -0.690066       -18.7777
  47   1.0000      -0.682026       -18.5589
  48   1.0000      -0.665997       -18.1227
  49   1.0000      -0.641342       -17.4518
  50   1.0000      -0.622108       -16.9284
  51   1.0000      -0.602966       -16.4075
  52   1.0000      -0.595557       -16.2059
  53   1.0000      -0.582916       -15.8619
  54   1.0000      -0.572917       -15.5899
  55   1.0000      -0.569050       -15.4846
  56   1.0000      -0.559921       -15.2362
  57   1.0000      -0.554927       -15.1003
  58   1.0000      -0.547237       -14.8911
  59   1.0000      -0.539639       -14.6843
  60   1.0000      -0.516030       -14.0419
  61   1.0000      -0.511966       -13.9313
  62   1.0000      -0.485096       -13.2001
  63   1.0000      -0.473882       -12.8950
  64   1.0000      -0.472287       -12.8516
  65   1.0000      -0.444254       -12.0888
  66   1.0000      -0.441432       -12.0120
  67   1.0000      -0.439260       -11.9529
  68   1.0000      -0.424531       -11.5521
  69   1.0000      -0.419771       -11.4226
  70   1.0000      -0.405456       -11.0330
  71   1.0000      -0.374293       -10.1850
  72   0.0000       0.010952         0.2980
  73   0.0000       0.021197         0.5768
  74   0.0000       0.022486         0.6119
  75   0.0000       0.029846         0.8122
  76   0.0000       0.036940         1.0052

E(0)                                       ...  -3028.432674724
E(0)                                       ...  -3028.432674724
E(CORR)(strong-pairs)                      ...     -2.873736838
E(CORR)(weak-pairs)                        ...     -0.036400798
E(CORR)(corrected)                         ...     -2.910137636
E(TOT)                                     ...  -3031.342812359
E(CCSD(T))                                 ...  -3031.462736395
FINAL SINGLE POINT ENERGY     -3031.462736394659

DIPOLE MOMENT
-------------
                                X             Y             Z
Electronic contribution:     41.43493       3.97849       1.91793
Nuclear contribution   :    -45.62323      -4.56007      -2.48345
                        -----------------------------------------
Total Dipole Moment    :     -4.18830      -0.58158      -0.56552
                        -----------------------------------------
Magnitude (a.u.)       :      4.26614
Magnitude (Debye)      :     10.84366

Rotational constants in cm-1:     0.019147     0.011308     0.010617
Rotational constants in MHz :   574.015749   338.998641   318.275722

                             ****ORCA TERMINATED NORMALLY****
TOTAL RUN TIME: 0 days 20 hours 36 minutes 35 seconds 155 msec
