                         Program Version 4.1.2  - RELEASE  -
|  1> ! aug-cc-pVTZ aug-cc-pVTZ/C DLPNO-CCSD(T1) TightSCF NormalPNO UNO MiniPrint AutoAux
|  2> %pal nproc 10 end
|  3> %maxcore 20000
|  4> %mdci
|  5>      density none
|  6> end
|  7>
|  8> * xyz 0 6
|  9>  O     -0.42421900     -0.16841900     -0.50849800
| 10>  C     -1.43024200     -1.20583200     -0.34999400
| 11>  C     -2.79249000     -0.11592900     -0.21256200
| 12>  C     -1.92867100      1.12914700     -0.27832000
| 13>  C     -1.84348300      1.87477900     -1.56112500
| 14> Fe      1.37378800      0.04090900      0.03827200
| 15> Cl      1.85723900      2.00434800     -0.85061500
| 16>  C     -1.55799000      1.85963500      0.96173000
| 17> Cl      2.43354600     -1.71304000     -0.73810900
| 18> Cl      1.37290300      0.14823600      2.24613500
| 19>  H     -3.37471200     -0.21022300     -1.13277700
| 20>  H     -2.42465600      2.47992000      1.23988700
| 21>  H     -1.33872200      1.19289500      1.79580800
| 22>  H     -0.70573300      2.52105200      0.79130100
| 23>  H     -2.65522800      2.62006100     -1.55803300
| 24>  H     -0.89161200      2.40573100     -1.64322200
| 25>  H     -1.98438500      1.22052200     -2.42301200
| 26>  C     -3.68008000     -0.29340100      1.00785600
| 27>  H     -4.45614100      0.48027600      1.04952800
| 28>  H     -4.18630600     -1.26217100      0.95667400
| 29>  H     -3.11914500     -0.26005400      1.94475500
| 30>  C     -1.19520100     -2.03287700      0.89419400
| 31>  H     -2.01117600     -2.74695100      1.04489300
| 32>  H     -0.26505900     -2.60082600      0.77390300
| 33>  H     -1.08943800     -1.41222800      1.78592800
| 34>  C     -1.50185900     -2.03106300     -1.61635800
| 35>  H     -0.54729000     -2.55011800     -1.75989200
| 36>  H     -2.30134000     -2.77731000     -1.55184600
| 37>  H     -1.67638600     -1.39586800     -2.48950500
| 38> *
| 39>
| 40>
| 41>                          ****END OF INPUT****

CARTESIAN COORDINATES (ANGSTROEM)
---------------------------------
  O     -0.424219   -0.168419   -0.508498
  C     -1.430242   -1.205832   -0.349994
  C     -2.792490   -0.115929   -0.212562
  C     -1.928671    1.129147   -0.278320
  C     -1.843483    1.874779   -1.561125
  Fe     1.373788    0.040909    0.038272
  Cl     1.857239    2.004348   -0.850615
  C     -1.557990    1.859635    0.961730
  Cl     2.433546   -1.713040   -0.738109
  Cl     1.372903    0.148236    2.246135
  H     -3.374712   -0.210223   -1.132777
  H     -2.424656    2.479920    1.239887
  H     -1.338722    1.192895    1.795808
  H     -0.705733    2.521052    0.791301
  H     -2.655228    2.620061   -1.558033
  H     -0.891612    2.405731   -1.643222
  H     -1.984385    1.220522   -2.423012
  C     -3.680080   -0.293401    1.007856
  H     -4.456141    0.480276    1.049528
  H     -4.186306   -1.262171    0.956674
  H     -3.119145   -0.260054    1.944755
  C     -1.195201   -2.032877    0.894194
  H     -2.011176   -2.746951    1.044893
  H     -0.265059   -2.600826    0.773903
  H     -1.089438   -1.412228    1.785928
  C     -1.501859   -2.031063   -1.616358
  H     -0.547290   -2.550118   -1.759892
  H     -2.301340   -2.777310   -1.551846
  H     -1.676386   -1.395868   -2.489505

ORBITAL ENERGIES
----------------
                 SPIN UP ORBITALS
  NO   OCC          E(Eh)            E(eV)
   0   1.0000    -261.552080     -7117.1939
   1   1.0000    -104.779120     -2851.1848
   2   1.0000    -104.777081     -2851.1293
   3   1.0000    -104.775735     -2851.0927
   4   1.0000     -32.220002      -876.7508
   5   1.0000     -27.695978      -753.6459
   6   1.0000     -27.695669      -753.6375
   7   1.0000     -27.695390      -753.6299
   8   1.0000     -20.568006      -559.6839
   9   1.0000     -11.399703      -310.2017
  10   1.0000     -11.343254      -308.6656
  11   1.0000     -11.292328      -307.2799
  12   1.0000     -11.275302      -306.8166
  13   1.0000     -11.273593      -306.7701
  14   1.0000     -11.261488      -306.4407
  15   1.0000     -11.238447      -305.8137
  16   1.0000     -11.236670      -305.7653
  17   1.0000     -10.505731      -285.8755
  18   1.0000     -10.503761      -285.8219
  19   1.0000     -10.502370      -285.7840
  20   1.0000      -7.972555      -216.9442
  21   1.0000      -7.971819      -216.9242
  22   1.0000      -7.971748      -216.9223
  23   1.0000      -7.970641      -216.8922
  24   1.0000      -7.969810      -216.8695
  25   1.0000      -7.969777      -216.8687
  26   1.0000      -7.969169      -216.8521
  27   1.0000      -7.968486      -216.8335
  28   1.0000      -7.968418      -216.8317
  29   1.0000      -4.575355      -124.5017
  30   1.0000      -3.187801       -86.7445
  31   1.0000      -3.187478       -86.7357
  32   1.0000      -3.186905       -86.7201
  33   1.0000      -1.361333       -37.0438
  34   1.0000      -1.163233       -31.6532
  35   1.0000      -1.086913       -29.5764
  36   1.0000      -1.050765       -28.5928
  37   1.0000      -1.045037       -28.4369
  38   1.0000      -1.043390       -28.3921
  39   1.0000      -1.036969       -28.2174
  40   1.0000      -1.008593       -27.4452
  41   1.0000      -0.966393       -26.2969
  42   1.0000      -0.929481       -25.2925
  43   1.0000      -0.905193       -24.6316
  44   1.0000      -0.904731       -24.6190
  45   1.0000      -0.902861       -24.5681
  46   1.0000      -0.896162       -24.3858
  47   1.0000      -0.895554       -24.3693
  48   1.0000      -0.795126       -21.6365
  49   1.0000      -0.757439       -20.6110
  50   1.0000      -0.694662       -18.9027
  51   1.0000      -0.686229       -18.6732
  52   1.0000      -0.668692       -18.1960
  53   1.0000      -0.637310       -17.3421
  54   1.0000      -0.627828       -17.0841
  55   1.0000      -0.621970       -16.9247
  56   1.0000      -0.598699       -16.2914
  57   1.0000      -0.594975       -16.1901
  58   1.0000      -0.589951       -16.0534
  59   1.0000      -0.581136       -15.8135
  60   1.0000      -0.571507       -15.5515
  61   1.0000      -0.559011       -15.2115
  62   1.0000      -0.544701       -14.8221
  63   1.0000      -0.537161       -14.6169
  64   1.0000      -0.530628       -14.4391
  65   1.0000      -0.520324       -14.1587
  66   1.0000      -0.506433       -13.7808
  67   1.0000      -0.480364       -13.0714
  68   1.0000      -0.466258       -12.6875
  69   1.0000      -0.454842       -12.3769
  70   1.0000      -0.438616       -11.9354
  71   1.0000      -0.429117       -11.6769
  72   1.0000      -0.425355       -11.5745
  73   1.0000      -0.419179       -11.4064
  74   1.0000      -0.416171       -11.3246
  75   1.0000      -0.415040       -11.2938
  76   1.0000      -0.411996       -11.2110
  77   0.0000       0.008432         0.2294
  78   0.0000       0.020579         0.5600
  79   0.0000       0.022761         0.6194
  80   0.0000       0.030969         0.8427
  81   0.0000       0.037709         1.0261

                 SPIN DOWN ORBITALS
  NO   OCC          E(Eh)            E(eV)
   0   1.0000    -261.548528     -7117.0973
   1   1.0000    -104.777763     -2851.1479
   2   1.0000    -104.775676     -2851.0911
   3   1.0000    -104.774269     -2851.0528
   4   1.0000     -32.058037      -872.3435
   5   1.0000     -27.536058      -749.2942
   6   1.0000     -27.535903      -749.2900
   7   1.0000     -27.535512      -749.2794
   8   1.0000     -20.562755      -559.5410
   9   1.0000     -11.399746      -310.2029
  10   1.0000     -11.343104      -308.6615
  11   1.0000     -11.292190      -307.2761
  12   1.0000     -11.275283      -306.8161
  13   1.0000     -11.273601      -306.7703
  14   1.0000     -11.261482      -306.4405
  15   1.0000     -11.238410      -305.8127
  16   1.0000     -11.236659      -305.7650
  17   1.0000     -10.504275      -285.8359
  18   1.0000     -10.502251      -285.7808
  19   1.0000     -10.500802      -285.7414
  20   1.0000      -7.970234      -216.8811
  21   1.0000      -7.969582      -216.8633
  22   1.0000      -7.969515      -216.8615
  23   1.0000      -7.968148      -216.8243
  24   1.0000      -7.967557      -216.8083
  25   1.0000      -7.967495      -216.8066
  26   1.0000      -7.966781      -216.7871
  27   1.0000      -7.965994      -216.7657
  28   1.0000      -7.965942      -216.7643
  29   1.0000      -4.133295      -112.4727
  30   1.0000      -2.655200       -72.2517
  31   1.0000      -2.655067       -72.2480
  32   1.0000      -2.654118       -72.2222
  33   1.0000      -1.347593       -36.6699
  34   1.0000      -1.161653       -31.6102
  35   1.0000      -1.084421       -29.5086
  36   1.0000      -1.036200       -28.1964
  37   1.0000      -1.035635       -28.1811
  38   1.0000      -1.024951       -27.8903
  39   1.0000      -1.022693       -27.8289
  40   1.0000      -1.008278       -27.4366
  41   1.0000      -0.965781       -26.2802
  42   1.0000      -0.922006       -25.0891
  43   1.0000      -0.797645       -21.7050
  44   1.0000      -0.761424       -20.7194
  45   1.0000      -0.694730       -18.9046
  46   1.0000      -0.685865       -18.6633
  47   1.0000      -0.669382       -18.2148
  48   1.0000      -0.638187       -17.3660
  49   1.0000      -0.628003       -17.0888
  50   1.0000      -0.620251       -16.8779
  51   1.0000      -0.598673       -16.2907
  52   1.0000      -0.594078       -16.1657
  53   1.0000      -0.589927       -16.0527
  54   1.0000      -0.579333       -15.7644
  55   1.0000      -0.571244       -15.5444
  56   1.0000      -0.558764       -15.2047
  57   1.0000      -0.541457       -14.7338
  58   1.0000      -0.536450       -14.5975
  59   1.0000      -0.528812       -14.3897
  60   1.0000      -0.515010       -14.0141
  61   1.0000      -0.505042       -13.7429
  62   1.0000      -0.476597       -12.9689
  63   1.0000      -0.469579       -12.7779
  64   1.0000      -0.464889       -12.6503
  65   1.0000      -0.440373       -11.9832
  66   1.0000      -0.436999       -11.8913
  67   1.0000      -0.436435       -11.8760
  68   1.0000      -0.433598       -11.7988
  69   1.0000      -0.415495       -11.3062
  70   1.0000      -0.407299       -11.0832
  71   1.0000      -0.402206       -10.9446
  72   0.0000       0.008410         0.2289
  73   0.0000       0.020492         0.5576
  74   0.0000       0.022741         0.6188
  75   0.0000       0.031013         0.8439
  76   0.0000       0.037713         1.0262

E(0)                                       ...  -3028.436539216
E(0)                                       ...  -3028.436539216
E(CORR)(strong-pairs)                      ...     -2.874597528
E(CORR)(weak-pairs)                        ...     -0.035562914
E(CORR)(corrected)                         ...     -2.910160442
E(TOT)                                     ...  -3031.346699659
E(CCSD(T))                                 ...  -3031.465766689
FINAL SINGLE POINT ENERGY     -3031.465766688707

DIPOLE MOMENT
-------------
                                X             Y             Z
Electronic contribution:     40.22043       3.42891       1.79665
Nuclear contribution   :    -44.70097      -2.97086      -2.18778
                        -----------------------------------------
Total Dipole Moment    :     -4.48054       0.45805      -0.39113
                        -----------------------------------------
Magnitude (a.u.)       :      4.52084
Magnitude (Debye)      :     11.49106

Rotational constants in cm-1:     0.018887     0.012061     0.010804
Rotational constants in MHz :   566.220476   361.590816   323.881961

                             ****ORCA TERMINATED NORMALLY****
TOTAL RUN TIME: 0 days 22 hours 3 minutes 11 seconds 409 msec
