                         Program Version 4.1.2  - RELEASE  -
|  1> ! aug-cc-pVTZ aug-cc-pVTZ/C DLPNO-CCSD(T1) TightSCF NormalPNO UNO MiniPrint AutoAux
|  2> %pal nproc 10 end
|  3> %maxcore 20000
|  4> %mdci
|  5>      density none
|  6> end
|  7>
|  8> * xyz 0 6
|  9>  O     -0.29588300     -0.20344400     -0.77307900
| 10>  C     -1.17532300     -1.12625700     -0.62164600
| 11>  C     -2.86795200     -0.22678600      0.45815000
| 12>  C     -2.52036600      0.96677400     -0.10806200
| 13>  C     -3.00758500      1.37723500     -1.46242300
| 14> Fe      1.43310300      0.12387600     -0.00317400
| 15> Cl      2.02937500      2.05806500     -0.83278200
| 16>  C     -1.62200100      1.95626600      0.55530200
| 17> Cl      2.62056400     -1.60167100     -0.65213200
| 18> Cl      1.17564800      0.16955400      2.19263100
| 19>  H     -3.62582800     -0.81018200     -0.06132500
| 20>  H     -2.20569800      2.85588300      0.79604900
| 21>  H     -1.16088700      1.59153700      1.47142000
| 22>  H     -0.83086400      2.27381800     -0.13424700
| 23>  H     -3.47236600      2.36879500     -1.39305600
| 24>  H     -2.15880600      1.48293600     -2.15094900
| 25>  H     -3.73912400      0.68438100     -1.88337100
| 26>  C     -2.72672400     -0.52526000      1.93383100
| 27>  H     -3.49949200      0.02068100      2.48979000
| 28>  H     -2.87344200     -1.58770100      2.14056100
| 29>  H     -1.75710800     -0.23102500      2.34144200
| 30>  C     -0.90238500     -2.22408700      0.37703700
| 31>  H     -1.76594900     -2.87281900      0.53148200
| 32>  H     -0.09432900     -2.82104200     -0.06943500
| 33>  H     -0.53375700     -1.84091000      1.32761300
| 34>  C     -1.87526700     -1.57099100     -1.88659700
| 35>  H     -1.15532300     -2.21948900     -2.40387400
| 36>  H     -2.77668100     -2.15411400     -1.68963800
| 37>  H     -2.09333600     -0.73644600     -2.55007000
| 38> *
| 39>
| 40>
| 41>                          ****END OF INPUT****

CARTESIAN COORDINATES (ANGSTROEM)
---------------------------------
  O     -0.295883   -0.203444   -0.773079
  C     -1.175323   -1.126257   -0.621646
  C     -2.867952   -0.226786    0.458150
  C     -2.520366    0.966774   -0.108062
  C     -3.007585    1.377235   -1.462423
  Fe     1.433103    0.123876   -0.003174
  Cl     2.029375    2.058065   -0.832782
  C     -1.622001    1.956266    0.555302
  Cl     2.620564   -1.601671   -0.652132
  Cl     1.175648    0.169554    2.192631
  H     -3.625828   -0.810182   -0.061325
  H     -2.205698    2.855883    0.796049
  H     -1.160887    1.591537    1.471420
  H     -0.830864    2.273818   -0.134247
  H     -3.472366    2.368795   -1.393056
  H     -2.158806    1.482936   -2.150949
  H     -3.739124    0.684381   -1.883371
  C     -2.726724   -0.525260    1.933831
  H     -3.499492    0.020681    2.489790
  H     -2.873442   -1.587701    2.140561
  H     -1.757108   -0.231025    2.341442
  C     -0.902385   -2.224087    0.377037
  H     -1.765949   -2.872819    0.531482
  H     -0.094329   -2.821042   -0.069435
  H     -0.533757   -1.840910    1.327613
  C     -1.875267   -1.570991   -1.886597
  H     -1.155323   -2.219489   -2.403874
  H     -2.776681   -2.154114   -1.689638
  H     -2.093336   -0.736446   -2.550070

ORBITAL ENERGIES
----------------
                 SPIN UP ORBITALS
  NO   OCC          E(Eh)            E(eV)
   0   1.0000    -261.563793     -7117.5127
   1   1.0000    -104.786045     -2851.3732
   2   1.0000    -104.781899     -2851.2604
   3   1.0000    -104.781208     -2851.2416
   4   1.0000     -32.231622      -877.0670
   5   1.0000     -27.707829      -753.9683
   6   1.0000     -27.707125      -753.9492
   7   1.0000     -27.706939      -753.9441
   8   1.0000     -20.585423      -560.1579
   9   1.0000     -11.410516      -310.4959
  10   1.0000     -11.311063      -307.7897
  11   1.0000     -11.267825      -306.6131
  12   1.0000     -11.262175      -306.4594
  13   1.0000     -11.261511      -306.4413
  14   1.0000     -11.260890      -306.4244
  15   1.0000     -11.245976      -306.0186
  16   1.0000     -11.244363      -305.9747
  17   1.0000     -10.512708      -286.0653
  18   1.0000     -10.508555      -285.9523
  19   1.0000     -10.507821      -285.9324
  20   1.0000      -7.979575      -217.1353
  21   1.0000      -7.978750      -217.1128
  22   1.0000      -7.978717      -217.1119
  23   1.0000      -7.975417      -217.0221
  24   1.0000      -7.974652      -217.0013
  25   1.0000      -7.974626      -217.0006
  26   1.0000      -7.974588      -216.9996
  27   1.0000      -7.973936      -216.9818
  28   1.0000      -7.973873      -216.9801
  29   1.0000      -4.586748      -124.8118
  30   1.0000      -3.199609       -87.0658
  31   1.0000      -3.198462       -87.0346
  32   1.0000      -3.198183       -87.0270
  33   1.0000      -1.431478       -38.9525
  34   1.0000      -1.153233       -31.3811
  35   1.0000      -1.090529       -29.6748
  36   1.0000      -1.057775       -28.7835
  37   1.0000      -1.051994       -28.6262
  38   1.0000      -1.049342       -28.5541
  39   1.0000      -1.033399       -28.1202
  40   1.0000      -0.998777       -27.1781
  41   1.0000      -0.977630       -26.6027
  42   1.0000      -0.932001       -25.3610
  43   1.0000      -0.915909       -24.9231
  44   1.0000      -0.915835       -24.9211
  45   1.0000      -0.913939       -24.8696
  46   1.0000      -0.906150       -24.6576
  47   1.0000      -0.905409       -24.6374
  48   1.0000      -0.798421       -21.7261
  49   1.0000      -0.749572       -20.3969
  50   1.0000      -0.694944       -18.9104
  51   1.0000      -0.689029       -18.7494
  52   1.0000      -0.683019       -18.5859
  53   1.0000      -0.667915       -18.1749
  54   1.0000      -0.638408       -17.3720
  55   1.0000      -0.622911       -16.9503
  56   1.0000      -0.604272       -16.4431
  57   1.0000      -0.595547       -16.2057
  58   1.0000      -0.582468       -15.8498
  59   1.0000      -0.573686       -15.6108
  60   1.0000      -0.566444       -15.4137
  61   1.0000      -0.558135       -15.1876
  62   1.0000      -0.554931       -15.1004
  63   1.0000      -0.547742       -14.9048
  64   1.0000      -0.540685       -14.7128
  65   1.0000      -0.524998       -14.2859
  66   1.0000      -0.512309       -13.9406
  67   1.0000      -0.488723       -13.2988
  68   1.0000      -0.469440       -12.7741
  69   1.0000      -0.465413       -12.6645
  70   1.0000      -0.437475       -11.9043
  71   1.0000      -0.433234       -11.7889
  72   1.0000      -0.431560       -11.7433
  73   1.0000      -0.422696       -11.5022
  74   1.0000      -0.421470       -11.4688
  75   1.0000      -0.420539       -11.4434
  76   1.0000      -0.374070       -10.1790
  77   0.0000       0.011319         0.3080
  78   0.0000       0.021522         0.5856
  79   0.0000       0.022845         0.6216
  80   0.0000       0.029780         0.8104
  81   0.0000       0.037570         1.0223

                 SPIN DOWN ORBITALS
  NO   OCC          E(Eh)            E(eV)
   0   1.0000    -261.560235     -7117.4158
   1   1.0000    -104.784635     -2851.3349
   2   1.0000    -104.780395     -2851.2195
   3   1.0000    -104.779734     -2851.2015
   4   1.0000     -32.069567      -872.6573
   5   1.0000     -27.547521      -749.6062
   6   1.0000     -27.547452      -749.6043
   7   1.0000     -27.547183      -749.5970
   8   1.0000     -20.581174      -560.0422
   9   1.0000     -11.410448      -310.4941
  10   1.0000     -11.310903      -307.7853
  11   1.0000     -11.267711      -306.6100
  12   1.0000     -11.262167      -306.4591
  13   1.0000     -11.261496      -306.4409
  14   1.0000     -11.260910      -306.4249
  15   1.0000     -11.245976      -306.0186
  16   1.0000     -11.244406      -305.9758
  17   1.0000     -10.511195      -286.0242
  18   1.0000     -10.506947      -285.9086
  19   1.0000     -10.506250      -285.8896
  20   1.0000      -7.977080      -217.0674
  21   1.0000      -7.976481      -217.0511
  22   1.0000      -7.976425      -217.0496
  23   1.0000      -7.972852      -216.9523
  24   1.0000      -7.972231      -216.9354
  25   1.0000      -7.972169      -216.9337
  26   1.0000      -7.972082      -216.9314
  27   1.0000      -7.971437      -216.9138
  28   1.0000      -7.971351      -216.9115
  29   1.0000      -4.144466      -112.7767
  30   1.0000      -2.666127       -72.5490
  31   1.0000      -2.666106       -72.5484
  32   1.0000      -2.665374       -72.5285
  33   1.0000      -1.420743       -38.6604
  34   1.0000      -1.152559       -31.3627
  35   1.0000      -1.087840       -29.6016
  36   1.0000      -1.043019       -28.3820
  37   1.0000      -1.033274       -28.1168
  38   1.0000      -1.030430       -28.0394
  39   1.0000      -1.027625       -27.9631
  40   1.0000      -0.997990       -27.1567
  41   1.0000      -0.977502       -26.5992
  42   1.0000      -0.914758       -24.8918
  43   1.0000      -0.811735       -22.0884
  44   1.0000      -0.749731       -20.4012
  45   1.0000      -0.697656       -18.9842
  46   1.0000      -0.688626       -18.7385
  47   1.0000      -0.682087       -18.5605
  48   1.0000      -0.667478       -18.1630
  49   1.0000      -0.638309       -17.3693
  50   1.0000      -0.622412       -16.9367
  51   1.0000      -0.603655       -16.4263
  52   1.0000      -0.595528       -16.2051
  53   1.0000      -0.582284       -15.8447
  54   1.0000      -0.572751       -15.5853
  55   1.0000      -0.566315       -15.4102
  56   1.0000      -0.558043       -15.1851
  57   1.0000      -0.554618       -15.0919
  58   1.0000      -0.545471       -14.8430
  59   1.0000      -0.538954       -14.6657
  60   1.0000      -0.514849       -14.0098
  61   1.0000      -0.511722       -13.9247
  62   1.0000      -0.488338       -13.2884
  63   1.0000      -0.475962       -12.9516
  64   1.0000      -0.474040       -12.8993
  65   1.0000      -0.446029       -12.1371
  66   1.0000      -0.443087       -12.0570
  67   1.0000      -0.440636       -11.9903
  68   1.0000      -0.425525       -11.5791
  69   1.0000      -0.421190       -11.4612
  70   1.0000      -0.406699       -11.0668
  71   1.0000      -0.372185       -10.1277
  72   0.0000       0.011309         0.3077
  73   0.0000       0.021498         0.5850
  74   0.0000       0.022831         0.6213
  75   0.0000       0.029670         0.8074
  76   0.0000       0.037171         1.0115

E(0)                                       ...  -3028.437430709
E(0)                                       ...  -3028.437430709
E(CORR)(strong-pairs)                      ...     -2.873543816
E(CORR)(weak-pairs)                        ...     -0.036278052
E(CORR)(corrected)                         ...     -2.909821868
E(TOT)                                     ...  -3031.347252578
E(CCSD(T))                                 ...  -3031.467051417
FINAL SINGLE POINT ENERGY     -3031.467051416627

DIPOLE MOMENT
-------------
                                X             Y             Z
Electronic contribution:     41.75762       4.41111       1.60654
Nuclear contribution   :    -45.83041      -5.17259      -2.16809
                        -----------------------------------------
Total Dipole Moment    :     -4.07279      -0.76148      -0.56155
                        -----------------------------------------
Magnitude (a.u.)       :      4.18124
Magnitude (Debye)      :     10.62788

Rotational constants in cm-1:     0.019120     0.011205     0.010527
Rotational constants in MHz :   573.189069   335.906810   315.585673

                             ****ORCA TERMINATED NORMALLY****
TOTAL RUN TIME: 0 days 19 hours 18 minutes 29 seconds 395 msec
