                         Program Version 4.1.2  - RELEASE  -
|  1> ! aug-cc-pVTZ aug-cc-pVTZ/C DLPNO-CCSD(T1) TightSCF NormalPNO UNO MiniPrint AutoAux
|  2> %pal nproc 10 end
|  3> %maxcore 20000
|  4> %mdci
|  5>      density none
|  6> end
|  7>
|  8> * xyz 0 6
|  9>  O      0.21892900      0.41494700     -0.83962000
| 10>  C      0.93632100      1.41500500     -0.62617200
| 11>  C      3.19886500     -0.01795400      0.48626700
| 12>  C      2.59592800     -0.95207000     -0.27297800
| 13>  C      2.93286100     -1.11157000     -1.73219000
| 14> Fe     -1.46997500     -0.16613500      0.03213800
| 15> Cl     -2.08270500     -1.93784500     -1.06437000
| 16>  C      1.64754300     -1.99143500      0.25350400
| 17> Cl     -2.69100000      1.61907600     -0.30855600
| 18> Cl     -1.08444500     -0.48832100      2.16521600
| 19>  H      3.93361500      0.62458900     -0.00151900
| 20>  H      2.14615800     -2.97055700      0.25912200
| 21>  H      1.29151700     -1.79239700      1.26409800
| 22>  H      0.77848200     -2.09953400     -0.40551400
| 23>  H      3.36278400     -2.10549900     -1.91361900
| 24>  H      2.02804100     -1.05043200     -2.35053700
| 25>  H      3.65462600     -0.36583300     -2.07894800
| 26>  C      3.07261900      0.16736700      1.97314600
| 27>  H      3.92706500     -0.28834500      2.49232800
| 28>  H      3.07609400      1.22941600      2.24470600
| 29>  H      2.16334300     -0.28079100      2.38194200
| 30>  C      0.81656400      2.20500800      0.63713300
| 31>  H      1.69178100      2.83333700      0.80849400
| 32>  H     -0.06450700      2.85372700      0.52182200
| 33>  H      0.63168700      1.55653200      1.49468000
| 34>  C      1.74435400      1.97607200     -1.75297500
| 35>  H      1.20739000      2.86633800     -2.11213000
| 36>  H      2.72959300      2.30277300     -1.41429700
| 37>  H      1.82846600      1.26457300     -2.57260700
| 38> *
| 39>
| 40>
| 41>                          ****END OF INPUT****

CARTESIAN COORDINATES (ANGSTROEM)
---------------------------------
  O      0.218929    0.414947   -0.839620
  C      0.936321    1.415005   -0.626172
  C      3.198865   -0.017954    0.486267
  C      2.595928   -0.952070   -0.272978
  C      2.932861   -1.111570   -1.732190
  Fe    -1.469975   -0.166135    0.032138
  Cl    -2.082705   -1.937845   -1.064370
  C      1.647543   -1.991435    0.253504
  Cl    -2.691000    1.619076   -0.308556
  Cl    -1.084445   -0.488321    2.165216
  H      3.933615    0.624589   -0.001519
  H      2.146158   -2.970557    0.259122
  H      1.291517   -1.792397    1.264098
  H      0.778482   -2.099534   -0.405514
  H      3.362784   -2.105499   -1.913619
  H      2.028041   -1.050432   -2.350537
  H      3.654626   -0.365833   -2.078948
  C      3.072619    0.167367    1.973146
  H      3.927065   -0.288345    2.492328
  H      3.076094    1.229416    2.244706
  H      2.163343   -0.280791    2.381942
  C      0.816564    2.205008    0.637133
  H      1.691781    2.833337    0.808494
  H     -0.064507    2.853727    0.521822
  H      0.631687    1.556532    1.494680
  C      1.744354    1.976072   -1.752975
  H      1.207390    2.866338   -2.112130
  H      2.729593    2.302773   -1.414297
  H      1.828466    1.264573   -2.572607

ORBITAL ENERGIES
----------------
                 SPIN UP ORBITALS
  NO   OCC          E(Eh)            E(eV)
   0   1.0000    -261.579516     -7117.9405
   1   1.0000    -104.795901     -2851.6414
   2   1.0000    -104.793093     -2851.5650
   3   1.0000    -104.791356     -2851.5178
   4   1.0000     -32.247148      -877.4895
   5   1.0000     -27.723701      -754.4003
   6   1.0000     -27.722449      -754.3662
   7   1.0000     -27.722262      -754.3611
   8   1.0000     -20.627149      -561.2933
   9   1.0000     -11.422608      -310.8250
  10   1.0000     -11.279949      -306.9430
  11   1.0000     -11.273897      -306.7783
  12   1.0000     -11.257858      -306.3419
  13   1.0000     -11.238556      -305.8167
  14   1.0000     -11.237397      -305.7851
  15   1.0000     -11.235054      -305.7214
  16   1.0000     -11.225376      -305.4580
  17   1.0000     -10.522634      -286.3354
  18   1.0000     -10.519802      -286.2584
  19   1.0000     -10.518010      -286.2096
  20   1.0000      -7.989453      -217.4041
  21   1.0000      -7.988726      -217.3843
  22   1.0000      -7.988665      -217.3826
  23   1.0000      -7.986704      -217.3293
  24   1.0000      -7.985889      -217.3071
  25   1.0000      -7.985834      -217.3056
  26   1.0000      -7.984788      -217.2771
  27   1.0000      -7.984138      -217.2594
  28   1.0000      -7.984100      -217.2584
  29   1.0000      -4.601877      -125.2234
  30   1.0000      -3.215045       -87.4858
  31   1.0000      -3.213196       -87.4355
  32   1.0000      -3.213102       -87.4330
  33   1.0000      -1.471836       -40.0507
  34   1.0000      -1.118826       -30.4448
  35   1.0000      -1.104216       -30.0472
  36   1.0000      -1.069547       -29.1038
  37   1.0000      -1.063787       -28.9471
  38   1.0000      -1.061265       -28.8785
  39   1.0000      -1.020751       -27.7760
  40   1.0000      -1.008793       -27.4507
  41   1.0000      -0.953555       -25.9475
  42   1.0000      -0.945245       -25.7214
  43   1.0000      -0.930708       -25.3258
  44   1.0000      -0.930569       -25.3221
  45   1.0000      -0.919570       -25.0228
  46   1.0000      -0.918973       -25.0065
  47   1.0000      -0.891114       -24.2485
  48   1.0000      -0.817617       -22.2485
  49   1.0000      -0.723556       -19.6889
  50   1.0000      -0.716478       -19.4964
  51   1.0000      -0.706760       -19.2319
  52   1.0000      -0.685905       -18.6644
  53   1.0000      -0.649577       -17.6759
  54   1.0000      -0.622049       -16.9268
  55   1.0000      -0.616253       -16.7691
  56   1.0000      -0.603259       -16.4155
  57   1.0000      -0.600095       -16.3294
  58   1.0000      -0.586690       -15.9647
  59   1.0000      -0.580020       -15.7831
  60   1.0000      -0.561127       -15.2691
  61   1.0000      -0.548739       -14.9319
  62   1.0000      -0.547453       -14.8970
  63   1.0000      -0.537048       -14.6138
  64   1.0000      -0.535444       -14.5702
  65   1.0000      -0.522462       -14.2169
  66   1.0000      -0.506701       -13.7880
  67   1.0000      -0.488006       -13.2793
  68   1.0000      -0.479186       -13.0393
  69   1.0000      -0.478356       -13.0167
  70   1.0000      -0.449313       -12.2264
  71   1.0000      -0.442803       -12.0493
  72   1.0000      -0.441061       -12.0019
  73   1.0000      -0.432505       -11.7691
  74   1.0000      -0.431342       -11.7374
  75   1.0000      -0.430256       -11.7079
  76   1.0000      -0.354608        -9.6494
  77   0.0000       0.012813         0.3487
  78   0.0000       0.023974         0.6524
  79   0.0000       0.024911         0.6779
  80   0.0000       0.030901         0.8409
  81   0.0000       0.039591         1.0773

                 SPIN DOWN ORBITALS
  NO   OCC          E(Eh)            E(eV)
   0   1.0000    -261.575930     -7117.8429
   1   1.0000    -104.794394     -2851.6004
   2   1.0000    -104.791528     -2851.5224
   3   1.0000    -104.789776     -2851.4748
   4   1.0000     -32.085188      -873.0824
   5   1.0000     -27.563151      -750.0315
   6   1.0000     -27.563002      -750.0274
   7   1.0000     -27.562934      -750.0256
   8   1.0000     -20.623877      -561.2042
   9   1.0000     -11.422530      -310.8228
  10   1.0000     -11.279848      -306.9403
  11   1.0000     -11.273894      -306.7782
  12   1.0000     -11.257917      -306.3435
  13   1.0000     -11.238478      -305.8145
  14   1.0000     -11.237388      -305.7849
  15   1.0000     -11.235062      -305.7216
  16   1.0000     -11.225382      -305.4582
  17   1.0000     -10.521026      -286.2917
  18   1.0000     -10.518132      -286.2129
  19   1.0000     -10.516333      -286.1640
  20   1.0000      -7.986959      -217.3362
  21   1.0000      -7.986179      -217.3150
  22   1.0000      -7.986139      -217.3139
  23   1.0000      -7.983986      -217.2553
  24   1.0000      -7.983335      -217.2376
  25   1.0000      -7.983238      -217.2349
  26   1.0000      -7.982333      -217.2103
  27   1.0000      -7.981401      -217.1850
  28   1.0000      -7.981323      -217.1828
  29   1.0000      -4.159870      -113.1958
  30   1.0000      -2.681416       -72.9650
  31   1.0000      -2.681334       -72.9628
  32   1.0000      -2.680950       -72.9524
  33   1.0000      -1.463873       -39.8340
  34   1.0000      -1.118535       -30.4369
  35   1.0000      -1.102093       -29.9895
  36   1.0000      -1.053755       -28.6741
  37   1.0000      -1.041117       -28.3302
  38   1.0000      -1.038260       -28.2525
  39   1.0000      -1.019768       -27.7493
  40   1.0000      -1.008585       -27.4450
  41   1.0000      -0.953334       -25.9415
  42   1.0000      -0.891196       -24.2507
  43   1.0000      -0.829450       -22.5705
  44   1.0000      -0.723677       -19.6922
  45   1.0000      -0.717949       -19.5364
  46   1.0000      -0.706035       -19.2122
  47   1.0000      -0.685371       -18.6499
  48   1.0000      -0.649536       -17.6748
  49   1.0000      -0.621479       -16.9113
  50   1.0000      -0.616163       -16.7666
  51   1.0000      -0.603133       -16.4121
  52   1.0000      -0.600011       -16.3271
  53   1.0000      -0.586426       -15.9575
  54   1.0000      -0.578797       -15.7499
  55   1.0000      -0.560116       -15.2415
  56   1.0000      -0.547571       -14.9002
  57   1.0000      -0.545854       -14.8535
  58   1.0000      -0.535726       -14.5779
  59   1.0000      -0.526693       -14.3320
  60   1.0000      -0.522073       -14.2063
  61   1.0000      -0.508258       -13.8304
  62   1.0000      -0.488541       -13.2939
  63   1.0000      -0.486781       -13.2460
  64   1.0000      -0.485224       -13.2036
  65   1.0000      -0.456086       -12.4107
  66   1.0000      -0.453244       -12.3334
  67   1.0000      -0.450101       -12.2479
  68   1.0000      -0.433412       -11.7937
  69   1.0000      -0.431834       -11.7508
  70   1.0000      -0.415396       -11.3035
  71   1.0000      -0.354224        -9.6389
  72   0.0000       0.012796         0.3482
  73   0.0000       0.023950         0.6517
  74   0.0000       0.024869         0.6767
  75   0.0000       0.030845         0.8393
  76   0.0000       0.039506         1.0750

E(0)                                       ...  -3028.471155054
E(0)                                       ...  -3028.471155054
E(CORR)(strong-pairs)                      ...     -2.865958874
E(CORR)(weak-pairs)                        ...     -0.035049251
E(CORR)(corrected)                         ...     -2.901008125
E(TOT)                                     ...  -3031.372163179
E(CCSD(T))                                 ...  -3031.489795805
FINAL SINGLE POINT ENERGY     -3031.489795805337

DIPOLE MOMENT
-------------
                                X             Y             Z
Electronic contribution:    -43.54832      -4.54553       1.95889
Nuclear contribution   :     46.62975       6.14226      -2.55497
                        -----------------------------------------
Total Dipole Moment    :      3.08143       1.59673      -0.59608
                        -----------------------------------------
Magnitude (a.u.)       :      3.52137
Magnitude (Debye)      :      8.95062

Rotational constants in cm-1:     0.018652     0.010706     0.010088
Rotational constants in MHz :   559.168752   320.943525   302.432802

                             ****ORCA TERMINATED NORMALLY****
TOTAL RUN TIME: 0 days 17 hours 21 minutes 28 seconds 872 msec
