                         Program Version 4.1.2  - RELEASE  -
|  1> ! aug-cc-pVTZ aug-cc-pVTZ/C DLPNO-CCSD(T1) TightSCF NormalPNO UNO MiniPrint AutoAux
|  2> %pal nproc 10 end
|  3> %maxcore 20000
|  4> %mdci
|  5>      density none
|  6> end
|  7>
|  8> * xyz 0 6
|  9>  O      0.18097000      0.36799200     -0.86885300
| 10>  C      1.01173800      1.29423000     -0.67192400
| 11>  C      2.95706700      0.22895200      0.58640000
| 12>  C      2.73028100     -0.90828800     -0.11080900
| 13>  C      3.34405200     -1.14104600     -1.46270500
| 14> Fe     -1.49403000     -0.17002800     -0.00741500
| 15> Cl     -2.02933200     -2.03043300     -1.00309100
| 16>  C      1.82964300     -2.00834200      0.36465000
| 17> Cl     -2.76731400      1.55742800     -0.43296700
| 18> Cl     -1.10432900     -0.40677900      2.14171800
| 19>  H      3.66281300      0.93964100      0.15688100
| 20>  H      2.36805400     -2.96473800      0.37305300
| 21>  H      1.41378900     -1.83651500      1.35708400
| 22>  H      0.99337900     -2.13284900     -0.33761000
| 23>  H      3.95212100     -2.05479900     -1.44189900
| 24>  H      2.56829100     -1.30660900     -2.22272800
| 25>  H      3.98747200     -0.31629000     -1.78056200
| 26>  C      2.63773900      0.43926600      2.04609800
| 27>  H      3.39818000     -0.05547600      2.66492100
| 28>  H      2.65794300      1.49924300      2.31254900
| 29>  H      1.66532500      0.03646600      2.33773500
| 30>  C      0.79566200      2.27348300      0.44238800
| 31>  H      1.68075200      2.87742700      0.64413600
| 32>  H     -0.00937500      2.93826700      0.09487800
| 33>  H      0.44253400      1.78778900      1.35190700
| 34>  C      1.84254600      1.72843200     -1.84541000
| 35>  H      1.23048700      2.46409100     -2.38748100
| 36>  H      2.76926100      2.21928900     -1.54646900
| 37>  H      2.04022000      0.89805900     -2.52110900
| 38> *
| 39>
| 40>
| 41>                          ****END OF INPUT****

CARTESIAN COORDINATES (ANGSTROEM)
---------------------------------
  O      0.180970    0.367992   -0.868853
  C      1.011738    1.294230   -0.671924
  C      2.957067    0.228952    0.586400
  C      2.730281   -0.908288   -0.110809
  C      3.344052   -1.141046   -1.462705
  Fe    -1.494030   -0.170028   -0.007415
  Cl    -2.029332   -2.030433   -1.003091
  C      1.829643   -2.008342    0.364650
  Cl    -2.767314    1.557428   -0.432967
  Cl    -1.104329   -0.406779    2.141718
  H      3.662813    0.939641    0.156881
  H      2.368054   -2.964738    0.373053
  H      1.413789   -1.836515    1.357084
  H      0.993379   -2.132849   -0.337610
  H      3.952121   -2.054799   -1.441899
  H      2.568291   -1.306609   -2.222728
  H      3.987472   -0.316290   -1.780562
  C      2.637739    0.439266    2.046098
  H      3.398180   -0.055476    2.664921
  H      2.657943    1.499243    2.312549
  H      1.665325    0.036466    2.337735
  C      0.795662    2.273483    0.442388
  H      1.680752    2.877427    0.644136
  H     -0.009375    2.938267    0.094878
  H      0.442534    1.787789    1.351907
  C      1.842546    1.728432   -1.845410
  H      1.230487    2.464091   -2.387481
  H      2.769261    2.219289   -1.546469
  H      2.040220    0.898059   -2.521109

ORBITAL ENERGIES
----------------
                 SPIN UP ORBITALS
  NO   OCC          E(Eh)            E(eV)
   0   1.0000    -261.573434     -7117.7750
   1   1.0000    -104.792769     -2851.5562
   2   1.0000    -104.789158     -2851.4580
   3   1.0000    -104.786872     -2851.3958
   4   1.0000     -32.241177      -877.3270
   5   1.0000     -27.717622      -754.2348
   6   1.0000     -27.716545      -754.2055
   7   1.0000     -27.716335      -754.1998
   8   1.0000     -20.616663      -561.0079
   9   1.0000     -11.420853      -310.7772
  10   1.0000     -11.276539      -306.8502
  11   1.0000     -11.273963      -306.7801
  12   1.0000     -11.271770      -306.7204
  13   1.0000     -11.247196      -306.0518
  14   1.0000     -11.247136      -306.0501
  15   1.0000     -11.236476      -305.7601
  16   1.0000     -11.232556      -305.6534
  17   1.0000     -10.519491      -286.2499
  18   1.0000     -10.515841      -286.1506
  19   1.0000     -10.513507      -286.0871
  20   1.0000      -7.986326      -217.3190
  21   1.0000      -7.985564      -217.2982
  22   1.0000      -7.985519      -217.2970
  23   1.0000      -7.982706      -217.2205
  24   1.0000      -7.981942      -217.1997
  25   1.0000      -7.981890      -217.1983
  26   1.0000      -7.980303      -217.1551
  27   1.0000      -7.979639      -217.1370
  28   1.0000      -7.979581      -217.1354
  29   1.0000      -4.596118      -125.0667
  30   1.0000      -3.209263       -87.3285
  31   1.0000      -3.207562       -87.2822
  32   1.0000      -3.207371       -87.2770
  33   1.0000      -1.459560       -39.7166
  34   1.0000      -1.130540       -30.7636
  35   1.0000      -1.098806       -29.9000
  36   1.0000      -1.065550       -28.9951
  37   1.0000      -1.059613       -28.8335
  38   1.0000      -1.056325       -28.7441
  39   1.0000      -1.022987       -27.8369
  40   1.0000      -1.008528       -27.4434
  41   1.0000      -0.961972       -26.1766
  42   1.0000      -0.941185       -25.6109
  43   1.0000      -0.925102       -25.1733
  44   1.0000      -0.924946       -25.1691
  45   1.0000      -0.914464       -24.8838
  46   1.0000      -0.913744       -24.8642
  47   1.0000      -0.898460       -24.4483
  48   1.0000      -0.812154       -22.0998
  49   1.0000      -0.733464       -19.9586
  50   1.0000      -0.709581       -19.3087
  51   1.0000      -0.699615       -19.0375
  52   1.0000      -0.683086       -18.5877
  53   1.0000      -0.657772       -17.8989
  54   1.0000      -0.623918       -16.9777
  55   1.0000      -0.620961       -16.8972
  56   1.0000      -0.605607       -16.4794
  57   1.0000      -0.599186       -16.3047
  58   1.0000      -0.585342       -15.9280
  59   1.0000      -0.577449       -15.7132
  60   1.0000      -0.561030       -15.2664
  61   1.0000      -0.554603       -15.0915
  62   1.0000      -0.545867       -14.8538
  63   1.0000      -0.543252       -14.7826
  64   1.0000      -0.536154       -14.5895
  65   1.0000      -0.527377       -14.3507
  66   1.0000      -0.501941       -13.6585
  67   1.0000      -0.495877       -13.4935
  68   1.0000      -0.475917       -12.9504
  69   1.0000      -0.474540       -12.9129
  70   1.0000      -0.445373       -12.1192
  71   1.0000      -0.439325       -11.9546
  72   1.0000      -0.437319       -11.9001
  73   1.0000      -0.428908       -11.6712
  74   1.0000      -0.427742       -11.6395
  75   1.0000      -0.426340       -11.6013
  76   1.0000      -0.361926        -9.8485
  77   0.0000       0.012397         0.3373
  78   0.0000       0.023193         0.6311
  79   0.0000       0.023975         0.6524
  80   0.0000       0.030398         0.8272
  81   0.0000       0.039066         1.0630

                 SPIN DOWN ORBITALS
  NO   OCC          E(Eh)            E(eV)
   0   1.0000    -261.569854     -7117.6776
   1   1.0000    -104.791289     -2851.5159
   2   1.0000    -104.787607     -2851.4157
   3   1.0000    -104.785317     -2851.3534
   4   1.0000     -32.079171      -872.9186
   5   1.0000     -27.557088      -749.8665
   6   1.0000     -27.557019      -749.8646
   7   1.0000     -27.556901      -749.8614
   8   1.0000     -20.613044      -560.9094
   9   1.0000     -11.420769      -310.7749
  10   1.0000     -11.276430      -306.8473
  11   1.0000     -11.273949      -306.7797
  12   1.0000     -11.271757      -306.7201
  13   1.0000     -11.247197      -306.0518
  14   1.0000     -11.247121      -306.0497
  15   1.0000     -11.236475      -305.7600
  16   1.0000     -11.232570      -305.6538
  17   1.0000     -10.517908      -286.2068
  18   1.0000     -10.514185      -286.1055
  19   1.0000     -10.511854      -286.0421
  20   1.0000      -7.983822      -217.2509
  21   1.0000      -7.983102      -217.2313
  22   1.0000      -7.983063      -217.2302
  23   1.0000      -7.980081      -217.1491
  24   1.0000      -7.979372      -217.1298
  25   1.0000      -7.979285      -217.1274
  26   1.0000      -7.977839      -217.0880
  27   1.0000      -7.976966      -217.0643
  28   1.0000      -7.976880      -217.0619
  29   1.0000      -4.154001      -113.0361
  30   1.0000      -2.675580       -72.8062
  31   1.0000      -2.675531       -72.8049
  32   1.0000      -2.675069       -72.7923
  33   1.0000      -1.450655       -39.4743
  34   1.0000      -1.130217       -30.7548
  35   1.0000      -1.096325       -29.8325
  36   1.0000      -1.049913       -28.5696
  37   1.0000      -1.037392       -28.2289
  38   1.0000      -1.033747       -28.1297
  39   1.0000      -1.022313       -27.8186
  40   1.0000      -1.008001       -27.4291
  41   1.0000      -0.961900       -26.1746
  42   1.0000      -0.898608       -24.4524
  43   1.0000      -0.825818       -22.4717
  44   1.0000      -0.733543       -19.9607
  45   1.0000      -0.711711       -19.3666
  46   1.0000      -0.698711       -19.0129
  47   1.0000      -0.682463       -18.5708
  48   1.0000      -0.657706       -17.8971
  49   1.0000      -0.623893       -16.9770
  50   1.0000      -0.620445       -16.8832
  51   1.0000      -0.605320       -16.4716
  52   1.0000      -0.599045       -16.3009
  53   1.0000      -0.585002       -15.9187
  54   1.0000      -0.575839       -15.6694
  55   1.0000      -0.560494       -15.2518
  56   1.0000      -0.554377       -15.0854
  57   1.0000      -0.544674       -14.8213
  58   1.0000      -0.543023       -14.7764
  59   1.0000      -0.528487       -14.3809
  60   1.0000      -0.522844       -14.2273
  61   1.0000      -0.503626       -13.7044
  62   1.0000      -0.495955       -13.4956
  63   1.0000      -0.483892       -13.1674
  64   1.0000      -0.480933       -13.0869
  65   1.0000      -0.453091       -12.3292
  66   1.0000      -0.449375       -12.2281
  67   1.0000      -0.446576       -12.1519
  68   1.0000      -0.430487       -11.7141
  69   1.0000      -0.427385       -11.6297
  70   1.0000      -0.412089       -11.2135
  71   1.0000      -0.361259        -9.8304
  72   0.0000       0.012380         0.3369
  73   0.0000       0.023169         0.6305
  74   0.0000       0.023937         0.6514
  75   0.0000       0.030297         0.8244
  76   0.0000       0.038923         1.0591

E(0)                                       ...  -3028.461416340
E(0)                                       ...  -3028.461416340
E(CORR)(strong-pairs)                      ...     -2.867871451
E(CORR)(weak-pairs)                        ...     -0.035724942
E(CORR)(corrected)                         ...     -2.903596393
E(TOT)                                     ...  -3031.365012733
E(CCSD(T))                                 ...  -3031.483221827
FINAL SINGLE POINT ENERGY     -3031.483221826538

DIPOLE MOMENT
-------------
                                X             Y             Z
Electronic contribution:    -43.73131      -5.26859       1.25620
Nuclear contribution   :     47.19613       6.65606      -1.86887
                        -----------------------------------------
Total Dipole Moment    :      3.46481       1.38747      -0.61267
                        -----------------------------------------
Magnitude (a.u.)       :      3.78224
Magnitude (Debye)      :      9.61370

Rotational constants in cm-1:     0.018948     0.010638     0.010006
Rotational constants in MHz :   568.058985   318.933270   299.969771

                             ****ORCA TERMINATED NORMALLY****
TOTAL RUN TIME: 0 days 16 hours 55 minutes 20 seconds 837 msec
