                         Program Version 4.1.2  - RELEASE  -
|  1> ! aug-cc-pVTZ aug-cc-pVTZ/C DLPNO-CCSD(T1) TightSCF NormalPNO UNO MiniPrint AutoAux
|  2> %pal nproc 10 end
|  3> %maxcore 20000
|  4> %mdci
|  5>      density none
|  6> end
|  7>
|  8> * xyz 0 6
|  9>  O     -0.30979100     -0.16538400     -0.73762400
| 10>  C     -1.19545400     -1.09006300     -0.61585000
| 11>  C     -2.95158900     -0.16245500      0.33047700
| 12>  C     -2.43628400      1.00893600     -0.14687900
| 13>  C     -2.72599400      1.50413900     -1.52803000
| 14> Fe      1.43120400      0.10227300      0.01917700
| 15> Cl      2.05420600      2.04543900     -0.77188500
| 16>  C     -1.56987200      1.91170100      0.66737200
| 17> Cl      2.56740600     -1.63550500     -0.69189500
| 18> Cl      1.20815200      0.09224000      2.21949000
| 19>  H     -3.68419000     -0.66659400     -0.29636500
| 20>  H     -2.18854700      2.75159600      1.01630500
| 21>  H     -1.13131000      1.43296300      1.54161100
| 22>  H     -0.76780500      2.33942600      0.05741100
| 23>  H     -3.08418400      2.53953200     -1.46916600
| 24>  H     -1.79763000      1.53051100     -2.11291300
| 25>  H     -3.47807000      0.90906300     -2.05027200
| 26>  C     -3.00274700     -0.52488900      1.79588200
| 27>  H     -3.83252200      0.01179500      2.27377900
| 28>  H     -3.18744700     -1.59227700      1.93866300
| 29>  H     -2.08950600     -0.26282200      2.33490200
| 30>  C     -0.97279100     -2.16490700      0.41742600
| 31>  H     -1.83704600     -2.82046700      0.53215000
| 32>  H     -0.13336000     -2.76171700      0.03201900
| 33>  H     -0.66449200     -1.75885000      1.38012900
| 34>  C     -1.83178800     -1.55673000     -1.90543500
| 35>  H     -1.07096200     -2.18134400     -2.39317300
| 36>  H     -2.72110400     -2.16762700     -1.74025800
| 37>  H     -2.05166100     -0.73055200     -2.57927400
| 38> *
| 39>
| 40>
| 41>                          ****END OF INPUT****

CARTESIAN COORDINATES (ANGSTROEM)
---------------------------------
  O     -0.309791   -0.165384   -0.737624
  C     -1.195454   -1.090063   -0.615850
  C     -2.951589   -0.162455    0.330477
  C     -2.436284    1.008936   -0.146879
  C     -2.725994    1.504139   -1.528030
  Fe     1.431204    0.102273    0.019177
  Cl     2.054206    2.045439   -0.771885
  C     -1.569872    1.911701    0.667372
  Cl     2.567406   -1.635505   -0.691895
  Cl     1.208152    0.092240    2.219490
  H     -3.684190   -0.666594   -0.296365
  H     -2.188547    2.751596    1.016305
  H     -1.131310    1.432963    1.541611
  H     -0.767805    2.339426    0.057411
  H     -3.084184    2.539532   -1.469166
  H     -1.797630    1.530511   -2.112913
  H     -3.478070    0.909063   -2.050272
  C     -3.002747   -0.524889    1.795882
  H     -3.832522    0.011795    2.273779
  H     -3.187447   -1.592277    1.938663
  H     -2.089506   -0.262822    2.334902
  C     -0.972791   -2.164907    0.417426
  H     -1.837046   -2.820467    0.532150
  H     -0.133360   -2.761717    0.032019
  H     -0.664492   -1.758850    1.380129
  C     -1.831788   -1.556730   -1.905435
  H     -1.070962   -2.181344   -2.393173
  H     -2.721104   -2.167627   -1.740258
  H     -2.051661   -0.730552   -2.579274

ORBITAL ENERGIES
----------------
                 SPIN UP ORBITALS
  NO   OCC          E(Eh)            E(eV)
   0   1.0000    -261.563454     -7117.5034
   1   1.0000    -104.785401     -2851.3557
   2   1.0000    -104.781796     -2851.2576
   3   1.0000    -104.781356     -2851.2457
   4   1.0000     -32.231280      -877.0577
   5   1.0000     -27.707476      -753.9588
   6   1.0000     -27.706788      -753.9400
   7   1.0000     -27.706612      -753.9352
   8   1.0000     -20.582765      -560.0855
   9   1.0000     -11.410810      -310.5039
  10   1.0000     -11.313134      -307.8460
  11   1.0000     -11.267740      -306.6108
  12   1.0000     -11.262603      -306.4710
  13   1.0000     -11.261008      -306.4276
  14   1.0000     -11.259210      -306.3787
  15   1.0000     -11.249245      -306.1075
  16   1.0000     -11.245126      -305.9954
  17   1.0000     -10.512061      -286.0477
  18   1.0000     -10.508435      -285.9490
  19   1.0000     -10.507955      -285.9360
  20   1.0000      -7.978928      -217.1177
  21   1.0000      -7.978106      -217.0953
  22   1.0000      -7.978070      -217.0943
  23   1.0000      -7.975301      -217.0190
  24   1.0000      -7.974758      -217.0042
  25   1.0000      -7.974530      -216.9980
  26   1.0000      -7.974460      -216.9961
  27   1.0000      -7.974069      -216.9854
  28   1.0000      -7.974004      -216.9837
  29   1.0000      -4.586423      -124.8029
  30   1.0000      -3.199281       -87.0569
  31   1.0000      -3.198159       -87.0263
  32   1.0000      -3.197854       -87.0180
  33   1.0000      -1.430773       -38.9333
  34   1.0000      -1.154326       -31.4108
  35   1.0000      -1.090996       -29.6875
  36   1.0000      -1.057238       -28.7689
  37   1.0000      -1.051628       -28.6163
  38   1.0000      -1.049212       -28.5505
  39   1.0000      -1.034273       -28.1440
  40   1.0000      -0.999481       -27.1972
  41   1.0000      -0.977751       -26.6060
  42   1.0000      -0.931949       -25.3596
  43   1.0000      -0.915833       -24.9211
  44   1.0000      -0.915570       -24.9139
  45   1.0000      -0.915200       -24.9039
  46   1.0000      -0.905834       -24.6490
  47   1.0000      -0.905241       -24.6329
  48   1.0000      -0.797755       -21.7080
  49   1.0000      -0.749748       -20.4017
  50   1.0000      -0.695434       -18.9237
  51   1.0000      -0.690760       -18.7965
  52   1.0000      -0.683882       -18.6094
  53   1.0000      -0.667582       -18.1658
  54   1.0000      -0.638929       -17.3861
  55   1.0000      -0.621707       -16.9175
  56   1.0000      -0.604069       -16.4376
  57   1.0000      -0.596552       -16.2330
  58   1.0000      -0.582936       -15.8625
  59   1.0000      -0.573850       -15.6153
  60   1.0000      -0.568061       -15.4577
  61   1.0000      -0.559943       -15.2368
  62   1.0000      -0.554073       -15.0771
  63   1.0000      -0.548733       -14.9318
  64   1.0000      -0.541853       -14.7446
  65   1.0000      -0.523771       -14.2525
  66   1.0000      -0.513149       -13.9635
  67   1.0000      -0.488528       -13.2935
  68   1.0000      -0.469444       -12.7742
  69   1.0000      -0.464750       -12.6465
  70   1.0000      -0.437252       -11.8982
  71   1.0000      -0.432854       -11.7785
  72   1.0000      -0.431348       -11.7376
  73   1.0000      -0.422549       -11.4981
  74   1.0000      -0.421265       -11.4632
  75   1.0000      -0.420535       -11.4433
  76   1.0000      -0.373767       -10.1707
  77   0.0000       0.011387         0.3098
  78   0.0000       0.021648         0.5891
  79   0.0000       0.022748         0.6190
  80   0.0000       0.030120         0.8196
  81   0.0000       0.038008         1.0343

                 SPIN DOWN ORBITALS
  NO   OCC          E(Eh)            E(eV)
   0   1.0000    -261.559897     -7117.4066
   1   1.0000    -104.783990     -2851.3173
   2   1.0000    -104.780300     -2851.2169
   3   1.0000    -104.779891     -2851.2058
   4   1.0000     -32.069227      -872.6480
   5   1.0000     -27.547183      -749.5970
   6   1.0000     -27.547115      -749.5951
   7   1.0000     -27.546833      -749.5874
   8   1.0000     -20.578454      -559.9682
   9   1.0000     -11.410733      -310.5018
  10   1.0000     -11.313029      -307.8432
  11   1.0000     -11.267628      -306.6078
  12   1.0000     -11.262521      -306.4688
  13   1.0000     -11.260992      -306.4272
  14   1.0000     -11.259221      -306.3790
  15   1.0000     -11.249253      -306.1077
  16   1.0000     -11.245164      -305.9965
  17   1.0000     -10.510548      -286.0066
  18   1.0000     -10.506835      -285.9055
  19   1.0000     -10.506394      -285.8935
  20   1.0000      -7.976432      -217.0498
  21   1.0000      -7.975838      -217.0336
  22   1.0000      -7.975775      -217.0319
  23   1.0000      -7.972735      -216.9491
  24   1.0000      -7.972376      -216.9394
  25   1.0000      -7.972068      -216.9310
  26   1.0000      -7.971978      -216.9286
  27   1.0000      -7.971586      -216.9179
  28   1.0000      -7.971500      -216.9156
  29   1.0000      -4.144136      -112.7677
  30   1.0000      -2.665784       -72.5397
  31   1.0000      -2.665775       -72.5394
  32   1.0000      -2.665071       -72.5203
  33   1.0000      -1.419872       -38.6367
  34   1.0000      -1.153634       -31.3920
  35   1.0000      -1.088327       -29.6149
  36   1.0000      -1.042493       -28.3677
  37   1.0000      -1.033968       -28.1357
  38   1.0000      -1.030248       -28.0345
  39   1.0000      -1.027659       -27.9640
  40   1.0000      -0.998659       -27.1749
  41   1.0000      -0.977627       -26.6026
  42   1.0000      -0.916501       -24.9393
  43   1.0000      -0.811037       -22.0694
  44   1.0000      -0.749888       -20.4055
  45   1.0000      -0.697892       -18.9906
  46   1.0000      -0.690769       -18.7968
  47   1.0000      -0.682830       -18.5807
  48   1.0000      -0.667079       -18.1521
  49   1.0000      -0.638820       -17.3832
  50   1.0000      -0.621254       -16.9052
  51   1.0000      -0.603473       -16.4213
  52   1.0000      -0.596543       -16.2328
  53   1.0000      -0.582729       -15.8569
  54   1.0000      -0.573284       -15.5999
  55   1.0000      -0.567842       -15.4518
  56   1.0000      -0.559830       -15.2337
  57   1.0000      -0.553701       -15.0670
  58   1.0000      -0.546564       -14.8728
  59   1.0000      -0.539773       -14.6880
  60   1.0000      -0.514017       -13.9871
  61   1.0000      -0.512613       -13.9489
  62   1.0000      -0.487800       -13.2737
  63   1.0000      -0.475415       -12.9367
  64   1.0000      -0.473933       -12.8964
  65   1.0000      -0.445534       -12.1236
  66   1.0000      -0.442678       -12.0459
  67   1.0000      -0.440472       -11.9859
  68   1.0000      -0.425391       -11.5755
  69   1.0000      -0.421103       -11.4588
  70   1.0000      -0.406534       -11.0623
  71   1.0000      -0.371915       -10.1203
  72   0.0000       0.011378         0.3096
  73   0.0000       0.021625         0.5884
  74   0.0000       0.022731         0.6185
  75   0.0000       0.030080         0.8185
  76   0.0000       0.037760         1.0275

E(0)                                       ...  -3028.435109369
E(0)                                       ...  -3028.435109369
E(CORR)(strong-pairs)                      ...     -2.873315428
E(CORR)(weak-pairs)                        ...     -0.036316298
E(CORR)(corrected)                         ...     -2.909631726
E(TOT)                                     ...  -3031.344741095
E(CCSD(T))                                 ...  -3031.464516448
FINAL SINGLE POINT ENERGY     -3031.464516448005

DIPOLE MOMENT
-------------
                                X             Y             Z
Electronic contribution:     41.73238       3.71047       2.01766
Nuclear contribution   :    -45.80707      -4.37415      -2.60213
                        -----------------------------------------
Total Dipole Moment    :     -4.07469      -0.66368      -0.58446
                        -----------------------------------------
Magnitude (a.u.)       :      4.16955
Magnitude (Debye)      :     10.59816

Rotational constants in cm-1:     0.019158     0.011247     0.010571
Rotational constants in MHz :   574.338007   337.168128   316.904082

                             ****ORCA TERMINATED NORMALLY****
TOTAL RUN TIME: 0 days 19 hours 51 minutes 3 seconds 126 msec
