                         Program Version 4.1.2  - RELEASE  -
|  1> ! aug-cc-pVTZ aug-cc-pVTZ/C DLPNO-CCSD(T1) TightSCF NormalPNO UNO MiniPrint AutoAux
|  2> %pal nproc 10 end
|  3> %maxcore 20000
|  4> %mdci
|  5>      density none
|  6> end
|  7>
|  8> * xyz 0 6
|  9>  O     -0.32045000     -0.12975300     -0.66208300
| 10>  C     -1.22996500     -1.04766000     -0.57710000
| 11>  C     -3.01874800     -0.10654600      0.15574300
| 12>  C     -2.35464700      1.04612800     -0.17279800
| 13>  C     -2.42694100      1.64133200     -1.54068800
| 14> Fe      1.43711300      0.07801300      0.03784700
| 15> Cl      2.04625600      2.03668500     -0.73842200
| 16>  C     -1.56133600      1.83329100      0.81696900
| 17> Cl      2.51570400     -1.66891500     -0.74519900
| 18> Cl      1.29021600      0.03142600      2.24400100
| 19>  H     -3.69386100     -0.50872200     -0.59625900
| 20>  H     -2.22530400      2.60359100      1.23730100
| 21>  H     -1.17875100      1.23784400      1.64570300
| 22>  H     -0.72594200      2.34877500      0.33557900
| 23>  H     -2.74461300      2.68805200     -1.45072000
| 24>  H     -1.42618500      1.65511500     -1.98855000
| 25>  H     -3.12741100      1.12428800     -2.19961500
| 26>  C     -3.32319800     -0.52961500      1.57274600
| 27>  H     -4.21058900      0.01035700      1.92779400
| 28>  H     -3.55223900     -1.59646000      1.63359900
| 29>  H     -2.50996100     -0.31520500      2.26932200
| 30>  C     -1.06411200     -2.09509400      0.49472100
| 31>  H     -1.92517100     -2.75978300      0.57286300
| 32>  H     -0.19507300     -2.69078300      0.17939900
| 33>  H     -0.82027600     -1.65918400      1.46340100
| 34>  C     -1.75697800     -1.54939000     -1.90311300
| 35>  H     -0.93971300     -2.14289400     -2.33499900
| 36>  H     -2.63232000     -2.19249600     -1.79239900
| 37>  H     -1.96537800     -0.73382400     -2.59511100
| 38> *
| 39>
| 40>
| 41>                          ****END OF INPUT****

CARTESIAN COORDINATES (ANGSTROEM)
---------------------------------
  O     -0.320450   -0.129753   -0.662083
  C     -1.229965   -1.047660   -0.577100
  C     -3.018748   -0.106546    0.155743
  C     -2.354647    1.046128   -0.172798
  C     -2.426941    1.641332   -1.540688
  Fe     1.437113    0.078013    0.037847
  Cl     2.046256    2.036685   -0.738422
  C     -1.561336    1.833291    0.816969
  Cl     2.515704   -1.668915   -0.745199
  Cl     1.290216    0.031426    2.244001
  H     -3.693861   -0.508722   -0.596259
  H     -2.225304    2.603591    1.237301
  H     -1.178751    1.237844    1.645703
  H     -0.725942    2.348775    0.335579
  H     -2.744613    2.688052   -1.450720
  H     -1.426185    1.655115   -1.988550
  H     -3.127411    1.124288   -2.199615
  C     -3.323198   -0.529615    1.572746
  H     -4.210589    0.010357    1.927794
  H     -3.552239   -1.596460    1.633599
  H     -2.509961   -0.315205    2.269322
  C     -1.064112   -2.095094    0.494721
  H     -1.925171   -2.759783    0.572863
  H     -0.195073   -2.690783    0.179399
  H     -0.820276   -1.659184    1.463401
  C     -1.756978   -1.549390   -1.903113
  H     -0.939713   -2.142894   -2.334999
  H     -2.632320   -2.192496   -1.792399
  H     -1.965378   -0.733824   -2.595111

ORBITAL ENERGIES
----------------
                 SPIN UP ORBITALS
  NO   OCC          E(Eh)            E(eV)
   0   1.0000    -261.560412     -7117.4207
   1   1.0000    -104.782956     -2851.2892
   2   1.0000    -104.780144     -2851.2127
   3   1.0000    -104.780075     -2851.2108
   4   1.0000     -32.228256      -876.9754
   5   1.0000     -27.704407      -753.8752
   6   1.0000     -27.703796      -753.8586
   7   1.0000     -27.703626      -753.8540
   8   1.0000     -20.574382      -559.8574
   9   1.0000     -11.407518      -310.4143
  10   1.0000     -11.324374      -308.1519
  11   1.0000     -11.266993      -306.5905
  12   1.0000     -11.265593      -306.5524
  13   1.0000     -11.260054      -306.4016
  14   1.0000     -11.259332      -306.3820
  15   1.0000     -11.254127      -306.2404
  16   1.0000     -11.249958      -306.1269
  17   1.0000     -10.509591      -285.9805
  18   1.0000     -10.506748      -285.9031
  19   1.0000     -10.506646      -285.9004
  20   1.0000      -7.976461      -217.0505
  21   1.0000      -7.975639      -217.0282
  22   1.0000      -7.975602      -217.0272
  23   1.0000      -7.973608      -216.9729
  24   1.0000      -7.973452      -216.9687
  25   1.0000      -7.972845      -216.9521
  26   1.0000      -7.972765      -216.9500
  27   1.0000      -7.972758      -216.9498
  28   1.0000      -7.972684      -216.9478
  29   1.0000      -4.583506      -124.7235
  30   1.0000      -3.196356       -86.9773
  31   1.0000      -3.195312       -86.9489
  32   1.0000      -3.194949       -86.9390
  33   1.0000      -1.424318       -38.7577
  34   1.0000      -1.159824       -31.5604
  35   1.0000      -1.089701       -29.6523
  36   1.0000      -1.054837       -28.7036
  37   1.0000      -1.049385       -28.5552
  38   1.0000      -1.047215       -28.4962
  39   1.0000      -1.036753       -28.2115
  40   1.0000      -0.998792       -27.1785
  41   1.0000      -0.981376       -26.7046
  42   1.0000      -0.930638       -25.3239
  43   1.0000      -0.918731       -24.9999
  44   1.0000      -0.912870       -24.8405
  45   1.0000      -0.912736       -24.8368
  46   1.0000      -0.903116       -24.5750
  47   1.0000      -0.902835       -24.5674
  48   1.0000      -0.794642       -21.6233
  49   1.0000      -0.753547       -20.5051
  50   1.0000      -0.695296       -18.9200
  51   1.0000      -0.691241       -18.8096
  52   1.0000      -0.683381       -18.5957
  53   1.0000      -0.666683       -18.1414
  54   1.0000      -0.641780       -17.4637
  55   1.0000      -0.621034       -16.8992
  56   1.0000      -0.603250       -16.4153
  57   1.0000      -0.596761       -16.2387
  58   1.0000      -0.583530       -15.8787
  59   1.0000      -0.574523       -15.6336
  60   1.0000      -0.572253       -15.5718
  61   1.0000      -0.563645       -15.3376
  62   1.0000      -0.553735       -15.0679
  63   1.0000      -0.549471       -14.9519
  64   1.0000      -0.542936       -14.7740
  65   1.0000      -0.520174       -14.1547
  66   1.0000      -0.517518       -14.0824
  67   1.0000      -0.485967       -13.2238
  68   1.0000      -0.468217       -12.7408
  69   1.0000      -0.461304       -12.5527
  70   1.0000      -0.435610       -11.8535
  71   1.0000      -0.431024       -11.7288
  72   1.0000      -0.429576       -11.6894
  73   1.0000      -0.421065       -11.4578
  74   1.0000      -0.419525       -11.4158
  75   1.0000      -0.419029       -11.4024
  76   1.0000      -0.376551       -10.2465
  77   0.0000       0.010952         0.2980
  78   0.0000       0.021348         0.5809
  79   0.0000       0.022502         0.6123
  80   0.0000       0.030191         0.8215
  81   0.0000       0.038249         1.0408

                 SPIN DOWN ORBITALS
  NO   OCC          E(Eh)            E(eV)
   0   1.0000    -261.556859     -7117.3240
   1   1.0000    -104.781545     -2851.2508
   2   1.0000    -104.778669     -2851.1725
   3   1.0000    -104.778639     -2851.1717
   4   1.0000     -32.066207      -872.5659
   5   1.0000     -27.544182      -749.5153
   6   1.0000     -27.544100      -749.5131
   7   1.0000     -27.543776      -749.5043
   8   1.0000     -20.569833      -559.7336
   9   1.0000     -11.407430      -310.4120
  10   1.0000     -11.324303      -308.1500
  11   1.0000     -11.266817      -306.5857
  12   1.0000     -11.265486      -306.5495
  13   1.0000     -11.260057      -306.4017
  14   1.0000     -11.259310      -306.3814
  15   1.0000     -11.254146      -306.2409
  16   1.0000     -11.249990      -306.1278
  17   1.0000     -10.508078      -285.9394
  18   1.0000     -10.505170      -285.8602
  19   1.0000     -10.505115      -285.8587
  20   1.0000      -7.973964      -216.9826
  21   1.0000      -7.973375      -216.9666
  22   1.0000      -7.973306      -216.9647
  23   1.0000      -7.971095      -216.9045
  24   1.0000      -7.971075      -216.9040
  25   1.0000      -7.970417      -216.8861
  26   1.0000      -7.970339      -216.8839
  27   1.0000      -7.970326      -216.8836
  28   1.0000      -7.970248      -216.8815
  29   1.0000      -4.141211      -112.6881
  30   1.0000      -2.662879       -72.4606
  31   1.0000      -2.662852       -72.4599
  32   1.0000      -2.662224       -72.4428
  33   1.0000      -1.412772       -38.4435
  34   1.0000      -1.158994       -31.5378
  35   1.0000      -1.087001       -29.5788
  36   1.0000      -1.040144       -28.3038
  37   1.0000      -1.036279       -28.1986
  38   1.0000      -1.028175       -27.9781
  39   1.0000      -1.026153       -27.9230
  40   1.0000      -0.997998       -27.1569
  41   1.0000      -0.981253       -26.7012
  42   1.0000      -0.921009       -25.0619
  43   1.0000      -0.808340       -21.9961
  44   1.0000      -0.753708       -20.5094
  45   1.0000      -0.696102       -18.9419
  46   1.0000      -0.692634       -18.8475
  47   1.0000      -0.682867       -18.5817
  48   1.0000      -0.665954       -18.1215
  49   1.0000      -0.641672       -17.4608
  50   1.0000      -0.620751       -16.8915
  51   1.0000      -0.602544       -16.3961
  52   1.0000      -0.596726       -16.2377
  53   1.0000      -0.583357       -15.8740
  54   1.0000      -0.574175       -15.6241
  55   1.0000      -0.572063       -15.5666
  56   1.0000      -0.563463       -15.3326
  57   1.0000      -0.553371       -15.0580
  58   1.0000      -0.548522       -14.9260
  59   1.0000      -0.539147       -14.6709
  60   1.0000      -0.517647       -14.0859
  61   1.0000      -0.510926       -13.9030
  62   1.0000      -0.484331       -13.1793
  63   1.0000      -0.473026       -12.8717
  64   1.0000      -0.471471       -12.8294
  65   1.0000      -0.443658       -12.0725
  66   1.0000      -0.440634       -11.9903
  67   1.0000      -0.438750       -11.9390
  68   1.0000      -0.424574       -11.5532
  69   1.0000      -0.419151       -11.4057
  70   1.0000      -0.405053       -11.0220
  71   1.0000      -0.374503       -10.1907
  72   0.0000       0.010946         0.2979
  73   0.0000       0.021322         0.5802
  74   0.0000       0.022480         0.6117
  75   0.0000       0.030198         0.8217
  76   0.0000       0.038087         1.0364

E(0)                                       ...  -3028.430057287
E(0)                                       ...  -3028.430057287
E(CORR)(strong-pairs)                      ...     -2.872775553
E(CORR)(weak-pairs)                        ...     -0.036531977
E(CORR)(corrected)                         ...     -2.909307530
E(TOT)                                     ...  -3031.339364816
E(CCSD(T))                                 ...  -3031.459126946
FINAL SINGLE POINT ENERGY     -3031.459126946075

DIPOLE MOMENT
-------------
                                X             Y             Z
Electronic contribution:     41.79377       3.18497       2.27283
Nuclear contribution   :    -46.00729      -3.66427      -2.82871
                        -----------------------------------------
Total Dipole Moment    :     -4.21351      -0.47931      -0.55588
                        -----------------------------------------
Magnitude (a.u.)       :      4.27697
Magnitude (Debye)      :     10.87119

Rotational constants in cm-1:     0.019292     0.011243     0.010546
Rotational constants in MHz :   578.374017   337.069957   316.166564

                             ****ORCA TERMINATED NORMALLY****
TOTAL RUN TIME: 0 days 20 hours 48 minutes 13 seconds 507 msec
