                         Program Version 4.1.2  - RELEASE  -
|  1> ! aug-cc-pVTZ aug-cc-pVTZ/C DLPNO-CCSD(T1) TightSCF NormalPNO UNO MiniPrint AutoAux
|  2> %pal nproc 10 end
|  3> %maxcore 20000
|  4> %mdci
|  5>      density none
|  6> end
|  7>
|  8> * xyz 0 6
|  9>  O     -0.31763300     -0.14385900     -0.70482800
| 10>  C     -1.21833300     -1.06576300     -0.59947800
| 11>  C     -2.96287900     -0.15230400      0.26345400
| 12>  C     -2.39994900      1.02420900     -0.15521100
| 13>  C     -2.61194000      1.56362500     -1.53215300
| 14> Fe      1.42918300      0.09191200      0.02521300
| 15> Cl      2.04594700      2.04843500     -0.74573700
| 16>  C     -1.56118700      1.88319000      0.73051000
| 17> Cl      2.54837600     -1.64289700     -0.72368100
| 18> Cl      1.23590200      0.05525100      2.22991400
| 19>  H     -3.68289800     -0.61317200     -0.40931500
| 20>  H     -2.20542700      2.68251100      1.12667300
| 21>  H     -1.12935100      1.35272300      1.57817100
| 22>  H     -0.75788400      2.36591400      0.16613800
| 23>  H     -2.94277300      2.60713800     -1.45773200
| 24>  H     -1.65519600      1.57869100     -2.06927800
| 25>  H     -3.35470800      1.00530900     -2.10538900
| 26>  C     -3.10974300     -0.53850700      1.71674200
| 27>  H     -3.96203600      0.00056800      2.15008100
| 28>  H     -3.31463000     -1.60580600      1.82892200
| 29>  H     -2.22963500     -0.29620100      2.31636400
| 30>  C     -1.00458500     -2.14470200      0.43345500
| 31>  H     -1.86422700     -2.80921700      0.53038300
| 32>  H     -0.15291200     -2.73190100      0.06068600
| 33>  H     -0.71697900     -1.73962600      1.40315700
| 34>  C     -1.80445100     -1.54203100     -1.91105600
| 35>  H     -1.01387600     -2.14265100     -2.38071400
| 36>  H     -2.68317000     -2.17538100     -1.77448100
| 37>  H     -2.02742700     -0.71743700     -2.58658300
| 38> *
| 39>
| 40>
| 41>                          ****END OF INPUT****

CARTESIAN COORDINATES (ANGSTROEM)
---------------------------------
  O     -0.317633   -0.143859   -0.704828
  C     -1.218333   -1.065763   -0.599478
  C     -2.962879   -0.152304    0.263454
  C     -2.399949    1.024209   -0.155211
  C     -2.611940    1.563625   -1.532153
  Fe     1.429183    0.091912    0.025213
  Cl     2.045947    2.048435   -0.745737
  C     -1.561187    1.883190    0.730510
  Cl     2.548376   -1.642897   -0.723681
  Cl     1.235902    0.055251    2.229914
  H     -3.682898   -0.613172   -0.409315
  H     -2.205427    2.682511    1.126673
  H     -1.129351    1.352723    1.578171
  H     -0.757884    2.365914    0.166138
  H     -2.942773    2.607138   -1.457732
  H     -1.655196    1.578691   -2.069278
  H     -3.354708    1.005309   -2.105389
  C     -3.109743   -0.538507    1.716742
  H     -3.962036    0.000568    2.150081
  H     -3.314630   -1.605806    1.828922
  H     -2.229635   -0.296201    2.316364
  C     -1.004585   -2.144702    0.433455
  H     -1.864227   -2.809217    0.530383
  H     -0.152912   -2.731901    0.060686
  H     -0.716979   -1.739626    1.403157
  C     -1.804451   -1.542031   -1.911056
  H     -1.013876   -2.142651   -2.380714
  H     -2.683170   -2.175381   -1.774481
  H     -2.027427   -0.717437   -2.586583

ORBITAL ENERGIES
----------------
                 SPIN UP ORBITALS
  NO   OCC          E(Eh)            E(eV)
   0   1.0000    -261.561010     -7117.4369
   1   1.0000    -104.783662     -2851.3084
   2   1.0000    -104.780208     -2851.2144
   3   1.0000    -104.780102     -2851.2115
   4   1.0000     -32.228852      -876.9917
   5   1.0000     -27.705002      -753.8914
   6   1.0000     -27.704392      -753.8748
   7   1.0000     -27.704213      -753.8700
   8   1.0000     -20.576120      -559.9047
   9   1.0000     -11.407336      -310.4094
  10   1.0000     -11.322747      -308.1076
  11   1.0000     -11.266224      -306.5695
  12   1.0000     -11.265607      -306.5527
  13   1.0000     -11.261655      -306.4452
  14   1.0000     -11.258812      -306.3679
  15   1.0000     -11.252007      -306.1827
  16   1.0000     -11.248655      -306.0915
  17   1.0000     -10.510309      -286.0000
  18   1.0000     -10.506830      -285.9054
  19   1.0000     -10.506687      -285.9015
  20   1.0000      -7.977179      -217.0701
  21   1.0000      -7.976351      -217.0475
  22   1.0000      -7.976316      -217.0466
  23   1.0000      -7.973692      -216.9752
  24   1.0000      -7.973492      -216.9698
  25   1.0000      -7.972926      -216.9543
  26   1.0000      -7.972852      -216.9523
  27   1.0000      -7.972799      -216.9509
  28   1.0000      -7.972729      -216.9490
  29   1.0000      -4.584055      -124.7385
  30   1.0000      -3.196871       -86.9913
  31   1.0000      -3.195855       -86.9636
  32   1.0000      -3.195508       -86.9542
  33   1.0000      -1.424508       -38.7628
  34   1.0000      -1.159229       -31.5442
  35   1.0000      -1.089397       -29.6440
  36   1.0000      -1.055358       -28.7177
  37   1.0000      -1.049817       -28.5670
  38   1.0000      -1.047494       -28.5038
  39   1.0000      -1.036590       -28.2071
  40   1.0000      -0.997723       -27.1494
  41   1.0000      -0.981044       -26.6956
  42   1.0000      -0.930419       -25.3180
  43   1.0000      -0.918178       -24.9849
  44   1.0000      -0.913335       -24.8531
  45   1.0000      -0.913217       -24.8499
  46   1.0000      -0.903685       -24.5905
  47   1.0000      -0.903207       -24.5775
  48   1.0000      -0.794925       -21.6310
  49   1.0000      -0.753129       -20.4937
  50   1.0000      -0.694260       -18.8918
  51   1.0000      -0.690956       -18.8019
  52   1.0000      -0.682857       -18.5815
  53   1.0000      -0.666533       -18.1373
  54   1.0000      -0.641748       -17.4629
  55   1.0000      -0.621699       -16.9173
  56   1.0000      -0.603548       -16.4234
  57   1.0000      -0.596093       -16.2205
  58   1.0000      -0.583438       -15.8762
  59   1.0000      -0.574013       -15.6197
  60   1.0000      -0.570648       -15.5281
  61   1.0000      -0.561590       -15.2816
  62   1.0000      -0.554733       -15.0951
  63   1.0000      -0.549158       -14.9433
  64   1.0000      -0.542891       -14.7728
  65   1.0000      -0.521273       -14.1846
  66   1.0000      -0.516716       -14.0606
  67   1.0000      -0.485993       -13.2245
  68   1.0000      -0.468147       -12.7389
  69   1.0000      -0.462254       -12.5786
  70   1.0000      -0.435576       -11.8526
  71   1.0000      -0.431361       -11.7379
  72   1.0000      -0.429908       -11.6984
  73   1.0000      -0.421175       -11.4608
  74   1.0000      -0.419800       -11.4233
  75   1.0000      -0.419176       -11.4064
  76   1.0000      -0.376574       -10.2471
  77   0.0000       0.010968         0.2985
  78   0.0000       0.021283         0.5791
  79   0.0000       0.022461         0.6112
  80   0.0000       0.030090         0.8188
  81   0.0000       0.037716         1.0263

                 SPIN DOWN ORBITALS
  NO   OCC          E(Eh)            E(eV)
   0   1.0000    -261.557456     -7117.3402
   1   1.0000    -104.782261     -2851.2703
   2   1.0000    -104.778726     -2851.1741
   3   1.0000    -104.778657     -2851.1722
   4   1.0000     -32.066796      -872.5819
   5   1.0000     -27.544769      -749.5313
   6   1.0000     -27.544689      -749.5291
   7   1.0000     -27.544372      -749.5205
   8   1.0000     -20.571624      -559.7823
   9   1.0000     -11.407265      -310.4075
  10   1.0000     -11.322649      -308.1049
  11   1.0000     -11.266097      -306.5661
  12   1.0000     -11.265496      -306.5497
  13   1.0000     -11.261664      -306.4455
  14   1.0000     -11.258793      -306.3673
  15   1.0000     -11.252020      -306.1830
  16   1.0000     -11.248692      -306.0925
  17   1.0000     -10.508805      -285.9591
  18   1.0000     -10.505245      -285.8622
  19   1.0000     -10.505146      -285.8596
  20   1.0000      -7.974685      -217.0022
  21   1.0000      -7.974109      -216.9865
  22   1.0000      -7.974041      -216.9847
  23   1.0000      -7.971149      -216.9060
  24   1.0000      -7.971128      -216.9054
  25   1.0000      -7.970485      -216.8879
  26   1.0000      -7.970396      -216.8855
  27   1.0000      -7.970360      -216.8845
  28   1.0000      -7.970272      -216.8821
  29   1.0000      -4.141753      -112.7028
  30   1.0000      -2.663416       -72.4752
  31   1.0000      -2.663413       -72.4751
  32   1.0000      -2.662698       -72.4557
  33   1.0000      -1.413109       -38.4527
  34   1.0000      -1.158442       -31.5228
  35   1.0000      -1.086702       -29.5707
  36   1.0000      -1.040733       -28.3198
  37   1.0000      -1.036158       -28.1953
  38   1.0000      -1.028647       -27.9909
  39   1.0000      -1.026242       -27.9255
  40   1.0000      -0.996930       -27.1278
  41   1.0000      -0.980898       -26.6916
  42   1.0000      -0.920045       -25.0357
  43   1.0000      -0.808279       -21.9944
  44   1.0000      -0.753318       -20.4988
  45   1.0000      -0.695849       -18.9350
  46   1.0000      -0.691443       -18.8151
  47   1.0000      -0.682429       -18.5698
  48   1.0000      -0.665810       -18.1176
  49   1.0000      -0.641623       -17.4595
  50   1.0000      -0.621320       -16.9070
  51   1.0000      -0.602862       -16.4047
  52   1.0000      -0.596096       -16.2206
  53   1.0000      -0.583263       -15.8714
  54   1.0000      -0.573546       -15.6070
  55   1.0000      -0.570478       -15.5235
  56   1.0000      -0.561493       -15.2790
  57   1.0000      -0.554303       -15.0833
  58   1.0000      -0.547977       -14.9112
  59   1.0000      -0.539419       -14.6783
  60   1.0000      -0.516689       -14.0598
  61   1.0000      -0.511547       -13.9199
  62   1.0000      -0.484738       -13.1904
  63   1.0000      -0.473471       -12.8838
  64   1.0000      -0.471978       -12.8432
  65   1.0000      -0.443957       -12.0807
  66   1.0000      -0.441031       -12.0011
  67   1.0000      -0.439033       -11.9467
  68   1.0000      -0.424500       -11.5512
  69   1.0000      -0.419511       -11.4155
  70   1.0000      -0.405262       -11.0277
  71   1.0000      -0.374457       -10.1895
  72   0.0000       0.010962         0.2983
  73   0.0000       0.021258         0.5785
  74   0.0000       0.022442         0.6107
  75   0.0000       0.030072         0.8183
  76   0.0000       0.037456         1.0192

E(0)                                       ...  -3028.431464138
E(0)                                       ...  -3028.431464138
E(CORR)(strong-pairs)                      ...     -2.873324839
E(CORR)(weak-pairs)                        ...     -0.036425828
E(CORR)(corrected)                         ...     -2.909750667
E(TOT)                                     ...  -3031.341214805
E(CCSD(T))                                 ...  -3031.461105350
FINAL SINGLE POINT ENERGY     -3031.461105350153

DIPOLE MOMENT
-------------
                                X             Y             Z
Electronic contribution:     41.57590       3.57072       2.14648
Nuclear contribution   :    -45.77464      -4.09664      -2.71571
                        -----------------------------------------
Total Dipole Moment    :     -4.19874      -0.52592      -0.56923
                        -----------------------------------------
Magnitude (a.u.)       :      4.26966
Magnitude (Debye)      :     10.85263

Rotational constants in cm-1:     0.019199     0.011284     0.010594
Rotational constants in MHz :   575.576012   338.299630   317.597774

                             ****ORCA TERMINATED NORMALLY****
TOTAL RUN TIME: 0 days 20 hours 8 minutes 1 seconds 333 msec
