                         Program Version 4.1.2  - RELEASE  -
|  1> ! aug-cc-pVTZ aug-cc-pVTZ/C DLPNO-CCSD(T1) TightSCF NormalPNO UNO MiniPrint AutoAux
|  2> %pal nproc 10 end
|  3> %maxcore 20000
|  4> %mdci
|  5>      density none
|  6> end
|  7>
|  8> * xyz 0 6
|  9>  O      0.20329700      0.38258700     -0.86648800
| 10>  C      0.97435500      1.34971000     -0.66742800
| 11>  C      3.10224900      0.08295300      0.52835400
| 12>  C      2.63288000     -0.94977900     -0.19985100
| 13>  C      3.06956200     -1.17003500     -1.62302300
| 14> Fe     -1.47812000     -0.16149000      0.01850900
| 15> Cl     -2.07276800     -1.98084000     -1.01139400
| 16>  C      1.69816400     -1.99984500      0.32569000
| 17> Cl     -2.71232400      1.60319500     -0.37178300
| 18> Cl     -1.07890200     -0.42366700      2.16022000
| 19>  H      3.82894800      0.74059900      0.04991100
| 20>  H      2.21284700     -2.96975000      0.35783600
| 21>  H      1.31400500     -1.78791600      1.32304000
| 22>  H      0.84540500     -2.13105800     -0.35197600
| 23>  H      3.56006700     -2.14760800     -1.71801900
| 24>  H      2.20335200     -1.19429000     -2.29756900
| 25>  H      3.77254300     -0.40684300     -1.96924500
| 26>  C      2.90421000      0.30864600      2.00332900
| 27>  H      3.72270100     -0.15561700      2.57044000
| 28>  H      2.91991700      1.37491100      2.25160300
| 29>  H      1.96705500     -0.11058200      2.37793300
| 30>  C      0.82118300      2.22562300      0.53534400
| 31>  H      1.70751500      2.83536800      0.71405400
| 32>  H     -0.02645200      2.89372200      0.32064000
| 33>  H      0.56165500      1.64978200      1.42410300
| 34>  C      1.79627700      1.84787100     -1.81628400
| 35>  H      1.21827900      2.66541300     -2.27230500
| 36>  H      2.75177800      2.26056800     -1.48932000
| 37>  H      1.93976900      1.07278400     -2.56699000
| 38> *
| 39>
| 40>
| 41>                          ****END OF INPUT****

CARTESIAN COORDINATES (ANGSTROEM)
---------------------------------
  O      0.203297    0.382587   -0.866488
  C      0.974355    1.349710   -0.667428
  C      3.102249    0.082953    0.528354
  C      2.632880   -0.949779   -0.199851
  C      3.069562   -1.170035   -1.623023
  Fe    -1.478120   -0.161490    0.018509
  Cl    -2.072768   -1.980840   -1.011394
  C      1.698164   -1.999845    0.325690
  Cl    -2.712324    1.603195   -0.371783
  Cl    -1.078902   -0.423667    2.160220
  H      3.828948    0.740599    0.049911
  H      2.212847   -2.969750    0.357836
  H      1.314005   -1.787916    1.323040
  H      0.845405   -2.131058   -0.351976
  H      3.560067   -2.147608   -1.718019
  H      2.203352   -1.194290   -2.297569
  H      3.772543   -0.406843   -1.969245
  C      2.904210    0.308646    2.003329
  H      3.722701   -0.155617    2.570440
  H      2.919917    1.374911    2.251603
  H      1.967055   -0.110582    2.377933
  C      0.821183    2.225623    0.535344
  H      1.707515    2.835368    0.714054
  H     -0.026452    2.893722    0.320640
  H      0.561655    1.649782    1.424103
  C      1.796277    1.847871   -1.816284
  H      1.218279    2.665413   -2.272305
  H      2.751778    2.260568   -1.489320
  H      1.939769    1.072784   -2.566990

ORBITAL ENERGIES
----------------
                 SPIN UP ORBITALS
  NO   OCC          E(Eh)            E(eV)
   0   1.0000    -261.577358     -7117.8818
   1   1.0000    -104.794855     -2851.6130
   2   1.0000    -104.791751     -2851.5285
   3   1.0000    -104.789804     -2851.4755
   4   1.0000     -32.245039      -877.4321
   5   1.0000     -27.721549      -754.3417
   6   1.0000     -27.720362      -754.3094
   7   1.0000     -27.720169      -754.3042
   8   1.0000     -20.623462      -561.1929
   9   1.0000     -11.422114      -310.8115
  10   1.0000     -11.278636      -306.9073
  11   1.0000     -11.272906      -306.7514
  12   1.0000     -11.263212      -306.4876
  13   1.0000     -11.241864      -305.9067
  14   1.0000     -11.240912      -305.8808
  15   1.0000     -11.235911      -305.7447
  16   1.0000     -11.227578      -305.5179
  17   1.0000     -10.521581      -286.3068
  18   1.0000     -10.518449      -286.2215
  19   1.0000     -10.516451      -286.1672
  20   1.0000      -7.988407      -217.3756
  21   1.0000      -7.987664      -217.3554
  22   1.0000      -7.987609      -217.3539
  23   1.0000      -7.985334      -217.2920
  24   1.0000      -7.984543      -217.2705
  25   1.0000      -7.984488      -217.2690
  26   1.0000      -7.983235      -217.2349
  27   1.0000      -7.982581      -217.2171
  28   1.0000      -7.982536      -217.2158
  29   1.0000      -4.599846      -125.1682
  30   1.0000      -3.213000       -87.4302
  31   1.0000      -3.211214       -87.3816
  32   1.0000      -3.211082       -87.3780
  33   1.0000      -1.467557       -39.9343
  34   1.0000      -1.123267       -30.5657
  35   1.0000      -1.102246       -29.9936
  36   1.0000      -1.068158       -29.0661
  37   1.0000      -1.062365       -28.9084
  38   1.0000      -1.059544       -28.8317
  39   1.0000      -1.021289       -27.7907
  40   1.0000      -1.009377       -27.4665
  41   1.0000      -0.956330       -26.0231
  42   1.0000      -0.943873       -25.6841
  43   1.0000      -0.928717       -25.2717
  44   1.0000      -0.928592       -25.2683
  45   1.0000      -0.917789       -24.9743
  46   1.0000      -0.917158       -24.9571
  47   1.0000      -0.894154       -24.3312
  48   1.0000      -0.815614       -22.1940
  49   1.0000      -0.726876       -19.7793
  50   1.0000      -0.714282       -19.4366
  51   1.0000      -0.704276       -19.1643
  52   1.0000      -0.685059       -18.6414
  53   1.0000      -0.652831       -17.7644
  54   1.0000      -0.621612       -16.9149
  55   1.0000      -0.619101       -16.8466
  56   1.0000      -0.604215       -16.4415
  57   1.0000      -0.599761       -16.3203
  58   1.0000      -0.586244       -15.9525
  59   1.0000      -0.579577       -15.7711
  60   1.0000      -0.560946       -15.2641
  61   1.0000      -0.549711       -14.9584
  62   1.0000      -0.547383       -14.8951
  63   1.0000      -0.538416       -14.6510
  64   1.0000      -0.537084       -14.6148
  65   1.0000      -0.524499       -14.2723
  66   1.0000      -0.505017       -13.7422
  67   1.0000      -0.490783       -13.3549
  68   1.0000      -0.477713       -12.9992
  69   1.0000      -0.477628       -12.9969
  70   1.0000      -0.447923       -12.1886
  71   1.0000      -0.441628       -12.0173
  72   1.0000      -0.439799       -11.9675
  73   1.0000      -0.431190       -11.7333
  74   1.0000      -0.430218       -11.7068
  75   1.0000      -0.428962       -11.6726
  76   1.0000      -0.357676        -9.7329
  77   0.0000       0.012720         0.3461
  78   0.0000       0.023786         0.6473
  79   0.0000       0.024525         0.6673
  80   0.0000       0.030755         0.8369
  81   0.0000       0.039422         1.0727

                 SPIN DOWN ORBITALS
  NO   OCC          E(Eh)            E(eV)
   0   1.0000    -261.573775     -7117.7843
   1   1.0000    -104.793361     -2851.5723
   2   1.0000    -104.790191     -2851.4861
   3   1.0000    -104.788233     -2851.4328
   4   1.0000     -32.083059      -873.0244
   5   1.0000     -27.560998      -749.9729
   6   1.0000     -27.560889      -749.9699
   7   1.0000     -27.560801      -749.9675
   8   1.0000     -20.620048      -561.1000
   9   1.0000     -11.422042      -310.8096
  10   1.0000     -11.278529      -306.9044
  11   1.0000     -11.272899      -306.7512
  12   1.0000     -11.263252      -306.4887
  13   1.0000     -11.241801      -305.9050
  14   1.0000     -11.240907      -305.8806
  15   1.0000     -11.235917      -305.7448
  16   1.0000     -11.227587      -305.5182
  17   1.0000     -10.519986      -286.2634
  18   1.0000     -10.516783      -286.1762
  19   1.0000     -10.514782      -286.1218
  20   1.0000      -7.985911      -217.3077
  21   1.0000      -7.985156      -217.2872
  22   1.0000      -7.985118      -217.2861
  23   1.0000      -7.982656      -217.2191
  24   1.0000      -7.981978      -217.2007
  25   1.0000      -7.981885      -217.1981
  26   1.0000      -7.980777      -217.1680
  27   1.0000      -7.979865      -217.1432
  28   1.0000      -7.979784      -217.1410
  29   1.0000      -4.157794      -113.1393
  30   1.0000      -2.679334       -72.9084
  31   1.0000      -2.679300       -72.9075
  32   1.0000      -2.678862       -72.8956
  33   1.0000      -1.459225       -39.7075
  34   1.0000      -1.122967       -30.5575
  35   1.0000      -1.100002       -29.9326
  36   1.0000      -1.052451       -28.6387
  37   1.0000      -1.039863       -28.2961
  38   1.0000      -1.036699       -28.2100
  39   1.0000      -1.020433       -27.7674
  40   1.0000      -1.009029       -27.4571
  41   1.0000      -0.956196       -26.0194
  42   1.0000      -0.894257       -24.3340
  43   1.0000      -0.828121       -22.5343
  44   1.0000      -0.726947       -19.7812
  45   1.0000      -0.716064       -19.4851
  46   1.0000      -0.703481       -19.1427
  47   1.0000      -0.684466       -18.6253
  48   1.0000      -0.652776       -17.7629
  49   1.0000      -0.621065       -16.9000
  50   1.0000      -0.619017       -16.8443
  51   1.0000      -0.604020       -16.4362
  52   1.0000      -0.599678       -16.3181
  53   1.0000      -0.585980       -15.9453
  54   1.0000      -0.578230       -15.7345
  55   1.0000      -0.560059       -15.2400
  56   1.0000      -0.549447       -14.9512
  57   1.0000      -0.545413       -14.8414
  58   1.0000      -0.538381       -14.6501
  59   1.0000      -0.526859       -14.3366
  60   1.0000      -0.523413       -14.2428
  61   1.0000      -0.506823       -13.7914
  62   1.0000      -0.490568       -13.3490
  63   1.0000      -0.486334       -13.2338
  64   1.0000      -0.483922       -13.1682
  65   1.0000      -0.454988       -12.3808
  66   1.0000      -0.451926       -12.2975
  67   1.0000      -0.448891       -12.2150
  68   1.0000      -0.432450       -11.7676
  69   1.0000      -0.430371       -11.7110
  70   1.0000      -0.414303       -11.2738
  71   1.0000      -0.357204        -9.7200
  72   0.0000       0.012703         0.3457
  73   0.0000       0.023763         0.6466
  74   0.0000       0.024486         0.6663
  75   0.0000       0.030694         0.8352
  76   0.0000       0.039331         1.0702

E(0)                                       ...  -3028.468515446
E(0)                                       ...  -3028.468515446
E(CORR)(strong-pairs)                      ...     -2.866684444
E(CORR)(weak-pairs)                        ...     -0.035345861
E(CORR)(corrected)                         ...     -2.902030305
E(TOT)                                     ...  -3031.370545751
E(CCSD(T))                                 ...  -3031.488359407
FINAL SINGLE POINT ENERGY     -3031.488359406753

DIPOLE MOMENT
-------------
                                X             Y             Z
Electronic contribution:    -43.55840      -4.63247       1.75094
Nuclear contribution   :     46.77671       6.12784      -2.38187
                        -----------------------------------------
Total Dipole Moment    :      3.21831       1.49536      -0.63093
                        -----------------------------------------
Magnitude (a.u.)       :      3.60440
Magnitude (Debye)      :      9.16166

Rotational constants in cm-1:     0.018778     0.010720     0.010097
Rotational constants in MHz :   562.938245   321.374912   302.699484

                             ****ORCA TERMINATED NORMALLY****
TOTAL RUN TIME: 0 days 17 hours 14 minutes 13 seconds 302 msec
