                         Program Version 4.1.2  - RELEASE  -
|  1> ! aug-cc-pVTZ aug-cc-pVTZ/C DLPNO-CCSD(T1) TightSCF NormalPNO UNO MiniPrint AutoAux
|  2> %pal nproc 10 end
|  3> %maxcore 20000
|  4> %mdci
|  5>      density none
|  6> end
|  7>
|  8> * xyz 0 6
|  9>  O     -0.32972600     -0.19260600     -0.68847300
| 10>  C     -1.31138100     -1.12419000     -0.53059500
| 11>  C     -2.70294200     -0.30130600      0.26087100
| 12>  C     -2.33032100      1.01551900     -0.14249200
| 13>  C     -2.67066900      1.55031600     -1.48041600
| 14> Fe      1.37377900      0.09551100     -0.01415700
| 15> Cl      1.82435700      2.13826900     -0.73736100
| 16>  C     -1.57649100      1.91859300      0.74609100
| 17> Cl      2.69181400     -1.51239800     -0.72920800
| 18> Cl      1.15245900      0.06152700      2.21608000
| 19>  H     -3.55547400     -0.68505900     -0.30097300
| 20>  H     -2.33856100      2.50500600      1.29026500
| 21>  H     -0.97743000      1.39503700      1.49152200
| 22>  H     -0.95123600      2.61744900      0.18453400
| 23>  H     -3.00408400      2.59105200     -1.38764100
| 24>  H     -1.73290500      1.58207500     -2.05458400
| 25>  H     -3.41681000      0.96337100     -2.01588800
| 26>  C     -2.80133500     -0.59080100      1.75468500
| 27>  H     -3.58614500      0.02534300      2.20831800
| 28>  H     -3.06885500     -1.63692900      1.91669100
| 29>  H     -1.86556900     -0.39700800      2.28289000
| 30>  C     -0.92111700     -2.29164100      0.36430800
| 31>  H     -1.73586700     -3.01094400      0.48489700
| 32>  H     -0.08490700     -2.79383600     -0.13788200
| 33>  H     -0.56557900     -1.96225500      1.34055400
| 34>  C     -1.82067600     -1.60984300     -1.88541000
| 35>  H     -0.98751200     -2.13126500     -2.36899900
| 36>  H     -2.65908100     -2.30540500     -1.78269000
| 37>  H     -2.10754600     -0.78472900     -2.53909400
| 38> *
| 39>
| 40>
| 41>                          ****END OF INPUT****

CARTESIAN COORDINATES (ANGSTROEM)
---------------------------------
  O     -0.329726   -0.192606   -0.688473
  C     -1.311381   -1.124190   -0.530595
  C     -2.702942   -0.301306    0.260871
  C     -2.330321    1.015519   -0.142492
  C     -2.670669    1.550316   -1.480416
  Fe     1.373779    0.095511   -0.014157
  Cl     1.824357    2.138269   -0.737361
  C     -1.576491    1.918593    0.746091
  Cl     2.691814   -1.512398   -0.729208
  Cl     1.152459    0.061527    2.216080
  H     -3.555474   -0.685059   -0.300973
  H     -2.338561    2.505006    1.290265
  H     -0.977430    1.395037    1.491522
  H     -0.951236    2.617449    0.184534
  H     -3.004084    2.591052   -1.387641
  H     -1.732905    1.582075   -2.054584
  H     -3.416810    0.963371   -2.015888
  C     -2.801335   -0.590801    1.754685
  H     -3.586145    0.025343    2.208318
  H     -3.068855   -1.636929    1.916691
  H     -1.865569   -0.397008    2.282890
  C     -0.921117   -2.291641    0.364308
  H     -1.735867   -3.010944    0.484897
  H     -0.084907   -2.793836   -0.137882
  H     -0.565579   -1.962255    1.340554
  C     -1.820676   -1.609843   -1.885410
  H     -0.987512   -2.131265   -2.368999
  H     -2.659081   -2.305405   -1.782690
  H     -2.107546   -0.784729   -2.539094

ORBITAL ENERGIES
----------------
                 SPIN UP ORBITALS
  NO   OCC          E(Eh)            E(eV)
   0   1.0000    -261.544988     -7117.0009
   1   1.0000    -104.774377     -2851.0557
   2   1.0000    -104.771484     -2850.9770
   3   1.0000    -104.768732     -2850.9021
   4   1.0000     -32.212895      -876.5574
   5   1.0000     -27.688800      -753.4505
   6   1.0000     -27.688616      -753.4455
   7   1.0000     -27.688356      -753.4385
   8   1.0000     -20.540954      -558.9478
   9   1.0000     -11.396289      -310.1088
  10   1.0000     -11.360137      -309.1250
  11   1.0000     -11.290448      -307.2287
  12   1.0000     -11.287050      -307.1362
  13   1.0000     -11.274390      -306.7918
  14   1.0000     -11.257672      -306.3368
  15   1.0000     -11.245221      -305.9980
  16   1.0000     -11.236019      -305.7476
  17   1.0000     -10.500933      -285.7449
  18   1.0000     -10.498011      -285.6654
  19   1.0000     -10.495288      -285.5913
  20   1.0000      -7.967841      -216.8160
  21   1.0000      -7.966933      -216.7913
  22   1.0000      -7.966892      -216.7901
  23   1.0000      -7.964840      -216.7343
  24   1.0000      -7.964103      -216.7142
  25   1.0000      -7.964011      -216.7117
  26   1.0000      -7.962096      -216.6596
  27   1.0000      -7.961397      -216.6406
  28   1.0000      -7.961318      -216.6385
  29   1.0000      -4.568344      -124.3109
  30   1.0000      -3.180817       -86.5544
  31   1.0000      -3.180490       -86.5455
  32   1.0000      -3.180021       -86.5328
  33   1.0000      -1.371122       -37.3101
  34   1.0000      -1.191329       -32.4177
  35   1.0000      -1.086594       -29.5677
  36   1.0000      -1.044326       -28.4176
  37   1.0000      -1.043683       -28.4001
  38   1.0000      -1.038473       -28.2583
  39   1.0000      -1.035647       -28.1814
  40   1.0000      -1.014172       -27.5970
  41   1.0000      -0.971073       -26.4242
  42   1.0000      -0.934691       -25.4342
  43   1.0000      -0.908530       -24.7224
  44   1.0000      -0.897955       -24.4346
  45   1.0000      -0.897802       -24.4304
  46   1.0000      -0.889954       -24.2169
  47   1.0000      -0.889284       -24.1987
  48   1.0000      -0.791193       -21.5295
  49   1.0000      -0.764828       -20.8120
  50   1.0000      -0.708098       -19.2683
  51   1.0000      -0.692110       -18.8333
  52   1.0000      -0.675689       -18.3864
  53   1.0000      -0.646168       -17.5831
  54   1.0000      -0.640765       -17.4361
  55   1.0000      -0.627802       -17.0834
  56   1.0000      -0.603313       -16.4170
  57   1.0000      -0.596005       -16.2181
  58   1.0000      -0.595081       -16.1930
  59   1.0000      -0.583128       -15.8677
  60   1.0000      -0.577664       -15.7190
  61   1.0000      -0.558000       -15.1839
  62   1.0000      -0.556803       -15.1514
  63   1.0000      -0.541832       -14.7440
  64   1.0000      -0.531171       -14.4539
  65   1.0000      -0.528017       -14.3681
  66   1.0000      -0.506729       -13.7888
  67   1.0000      -0.468989       -12.7619
  68   1.0000      -0.459437       -12.5019
  69   1.0000      -0.447304       -12.1717
  70   1.0000      -0.425274       -11.5723
  71   1.0000      -0.423186       -11.5155
  72   1.0000      -0.420603       -11.4452
  73   1.0000      -0.412090       -11.2135
  74   1.0000      -0.411218       -11.1898
  75   1.0000      -0.409134       -11.1331
  76   1.0000      -0.403987       -10.9930
  77   0.0000       0.005336         0.1452
  78   0.0000       0.011785         0.3207
  79   0.0000       0.019455         0.5294
  80   0.0000       0.019936         0.5425
  81   0.0000       0.030274         0.8238

                 SPIN DOWN ORBITALS
  NO   OCC          E(Eh)            E(eV)
   0   1.0000    -261.541447     -7116.9046
   1   1.0000    -104.773091     -2851.0207
   2   1.0000    -104.770168     -2850.9412
   3   1.0000    -104.767311     -2850.8635
   4   1.0000     -32.050841      -872.1477
   5   1.0000     -27.528959      -749.1011
   6   1.0000     -27.528777      -749.0961
   7   1.0000     -27.528197      -749.0803
   8   1.0000     -20.534990      -558.7855
   9   1.0000     -11.396298      -310.1090
  10   1.0000     -11.360021      -309.1219
  11   1.0000     -11.290442      -307.2286
  12   1.0000     -11.286859      -307.1310
  13   1.0000     -11.274417      -306.7925
  14   1.0000     -11.257689      -306.3373
  15   1.0000     -11.245114      -305.9951
  16   1.0000     -11.235981      -305.7466
  17   1.0000     -10.499543      -285.7071
  18   1.0000     -10.496599      -285.6270
  19   1.0000     -10.493767      -285.5499
  20   1.0000      -7.965370      -216.7487
  21   1.0000      -7.964986      -216.7383
  22   1.0000      -7.964904      -216.7361
  23   1.0000      -7.962564      -216.6724
  24   1.0000      -7.961949      -216.6556
  25   1.0000      -7.961857      -216.6532
  26   1.0000      -7.959744      -216.5956
  27   1.0000      -7.959006      -216.5756
  28   1.0000      -7.958935      -216.5736
  29   1.0000      -4.126107      -112.2771
  30   1.0000      -2.647997       -72.0557
  31   1.0000      -2.647882       -72.0525
  32   1.0000      -2.647057       -72.0301
  33   1.0000      -1.355655       -36.8892
  34   1.0000      -1.190256       -32.3885
  35   1.0000      -1.084017       -29.4976
  36   1.0000      -1.042307       -28.3626
  37   1.0000      -1.030466       -28.0404
  38   1.0000      -1.019416       -27.7397
  39   1.0000      -1.015948       -27.6454
  40   1.0000      -1.013302       -27.5734
  41   1.0000      -0.970233       -26.4014
  42   1.0000      -0.933365       -25.3982
  43   1.0000      -0.796873       -21.6840
  44   1.0000      -0.771220       -20.9860
  45   1.0000      -0.708565       -19.2810
  46   1.0000      -0.691254       -18.8100
  47   1.0000      -0.676433       -18.4067
  48   1.0000      -0.648391       -17.6436
  49   1.0000      -0.639817       -17.4103
  50   1.0000      -0.626607       -17.0508
  51   1.0000      -0.603335       -16.4176
  52   1.0000      -0.595802       -16.2126
  53   1.0000      -0.594255       -16.1705
  54   1.0000      -0.583267       -15.8715
  55   1.0000      -0.576382       -15.6842
  56   1.0000      -0.557278       -15.1643
  57   1.0000      -0.556266       -15.1368
  58   1.0000      -0.541098       -14.7240
  59   1.0000      -0.527415       -14.3517
  60   1.0000      -0.525007       -14.2862
  61   1.0000      -0.499584       -13.5944
  62   1.0000      -0.468300       -12.7431
  63   1.0000      -0.462648       -12.5893
  64   1.0000      -0.454652       -12.3717
  65   1.0000      -0.434275       -11.8172
  66   1.0000      -0.431384       -11.7386
  67   1.0000      -0.429673       -11.6920
  68   1.0000      -0.425806       -11.5868
  69   1.0000      -0.409213       -11.1353
  70   1.0000      -0.397638       -10.8203
  71   1.0000      -0.394079       -10.7234
  72   0.0000       0.005323         0.1449
  73   0.0000       0.011571         0.3149
  74   0.0000       0.019457         0.5295
  75   0.0000       0.019922         0.5421
  76   0.0000       0.030302         0.8246

E(0)                                       ...  -3028.426743714
E(0)                                       ...  -3028.426743714
E(CORR)(strong-pairs)                      ...     -2.870769577
E(CORR)(weak-pairs)                        ...     -0.035810243
E(CORR)(corrected)                         ...     -2.906579820
E(TOT)                                     ...  -3031.333323533
E(CCSD(T))                                 ...  -3031.451631733
FINAL SINGLE POINT ENERGY     -3031.451631732936

DIPOLE MOMENT
-------------
                                X             Y             Z
Electronic contribution:     39.30248       5.45863       1.89795
Nuclear contribution   :    -44.33076      -5.18378      -2.32892
                        -----------------------------------------
Total Dipole Moment    :     -5.02828       0.27484      -0.43096
                        -----------------------------------------
Magnitude (a.u.)       :      5.05419
Magnitude (Debye)      :     12.84674

Rotational constants in cm-1:     0.018967     0.011826     0.010904
Rotational constants in MHz :   568.616931   354.543848   326.897737

                             ****ORCA TERMINATED NORMALLY****
TOTAL RUN TIME: 0 days 18 hours 56 minutes 5 seconds 540 msec
