                         Program Version 4.1.2  - RELEASE  -
|  1> ! aug-cc-pVTZ aug-cc-pVTZ/C DLPNO-CCSD(T1) TightSCF NormalPNO UNO MiniPrint AutoAux
|  2> %pal nproc 10 end
|  3> %maxcore 20000
|  4> %mdci
|  5>      density none
|  6> end
|  7>
|  8> * xyz 0 6
|  9>  O     -0.28259700     -0.22768400     -0.75820700
| 10>  C     -1.16962300     -1.14491200     -0.59498600
| 11>  C     -2.78362100     -0.30391600      0.54967100
| 12>  C     -2.62855700      0.91309500     -0.06175500
| 13>  C     -3.30695000      1.23971800     -1.35552500
| 14> Fe      1.44812900      0.14304400     -0.02454200
| 15> Cl      1.98817100      2.06945700     -0.91324600
| 16>  C     -1.72435800      1.97348300      0.46329100
| 17> Cl      2.66659800     -1.57232100     -0.63965700
| 18> Cl      1.21148500      0.25971900      2.16923000
| 19>  H     -3.54376200     -0.95896300      0.12699500
| 20>  H     -2.24454100      2.93882300      0.48298900
| 21>  H     -1.31918100      1.76272300      1.45172000
| 22>  H     -0.88084200      2.09259100     -0.23219000
| 23>  H     -3.91941100      2.14057100     -1.22048300
| 24>  H     -2.56615500      1.48485300     -2.12819100
| 25>  H     -3.95542900      0.43701900     -1.71192900
| 26>  C     -2.49209000     -0.52791600      2.01939500
| 27>  H     -3.21892500      0.03164500      2.62099000
| 28>  H     -2.59774000     -1.58146900      2.28567100
| 29>  H     -1.49334000     -0.20180000      2.31568400
| 30>  C     -0.84979900     -2.27561300      0.35762100
| 31>  H     -1.70823200     -2.92345500      0.54375300
| 32>  H     -0.07175100     -2.86388900     -0.14822400
| 33>  H     -0.42782100     -1.92006300      1.29687100
| 34>  C     -1.89100200     -1.56388800     -1.85970700
| 35>  H     -1.18978100     -2.21524500     -2.39758900
| 36>  H     -2.80073100     -2.13450100     -1.66269500
| 37>  H     -2.10325700     -0.71335600     -2.50519700
| 38> *
| 39>
| 40>
| 41>                          ****END OF INPUT****

CARTESIAN COORDINATES (ANGSTROEM)
---------------------------------
  O     -0.282597   -0.227684   -0.758207
  C     -1.169623   -1.144912   -0.594986
  C     -2.783621   -0.303916    0.549671
  C     -2.628557    0.913095   -0.061755
  C     -3.306950    1.239718   -1.355525
  Fe     1.448129    0.143044   -0.024542
  Cl     1.988171    2.069457   -0.913246
  C     -1.724358    1.973483    0.463291
  Cl     2.666598   -1.572321   -0.639657
  Cl     1.211485    0.259719    2.169230
  H     -3.543762   -0.958963    0.126995
  H     -2.244541    2.938823    0.482989
  H     -1.319181    1.762723    1.451720
  H     -0.880842    2.092591   -0.232190
  H     -3.919411    2.140571   -1.220483
  H     -2.566155    1.484853   -2.128191
  H     -3.955429    0.437019   -1.711929
  C     -2.492090   -0.527916    2.019395
  H     -3.218925    0.031645    2.620990
  H     -2.597740   -1.581469    2.285671
  H     -1.493340   -0.201800    2.315684
  C     -0.849799   -2.275613    0.357621
  H     -1.708232   -2.923455    0.543753
  H     -0.071751   -2.863889   -0.148224
  H     -0.427821   -1.920063    1.296871
  C     -1.891002   -1.563888   -1.859707
  H     -1.189781   -2.215245   -2.397589
  H     -2.800731   -2.134501   -1.662695
  H     -2.103257   -0.713356   -2.505197

ORBITAL ENERGIES
----------------
                 SPIN UP ORBITALS
  NO   OCC          E(Eh)            E(eV)
   0   1.0000    -261.561600     -7117.4530
   1   1.0000    -104.784774     -2851.3387
   2   1.0000    -104.780539     -2851.2234
   3   1.0000    -104.779604     -2851.1980
   4   1.0000     -32.229448      -877.0079
   5   1.0000     -27.705640      -753.9088
   6   1.0000     -27.704961      -753.8903
   7   1.0000     -27.704772      -753.8852
   8   1.0000     -20.582397      -560.0755
   9   1.0000     -11.406602      -310.3894
  10   1.0000     -11.318021      -307.9790
  11   1.0000     -11.265977      -306.5628
  12   1.0000     -11.265913      -306.5611
  13   1.0000     -11.265451      -306.5485
  14   1.0000     -11.260484      -306.4134
  15   1.0000     -11.247454      -306.0588
  16   1.0000     -11.244632      -305.9820
  17   1.0000     -10.511449      -286.0311
  18   1.0000     -10.507199      -285.9154
  19   1.0000     -10.506212      -285.8886
  20   1.0000      -7.978317      -217.1010
  21   1.0000      -7.977491      -217.0786
  22   1.0000      -7.977465      -217.0779
  23   1.0000      -7.974049      -216.9849
  24   1.0000      -7.973299      -216.9645
  25   1.0000      -7.973237      -216.9628
  26   1.0000      -7.973024      -216.9570
  27   1.0000      -7.972325      -216.9380
  28   1.0000      -7.972256      -216.9361
  29   1.0000      -4.584632      -124.7542
  30   1.0000      -3.197497       -87.0083
  31   1.0000      -3.196360       -86.9774
  32   1.0000      -3.196086       -86.9699
  33   1.0000      -1.426689       -38.8222
  34   1.0000      -1.157024       -31.4842
  35   1.0000      -1.088048       -29.6073
  36   1.0000      -1.056403       -28.7462
  37   1.0000      -1.050556       -28.5871
  38   1.0000      -1.047683       -28.5089
  39   1.0000      -1.034627       -28.1536
  40   1.0000      -0.996294       -27.1105
  41   1.0000      -0.981656       -26.7122
  42   1.0000      -0.930251       -25.3134
  43   1.0000      -0.914946       -24.8969
  44   1.0000      -0.913818       -24.8663
  45   1.0000      -0.913750       -24.8644
  46   1.0000      -0.904166       -24.6036
  47   1.0000      -0.903448       -24.5841
  48   1.0000      -0.796802       -21.6821
  49   1.0000      -0.753279       -20.4978
  50   1.0000      -0.692180       -18.8352
  51   1.0000      -0.687451       -18.7065
  52   1.0000      -0.681088       -18.5333
  53   1.0000      -0.668385       -18.1877
  54   1.0000      -0.641149       -17.4465
  55   1.0000      -0.624022       -16.9805
  56   1.0000      -0.603863       -16.4319
  57   1.0000      -0.593862       -16.1598
  58   1.0000      -0.581845       -15.8328
  59   1.0000      -0.575009       -15.6468
  60   1.0000      -0.568774       -15.4771
  61   1.0000      -0.559988       -15.2380
  62   1.0000      -0.556075       -15.1316
  63   1.0000      -0.544841       -14.8259
  64   1.0000      -0.539307       -14.6753
  65   1.0000      -0.523607       -14.2481
  66   1.0000      -0.515248       -14.0206
  67   1.0000      -0.486352       -13.2343
  68   1.0000      -0.468369       -12.7450
  69   1.0000      -0.463434       -12.6107
  70   1.0000      -0.435937       -11.8624
  71   1.0000      -0.432100       -11.7580
  72   1.0000      -0.430156       -11.7051
  73   1.0000      -0.421414       -11.4672
  74   1.0000      -0.419993       -11.4286
  75   1.0000      -0.419125       -11.4050
  76   1.0000      -0.377338       -10.2679
  77   0.0000       0.010705         0.2913
  78   0.0000       0.020974         0.5707
  79   0.0000       0.022713         0.6180
  80   0.0000       0.028638         0.7793
  81   0.0000       0.035966         0.9787

                 SPIN DOWN ORBITALS
  NO   OCC          E(Eh)            E(eV)
   0   1.0000    -261.558041     -7117.3561
   1   1.0000    -104.783359     -2851.3001
   2   1.0000    -104.779040     -2851.1826
   3   1.0000    -104.778136     -2851.1580
   4   1.0000     -32.067391      -872.5981
   5   1.0000     -27.545353      -749.5472
   6   1.0000     -27.545273      -749.5450
   7   1.0000     -27.544995      -749.5374
   8   1.0000     -20.578075      -559.9579
   9   1.0000     -11.406543      -310.3878
  10   1.0000     -11.317788      -307.9727
  11   1.0000     -11.265945      -306.5620
  12   1.0000     -11.265864      -306.5597
  13   1.0000     -11.265491      -306.5496
  14   1.0000     -11.260467      -306.4129
  15   1.0000     -11.247503      -306.0601
  16   1.0000     -11.244628      -305.9819
  17   1.0000     -10.509931      -285.9898
  18   1.0000     -10.505597      -285.8718
  19   1.0000     -10.504647      -285.8460
  20   1.0000      -7.975816      -217.0330
  21   1.0000      -7.975218      -217.0167
  22   1.0000      -7.975160      -217.0151
  23   1.0000      -7.971516      -216.9160
  24   1.0000      -7.970814      -216.8969
  25   1.0000      -7.970730      -216.8946
  26   1.0000      -7.970618      -216.8915
  27   1.0000      -7.969848      -216.8706
  28   1.0000      -7.969758      -216.8681
  29   1.0000      -4.142350      -112.7191
  30   1.0000      -2.664047       -72.4924
  31   1.0000      -2.664006       -72.4913
  32   1.0000      -2.663261       -72.4710
  33   1.0000      -1.415749       -38.5245
  34   1.0000      -1.156272       -31.4638
  35   1.0000      -1.085295       -29.5324
  36   1.0000      -1.041753       -28.3475
  37   1.0000      -1.034351       -28.1461
  38   1.0000      -1.028997       -28.0004
  39   1.0000      -1.026106       -27.9218
  40   1.0000      -0.995615       -27.0921
  41   1.0000      -0.981489       -26.7077
  42   1.0000      -0.915805       -24.9203
  43   1.0000      -0.810543       -22.0560
  44   1.0000      -0.753509       -20.5040
  45   1.0000      -0.694834       -18.9074
  46   1.0000      -0.686931       -18.6923
  47   1.0000      -0.680453       -18.5161
  48   1.0000      -0.667912       -18.1748
  49   1.0000      -0.641043       -17.4437
  50   1.0000      -0.623510       -16.9666
  51   1.0000      -0.603191       -16.4137
  52   1.0000      -0.593858       -16.1597
  53   1.0000      -0.581662       -15.8278
  54   1.0000      -0.573940       -15.6177
  55   1.0000      -0.568620       -15.4729
  56   1.0000      -0.559888       -15.2353
  57   1.0000      -0.555767       -15.1232
  58   1.0000      -0.543857       -14.7991
  59   1.0000      -0.536377       -14.5956
  60   1.0000      -0.516045       -14.0423
  61   1.0000      -0.512252       -13.9391
  62   1.0000      -0.485753       -13.2180
  63   1.0000      -0.474558       -12.9134
  64   1.0000      -0.472113       -12.8468
  65   1.0000      -0.445121       -12.1124
  66   1.0000      -0.441707       -12.0195
  67   1.0000      -0.439222       -11.9518
  68   1.0000      -0.424876       -11.5615
  69   1.0000      -0.419405       -11.4126
  70   1.0000      -0.405439       -11.0326
  71   1.0000      -0.375098       -10.2069
  72   0.0000       0.010695         0.2910
  73   0.0000       0.020948         0.5700
  74   0.0000       0.022703         0.6178
  75   0.0000       0.028390         0.7725
  76   0.0000       0.035342         0.9617

E(0)                                       ...  -3028.436098205
E(0)                                       ...  -3028.436098205
E(CORR)(strong-pairs)                      ...     -2.873989723
E(CORR)(weak-pairs)                        ...     -0.036237341
E(CORR)(corrected)                         ...     -2.910227063
E(TOT)                                     ...  -3031.346325268
E(CCSD(T))                                 ...  -3031.466400957
FINAL SINGLE POINT ENERGY     -3031.466400957055

DIPOLE MOMENT
-------------
                                X             Y             Z
Electronic contribution:     41.99801       5.25714       1.12569
Nuclear contribution   :    -46.22871      -6.02996      -1.62031
                        -----------------------------------------
Total Dipole Moment    :     -4.23070      -0.77282      -0.49462
                        -----------------------------------------
Magnitude (a.u.)       :      4.32906
Magnitude (Debye)      :     11.00359

Rotational constants in cm-1:     0.019183     0.011048     0.010384
Rotational constants in MHz :   575.092869   331.196614   311.296428

                             ****ORCA TERMINATED NORMALLY****
TOTAL RUN TIME: 0 days 19 hours 15 minutes 11 seconds 538 msec
