                         Program Version 4.1.2  - RELEASE  -
|  1> ! aug-cc-pVTZ aug-cc-pVTZ/C DLPNO-CCSD(T1) TightSCF NormalPNO UNO MiniPrint AutoAux
|  2> %pal nproc 10 end
|  3> %maxcore 20000
|  4> %mdci
|  5>      density none
|  6> end
|  7>
|  8> * xyz 0 6
|  9>  O     -0.29943400     -0.09838000     -0.41248800
| 10>  C     -1.24983500     -1.03568600     -0.19916300
| 11>  C     -2.49374200     -0.37139500      0.75026600
| 12>  C     -3.07170600      0.67192600     -0.05034700
| 13>  C     -4.27983900      0.44154200     -0.87685300
| 14> Fe      1.52316200      0.17040400     -0.09423600
| 15> Cl      1.84329400      2.19784600     -0.89713500
| 16>  C     -2.33593900      1.92398800     -0.18697800
| 17> Cl      2.55008800     -1.46664900     -1.15080400
| 18> Cl      1.84947300      0.08814900      2.09590800
| 19>  H     -3.19122900     -1.20509300      0.86571900
| 20>  H     -2.79512100      2.65605300     -0.85198700
| 21>  H     -2.06707300      2.37271500      0.77490000
| 22>  H     -1.34205200      1.58127000     -0.58580200
| 23>  H     -5.09458400      1.04051000     -0.43869200
| 24>  H     -4.14355200      0.82277300     -1.89610000
| 25>  H     -4.59456600     -0.60281400     -0.89820500
| 26>  C     -1.89789300      0.07701900      2.09487500
| 27>  H     -2.58683800      0.74928700      2.61587300
| 28>  H     -1.73248600     -0.78945500      2.73632800
| 29>  H     -0.93882600      0.58000200      1.96239500
| 30>  C     -0.73459900     -2.21975600      0.63983100
| 31>  H     -1.53740400     -2.91750900      0.89639600
| 32>  H      0.00617900     -2.74264100      0.02612100
| 33>  H     -0.23193600     -1.88213300      1.54652200
| 34>  C     -1.81724600     -1.53080400     -1.53584600
| 35>  H     -1.02306100     -2.07772500     -2.05211400
| 36>  H     -2.67154100     -2.20328700     -1.40239300
| 37>  H     -2.10638200     -0.69530500     -2.17913600
| 38> *
| 39>
| 40>
| 41>                          ****END OF INPUT****

CARTESIAN COORDINATES (ANGSTROEM)
---------------------------------
  O     -0.299434   -0.098380   -0.412488
  C     -1.249835   -1.035686   -0.199163
  C     -2.493742   -0.371395    0.750266
  C     -3.071706    0.671926   -0.050347
  C     -4.279839    0.441542   -0.876853
  Fe     1.523162    0.170404   -0.094236
  Cl     1.843294    2.197846   -0.897135
  C     -2.335939    1.923988   -0.186978
  Cl     2.550088   -1.466649   -1.150804
  Cl     1.849473    0.088149    2.095908
  H     -3.191229   -1.205093    0.865719
  H     -2.795121    2.656053   -0.851987
  H     -2.067073    2.372715    0.774900
  H     -1.342052    1.581270   -0.585802
  H     -5.094584    1.040510   -0.438692
  H     -4.143552    0.822773   -1.896100
  H     -4.594566   -0.602814   -0.898205
  C     -1.897893    0.077019    2.094875
  H     -2.586838    0.749287    2.615873
  H     -1.732486   -0.789455    2.736328
  H     -0.938826    0.580002    1.962395
  C     -0.734599   -2.219756    0.639831
  H     -1.537404   -2.917509    0.896396
  H      0.006179   -2.742641    0.026121
  H     -0.231936   -1.882133    1.546522
  C     -1.817246   -1.530804   -1.535846
  H     -1.023061   -2.077725   -2.052114
  H     -2.671541   -2.203287   -1.402393
  H     -2.106382   -0.695305   -2.179136

ORBITAL ENERGIES
----------------
                 SPIN UP ORBITALS
  NO   OCC          E(Eh)            E(eV)
   0   1.0000    -261.537182     -7116.7885
   1   1.0000    -104.765519     -2850.8147
   2   1.0000    -104.764016     -2850.7738
   3   1.0000    -104.762024     -2850.7196
   4   1.0000     -32.205102      -876.3454
   5   1.0000     -27.680994      -753.2382
   6   1.0000     -27.680794      -753.2327
   7   1.0000     -27.680586      -753.2270
   8   1.0000     -20.536371      -558.8231
   9   1.0000     -11.404124      -310.3220
  10   1.0000     -11.348441      -308.8068
  11   1.0000     -11.311298      -307.7961
  12   1.0000     -11.292364      -307.2809
  13   1.0000     -11.283332      -307.0351
  14   1.0000     -11.255473      -306.2770
  15   1.0000     -11.245591      -306.0081
  16   1.0000     -11.233551      -305.6805
  17   1.0000     -10.492146      -285.5058
  18   1.0000     -10.490602      -285.4638
  19   1.0000     -10.488642      -285.4105
  20   1.0000      -7.959020      -216.5760
  21   1.0000      -7.958199      -216.5536
  22   1.0000      -7.958143      -216.5521
  23   1.0000      -7.957427      -216.5326
  24   1.0000      -7.956711      -216.5131
  25   1.0000      -7.956606      -216.5103
  26   1.0000      -7.955495      -216.4800
  27   1.0000      -7.954739      -216.4595
  28   1.0000      -7.954654      -216.4571
  29   1.0000      -4.560570      -124.0994
  30   1.0000      -3.173099       -86.3444
  31   1.0000      -3.172700       -86.3336
  32   1.0000      -3.172203       -86.3200
  33   1.0000      -1.366387       -37.1813
  34   1.0000      -1.205599       -32.8060
  35   1.0000      -1.088266       -29.6132
  36   1.0000      -1.047737       -28.5104
  37   1.0000      -1.036275       -28.1985
  38   1.0000      -1.031139       -28.0587
  39   1.0000      -1.028899       -27.9978
  40   1.0000      -1.024436       -27.8763
  41   1.0000      -0.967544       -26.3282
  42   1.0000      -0.932579       -25.3768
  43   1.0000      -0.903364       -24.5818
  44   1.0000      -0.890140       -24.2219
  45   1.0000      -0.890081       -24.2203
  46   1.0000      -0.881625       -23.9902
  47   1.0000      -0.881279       -23.9808
  48   1.0000      -0.805128       -21.9087
  49   1.0000      -0.768409       -20.9095
  50   1.0000      -0.716119       -19.4866
  51   1.0000      -0.697780       -18.9876
  52   1.0000      -0.678377       -18.4596
  53   1.0000      -0.650134       -17.6911
  54   1.0000      -0.646572       -17.5941
  55   1.0000      -0.638181       -17.3658
  56   1.0000      -0.612309       -16.6618
  57   1.0000      -0.602877       -16.4051
  58   1.0000      -0.593355       -16.1460
  59   1.0000      -0.582952       -15.8629
  60   1.0000      -0.576185       -15.6788
  61   1.0000      -0.562440       -15.3048
  62   1.0000      -0.552820       -15.0430
  63   1.0000      -0.539168       -14.6715
  64   1.0000      -0.530824       -14.4444
  65   1.0000      -0.517023       -14.0689
  66   1.0000      -0.498777       -13.5724
  67   1.0000      -0.461536       -12.5590
  68   1.0000      -0.456395       -12.4191
  69   1.0000      -0.437322       -11.9001
  70   1.0000      -0.427433       -11.6310
  71   1.0000      -0.416463       -11.3325
  72   1.0000      -0.412210       -11.2168
  73   1.0000      -0.406533       -11.0623
  74   1.0000      -0.403573       -10.9818
  75   1.0000      -0.402820       -10.9613
  76   1.0000      -0.401835       -10.9345
  77   0.0000      -0.008109        -0.2207
  78   0.0000      -0.000408        -0.0111
  79   0.0000       0.016075         0.4374
  80   0.0000       0.016728         0.4552
  81   0.0000       0.026189         0.7126

                 SPIN DOWN ORBITALS
  NO   OCC          E(Eh)            E(eV)
   0   1.0000    -261.533632     -7116.6919
   1   1.0000    -104.764157     -2850.7777
   2   1.0000    -104.762665     -2850.7370
   3   1.0000    -104.760609     -2850.6811
   4   1.0000     -32.043016      -871.9348
   5   1.0000     -27.521089      -748.8869
   6   1.0000     -27.520941      -748.8829
   7   1.0000     -27.520445      -748.8694
   8   1.0000     -20.530700      -558.6687
   9   1.0000     -11.404086      -310.3210
  10   1.0000     -11.348300      -308.8029
  11   1.0000     -11.311305      -307.7963
  12   1.0000     -11.292239      -307.2775
  13   1.0000     -11.283334      -307.0351
  14   1.0000     -11.255503      -306.2778
  15   1.0000     -11.245493      -306.0054
  16   1.0000     -11.233517      -305.6795
  17   1.0000     -10.490682      -285.4660
  18   1.0000     -10.489153      -285.4244
  19   1.0000     -10.487124      -285.3691
  20   1.0000      -7.956577      -216.5095
  21   1.0000      -7.956028      -216.4945
  22   1.0000      -7.955959      -216.4926
  23   1.0000      -7.955122      -216.4699
  24   1.0000      -7.954481      -216.4524
  25   1.0000      -7.954374      -216.4495
  26   1.0000      -7.953060      -216.4138
  27   1.0000      -7.952412      -216.3961
  28   1.0000      -7.952332      -216.3939
  29   1.0000      -4.118281      -112.0641
  30   1.0000      -2.640176       -71.8428
  31   1.0000      -2.640091       -71.8405
  32   1.0000      -2.639164       -71.8153
  33   1.0000      -1.351897       -36.7870
  34   1.0000      -1.204666       -32.7806
  35   1.0000      -1.085838       -29.5472
  36   1.0000      -1.046832       -28.4858
  37   1.0000      -1.024068       -27.8663
  38   1.0000      -1.021506       -27.7966
  39   1.0000      -1.010882       -27.5075
  40   1.0000      -1.008791       -27.4506
  41   1.0000      -0.966929       -26.3115
  42   1.0000      -0.932360       -25.3708
  43   1.0000      -0.810089       -22.0436
  44   1.0000      -0.775954       -21.1148
  45   1.0000      -0.716793       -19.5049
  46   1.0000      -0.697278       -18.9739
  47   1.0000      -0.678520       -18.4635
  48   1.0000      -0.651029       -17.7154
  49   1.0000      -0.647429       -17.6174
  50   1.0000      -0.636992       -17.3334
  51   1.0000      -0.612292       -16.6613
  52   1.0000      -0.602755       -16.4018
  53   1.0000      -0.593225       -16.1425
  54   1.0000      -0.581911       -15.8346
  55   1.0000      -0.574964       -15.6456
  56   1.0000      -0.562062       -15.2945
  57   1.0000      -0.552896       -15.0451
  58   1.0000      -0.539188       -14.6720
  59   1.0000      -0.529088       -14.3972
  60   1.0000      -0.512304       -13.9405
  61   1.0000      -0.492537       -13.4026
  62   1.0000      -0.459904       -12.5146
  63   1.0000      -0.456759       -12.4291
  64   1.0000      -0.444215       -12.0877
  65   1.0000      -0.434482       -11.8229
  66   1.0000      -0.426627       -11.6091
  67   1.0000      -0.423272       -11.5178
  68   1.0000      -0.422448       -11.4954
  69   1.0000      -0.401371       -10.9219
  70   1.0000      -0.393685       -10.7127
  71   1.0000      -0.388749       -10.5784
  72   0.0000      -0.008245        -0.2244
  73   0.0000      -0.000410        -0.0112
  74   0.0000       0.016069         0.4373
  75   0.0000       0.016715         0.4548
  76   0.0000       0.026203         0.7130

E(0)                                       ...  -3028.425737020
E(0)                                       ...  -3028.425737020
E(CORR)(strong-pairs)                      ...     -2.872686351
E(CORR)(weak-pairs)                        ...     -0.035428749
E(CORR)(corrected)                         ...     -2.908115100
E(TOT)                                     ...  -3031.333852121
E(CCSD(T))                                 ...  -3031.452824589
FINAL SINGLE POINT ENERGY     -3031.452824589474

DIPOLE MOMENT
-------------
                                X             Y             Z
Electronic contribution:     42.74290       6.82625      -1.36075
Nuclear contribution   :    -48.96099      -6.87871       1.35399
                        -----------------------------------------
Total Dipole Moment    :     -6.21810      -0.05247      -0.00676
                        -----------------------------------------
Magnitude (a.u.)       :      6.21832
Magnitude (Debye)      :     15.80572

Rotational constants in cm-1:     0.020303     0.010106     0.009662
Rotational constants in MHz :   608.670540   302.978864   289.673827

                             ****ORCA TERMINATED NORMALLY****
TOTAL RUN TIME: 0 days 23 hours 41 minutes 44 seconds 626 msec
