                         Program Version 4.1.2  - RELEASE  -
|  1> ! aug-cc-pVTZ aug-cc-pVTZ/C DLPNO-CCSD(T1) TightSCF NormalPNO UNO MiniPrint AutoAux
|  2> %pal nproc 10 end
|  3> %maxcore 20000
|  4> %mdci
|  5>      density none
|  6> end
|  7>
|  8> * xyz 0 6
|  9>  O      0.16455100      0.38136400     -0.87142300
| 10>  C      1.00100800      1.30181600     -0.67110400
| 11>  C      2.94710800      0.25174000      0.59875300
| 12>  C      2.76898900     -0.89293800     -0.10130400
| 13>  C      3.41455300     -1.10755000     -1.44127700
| 14> Fe     -1.50405800     -0.17611500     -0.01132400
| 15> Cl     -2.02225900     -2.03426800     -1.02014400
| 16>  C      1.88119900     -2.01207200      0.35452800
| 17> Cl     -2.79226900      1.54395500     -0.41969500
| 18> Cl     -1.10459400     -0.42970800      2.13357400
| 19>  H      3.64227700      0.98110400      0.18355400
| 20>  H      2.42679900     -2.96411200      0.34301200
| 21>  H      1.46470500     -1.86254400      1.35046000
| 22>  H      1.04386600     -2.12830400     -0.34854400
| 23>  H      4.05099600     -2.00143800     -1.40776100
| 24>  H      2.65936700     -1.29838700     -2.21607400
| 25>  H      4.03717700     -0.26297400     -1.74830200
| 26>  C      2.60071900      0.44706200      2.05494600
| 27>  H      3.35343400     -0.04860000      2.68229300
| 28>  H      2.60983800      1.50462300      2.33081900
| 29>  H      1.62604100      0.03612100      2.32655700
| 30>  C      0.78115500      2.28463100      0.43949700
| 31>  H      1.66659200      2.88615200      0.64660400
| 32>  H     -0.01926100      2.95099800      0.08447400
| 33>  H      0.41955400      1.80197200      1.34735800
| 34>  C      1.83855900      1.72780700     -1.84296400
| 35>  H      1.22806600      2.45603800     -2.39666100
| 36>  H      2.76211000      2.22376800     -1.54298100
| 37>  H      2.04287400      0.89105400     -2.50894200
| 38> *
| 39>
| 40>
| 41>                          ****END OF INPUT****

CARTESIAN COORDINATES (ANGSTROEM)
---------------------------------
  O      0.164551    0.381364   -0.871423
  C      1.001008    1.301816   -0.671104
  C      2.947108    0.251740    0.598753
  C      2.768989   -0.892938   -0.101304
  C      3.414553   -1.107550   -1.441277
  Fe    -1.504058   -0.176115   -0.011324
  Cl    -2.022259   -2.034268   -1.020144
  C      1.881199   -2.012072    0.354528
  Cl    -2.792269    1.543955   -0.419695
  Cl    -1.104594   -0.429708    2.133574
  H      3.642277    0.981104    0.183554
  H      2.426799   -2.964112    0.343012
  H      1.464705   -1.862544    1.350460
  H      1.043866   -2.128304   -0.348544
  H      4.050996   -2.001438   -1.407761
  H      2.659367   -1.298387   -2.216074
  H      4.037177   -0.262974   -1.748302
  C      2.600719    0.447062    2.054946
  H      3.353434   -0.048600    2.682293
  H      2.609838    1.504623    2.330819
  H      1.626041    0.036121    2.326557
  C      0.781155    2.284631    0.439497
  H      1.666592    2.886152    0.646604
  H     -0.019261    2.950998    0.084474
  H      0.419554    1.801972    1.347358
  C      1.838559    1.727807   -1.842964
  H      1.228066    2.456038   -2.396661
  H      2.762110    2.223768   -1.542981
  H      2.042874    0.891054   -2.508942

ORBITAL ENERGIES
----------------
                 SPIN UP ORBITALS
  NO   OCC          E(Eh)            E(eV)
   0   1.0000    -261.573220     -7117.7692
   1   1.0000    -104.792702     -2851.5544
   2   1.0000    -104.789080     -2851.4558
   3   1.0000    -104.786649     -2851.3897
   4   1.0000     -32.240968      -877.3213
   5   1.0000     -27.717417      -754.2293
   6   1.0000     -27.716335      -754.1998
   7   1.0000     -27.716119      -754.1939
   8   1.0000     -20.617115      -561.0202
   9   1.0000     -11.420899      -310.7785
  10   1.0000     -11.276575      -306.8512
  11   1.0000     -11.274248      -306.7879
  12   1.0000     -11.272066      -306.7285
  13   1.0000     -11.247589      -306.0625
  14   1.0000     -11.247198      -306.0518
  15   1.0000     -11.236062      -305.7488
  16   1.0000     -11.233039      -305.6665
  17   1.0000     -10.519431      -286.2483
  18   1.0000     -10.515761      -286.1484
  19   1.0000     -10.513283      -286.0810
  20   1.0000      -7.986266      -217.3173
  21   1.0000      -7.985504      -217.2966
  22   1.0000      -7.985461      -217.2954
  23   1.0000      -7.982623      -217.2182
  24   1.0000      -7.981864      -217.1976
  25   1.0000      -7.981813      -217.1962
  26   1.0000      -7.980081      -217.1490
  27   1.0000      -7.979416      -217.1310
  28   1.0000      -7.979356      -217.1293
  29   1.0000      -4.595919      -125.0613
  30   1.0000      -3.209080       -87.3235
  31   1.0000      -3.207362       -87.2768
  32   1.0000      -3.207161       -87.2713
  33   1.0000      -1.459592       -39.7175
  34   1.0000      -1.130532       -30.7633
  35   1.0000      -1.098632       -29.8953
  36   1.0000      -1.065473       -28.9930
  37   1.0000      -1.059510       -28.8307
  38   1.0000      -1.056105       -28.7381
  39   1.0000      -1.022949       -27.8359
  40   1.0000      -1.008550       -27.4440
  41   1.0000      -0.962212       -26.1831
  42   1.0000      -0.941155       -25.6101
  43   1.0000      -0.924922       -25.1684
  44   1.0000      -0.924745       -25.1636
  45   1.0000      -0.914269       -24.8785
  46   1.0000      -0.913542       -24.8587
  47   1.0000      -0.898268       -24.4431
  48   1.0000      -0.812284       -22.1034
  49   1.0000      -0.733721       -19.9656
  50   1.0000      -0.709550       -19.3078
  51   1.0000      -0.699591       -19.0368
  52   1.0000      -0.682623       -18.5751
  53   1.0000      -0.657719       -17.8975
  54   1.0000      -0.623957       -16.9787
  55   1.0000      -0.620785       -16.8924
  56   1.0000      -0.605859       -16.4862
  57   1.0000      -0.599309       -16.3080
  58   1.0000      -0.585320       -15.9274
  59   1.0000      -0.577158       -15.7053
  60   1.0000      -0.561151       -15.2697
  61   1.0000      -0.555076       -15.1044
  62   1.0000      -0.545723       -14.8499
  63   1.0000      -0.543338       -14.7850
  64   1.0000      -0.536213       -14.5911
  65   1.0000      -0.527229       -14.3466
  66   1.0000      -0.502056       -13.6616
  67   1.0000      -0.495902       -13.4942
  68   1.0000      -0.475918       -12.9504
  69   1.0000      -0.474403       -12.9092
  70   1.0000      -0.445313       -12.1176
  71   1.0000      -0.439216       -11.9517
  72   1.0000      -0.437132       -11.8950
  73   1.0000      -0.428841       -11.6694
  74   1.0000      -0.427603       -11.6357
  75   1.0000      -0.426152       -11.5962
  76   1.0000      -0.361911        -9.8481
  77   0.0000       0.012357         0.3362
  78   0.0000       0.023132         0.6295
  79   0.0000       0.023957         0.6519
  80   0.0000       0.030359         0.8261
  81   0.0000       0.039036         1.0622

                 SPIN DOWN ORBITALS
  NO   OCC          E(Eh)            E(eV)
   0   1.0000    -261.569638     -7117.6717
   1   1.0000    -104.791220     -2851.5141
   2   1.0000    -104.787528     -2851.4136
   3   1.0000    -104.785092     -2851.3473
   4   1.0000     -32.078959      -872.9129
   5   1.0000     -27.556876      -749.8607
   6   1.0000     -27.556805      -749.8588
   7   1.0000     -27.556689      -749.8556
   8   1.0000     -20.613494      -560.9217
   9   1.0000     -11.420813      -310.7761
  10   1.0000     -11.276467      -306.8483
  11   1.0000     -11.274227      -306.7873
  12   1.0000     -11.272053      -306.7282
  13   1.0000     -11.247592      -306.0625
  14   1.0000     -11.247191      -306.0516
  15   1.0000     -11.236060      -305.7487
  16   1.0000     -11.233052      -305.6669
  17   1.0000     -10.517846      -286.2051
  18   1.0000     -10.514105      -286.1034
  19   1.0000     -10.511628      -286.0359
  20   1.0000      -7.983759      -217.2491
  21   1.0000      -7.983039      -217.2295
  22   1.0000      -7.982998      -217.2284
  23   1.0000      -7.980006      -217.1470
  24   1.0000      -7.979289      -217.1275
  25   1.0000      -7.979203      -217.1252
  26   1.0000      -7.977612      -217.0819
  27   1.0000      -7.976742      -217.0582
  28   1.0000      -7.976654      -217.0558
  29   1.0000      -4.153802      -113.0307
  30   1.0000      -2.675388       -72.8010
  31   1.0000      -2.675324       -72.7993
  32   1.0000      -2.674881       -72.7872
  33   1.0000      -1.450687       -39.4752
  34   1.0000      -1.130211       -30.7546
  35   1.0000      -1.096126       -29.8271
  36   1.0000      -1.049794       -28.5663
  37   1.0000      -1.037286       -28.2260
  38   1.0000      -1.033526       -28.1237
  39   1.0000      -1.022259       -27.8171
  40   1.0000      -1.008047       -27.4304
  41   1.0000      -0.962148       -26.1814
  42   1.0000      -0.898406       -24.4469
  43   1.0000      -0.826161       -22.4810
  44   1.0000      -0.733803       -19.9678
  45   1.0000      -0.711661       -19.3653
  46   1.0000      -0.698685       -19.0122
  47   1.0000      -0.682010       -18.5584
  48   1.0000      -0.657656       -17.8957
  49   1.0000      -0.623935       -16.9781
  50   1.0000      -0.620282       -16.8787
  51   1.0000      -0.605576       -16.4786
  52   1.0000      -0.599151       -16.3037
  53   1.0000      -0.584950       -15.9173
  54   1.0000      -0.575480       -15.6596
  55   1.0000      -0.560679       -15.2569
  56   1.0000      -0.554846       -15.0981
  57   1.0000      -0.544660       -14.8209
  58   1.0000      -0.543087       -14.7781
  59   1.0000      -0.528315       -14.3762
  60   1.0000      -0.522879       -14.2283
  61   1.0000      -0.503771       -13.7083
  62   1.0000      -0.496043       -13.4980
  63   1.0000      -0.483809       -13.1651
  64   1.0000      -0.480728       -13.0813
  65   1.0000      -0.453114       -12.3299
  66   1.0000      -0.449213       -12.2237
  67   1.0000      -0.446449       -12.1485
  68   1.0000      -0.430412       -11.7121
  69   1.0000      -0.427148       -11.6233
  70   1.0000      -0.411948       -11.2097
  71   1.0000      -0.361265        -9.8305
  72   0.0000       0.012340         0.3358
  73   0.0000       0.023107         0.6288
  74   0.0000       0.023916         0.6508
  75   0.0000       0.030250         0.8231
  76   0.0000       0.038885         1.0581

E(0)                                       ...  -3028.461615577
E(0)                                       ...  -3028.461615577
E(CORR)(strong-pairs)                      ...     -2.867525896
E(CORR)(weak-pairs)                        ...     -0.035703428
E(CORR)(corrected)                         ...     -2.903229324
E(TOT)                                     ...  -3031.364844901
E(CCSD(T))                                 ...  -3031.483006080
FINAL SINGLE POINT ENERGY     -3031.483006079882

DIPOLE MOMENT
-------------
                                X             Y             Z
Electronic contribution:    -43.97001      -5.49126       1.16263
Nuclear contribution   :     47.44400       6.90035      -1.77005
                        -----------------------------------------
Total Dipole Moment    :      3.47400       1.40909      -0.60742
                        -----------------------------------------
Magnitude (a.u.)       :      3.79778
Magnitude (Debye)      :      9.65319

Rotational constants in cm-1:     0.018967     0.010554     0.009926
Rotational constants in MHz :   568.621463   316.414331   297.572007

                             ****ORCA TERMINATED NORMALLY****
TOTAL RUN TIME: 0 days 17 hours 2 minutes 11 seconds 728 msec
