                         Program Version 4.1.2  - RELEASE  -
|  1> ! aug-cc-pVTZ aug-cc-pVTZ/C DLPNO-CCSD(T1) TightSCF NormalPNO UNO MiniPrint AutoAux
|  2> %pal nproc 10 end
|  3> %maxcore 20000
|  4> %mdci
|  5>      density none
|  6> end
|  7>
|  8> * xyz 0 6
|  9>  O     -0.32720900     -0.18037200     -0.69742200
| 10>  C     -1.28831400     -1.10493300     -0.54092000
| 11>  C     -2.71733100     -0.30712900      0.32159000
| 12>  C     -2.39885400      0.99336400     -0.12027800
| 13>  C     -2.80961800      1.49643100     -1.45345800
| 14> Fe      1.38558300      0.10518600     -0.01900100
| 15> Cl      1.87435400      2.13036300     -0.74938500
| 16>  C     -1.59358900      1.92380800      0.69838100
| 17> Cl      2.66969800     -1.52761600     -0.73845600
| 18> Cl      1.17164400      0.07359300      2.20717400
| 19>  H     -3.55482900     -0.75673500     -0.21140600
| 20>  H     -2.31439100      2.57364400      1.22428700
| 21>  H     -0.98684600      1.42756400      1.45490700
| 22>  H     -0.96171000      2.56534700      0.07760300
| 23>  H     -3.15713500      2.53278700     -1.36406500
| 24>  H     -1.90622200      1.53276500     -2.07989000
| 25>  H     -3.57511300      0.88985400     -1.93806100
| 26>  C     -2.72648000     -0.59570900      1.81727100
| 27>  H     -3.50520500      0.00094000      2.30618800
| 28>  H     -2.95516400     -1.64747800      1.99940300
| 29>  H     -1.77224500     -0.36962200      2.29729000
| 30>  C     -0.90657200     -2.27981400      0.34872700
| 31>  H     -1.72940100     -2.98750100      0.47845100
| 32>  H     -0.08533000     -2.79074900     -0.16952000
| 33>  H     -0.53013700     -1.95831700      1.31942700
| 34>  C     -1.84237800     -1.57459800     -1.88315300
| 35>  H     -1.02681600     -2.10707800     -2.38499200
| 36>  H     -2.68677800     -2.25958200     -1.76491100
| 37>  H     -2.12817800     -0.74400900     -2.52893400
| 38> *
| 39>
| 40>
| 41>                          ****END OF INPUT****

CARTESIAN COORDINATES (ANGSTROEM)
---------------------------------
  O     -0.327209   -0.180372   -0.697422
  C     -1.288314   -1.104933   -0.540920
  C     -2.717331   -0.307129    0.321590
  C     -2.398854    0.993364   -0.120278
  C     -2.809618    1.496431   -1.453458
  Fe     1.385583    0.105186   -0.019001
  Cl     1.874354    2.130363   -0.749385
  C     -1.593589    1.923808    0.698381
  Cl     2.669698   -1.527616   -0.738456
  Cl     1.171644    0.073593    2.207174
  H     -3.554829   -0.756735   -0.211406
  H     -2.314391    2.573644    1.224287
  H     -0.986846    1.427564    1.454907
  H     -0.961710    2.565347    0.077603
  H     -3.157135    2.532787   -1.364065
  H     -1.906222    1.532765   -2.079890
  H     -3.575113    0.889854   -1.938061
  C     -2.726480   -0.595709    1.817271
  H     -3.505205    0.000940    2.306188
  H     -2.955164   -1.647478    1.999403
  H     -1.772245   -0.369622    2.297290
  C     -0.906572   -2.279814    0.348727
  H     -1.729401   -2.987501    0.478451
  H     -0.085330   -2.790749   -0.169520
  H     -0.530137   -1.958317    1.319427
  C     -1.842378   -1.574598   -1.883153
  H     -1.026816   -2.107078   -2.384992
  H     -2.686778   -2.259582   -1.764911
  H     -2.128178   -0.744009   -2.528934

ORBITAL ENERGIES
----------------
                 SPIN UP ORBITALS
  NO   OCC          E(Eh)            E(eV)
   0   1.0000    -261.546958     -7117.0546
   1   1.0000    -104.775581     -2851.0885
   2   1.0000    -104.772075     -2850.9931
   3   1.0000    -104.769837     -2850.9322
   4   1.0000     -32.214866      -876.6111
   5   1.0000     -27.690764      -753.5040
   6   1.0000     -27.690581      -753.4990
   7   1.0000     -27.690329      -753.4922
   8   1.0000     -20.544899      -559.0551
   9   1.0000     -11.384317      -309.7830
  10   1.0000     -11.369622      -309.3831
  11   1.0000     -11.287901      -307.1594
  12   1.0000     -11.284004      -307.0534
  13   1.0000     -11.270583      -306.6881
  14   1.0000     -11.255962      -306.2903
  15   1.0000     -11.248576      -306.0893
  16   1.0000     -11.239756      -305.8493
  17   1.0000     -10.502155      -285.7782
  18   1.0000     -10.498626      -285.6821
  19   1.0000     -10.496415      -285.6220
  20   1.0000      -7.969059      -216.8491
  21   1.0000      -7.968160      -216.8247
  22   1.0000      -7.968120      -216.8236
  23   1.0000      -7.965448      -216.7509
  24   1.0000      -7.964723      -216.7311
  25   1.0000      -7.964634      -216.7287
  26   1.0000      -7.963237      -216.6907
  27   1.0000      -7.962521      -216.6712
  28   1.0000      -7.962443      -216.6691
  29   1.0000      -4.570273      -124.3634
  30   1.0000      -3.182767       -86.6075
  31   1.0000      -3.182387       -86.5972
  32   1.0000      -3.181925       -86.5846
  33   1.0000      -1.380787       -37.5731
  34   1.0000      -1.188260       -32.3342
  35   1.0000      -1.084786       -29.5185
  36   1.0000      -1.045557       -28.4511
  37   1.0000      -1.044228       -28.4149
  38   1.0000      -1.039690       -28.2914
  39   1.0000      -1.036922       -28.2161
  40   1.0000      -1.009968       -27.4826
  41   1.0000      -0.974453       -26.5162
  42   1.0000      -0.933943       -25.4139
  43   1.0000      -0.911397       -24.8004
  44   1.0000      -0.899820       -24.4853
  45   1.0000      -0.899672       -24.4813
  46   1.0000      -0.891583       -24.2612
  47   1.0000      -0.890864       -24.2416
  48   1.0000      -0.788527       -21.4569
  49   1.0000      -0.766163       -20.8484
  50   1.0000      -0.705812       -19.2061
  51   1.0000      -0.691799       -18.8248
  52   1.0000      -0.673731       -18.3331
  53   1.0000      -0.650221       -17.6934
  54   1.0000      -0.644184       -17.5291
  55   1.0000      -0.628372       -17.0989
  56   1.0000      -0.601401       -16.3650
  57   1.0000      -0.596692       -16.2368
  58   1.0000      -0.592548       -16.1241
  59   1.0000      -0.580454       -15.7950
  60   1.0000      -0.577668       -15.7191
  61   1.0000      -0.560179       -15.2432
  62   1.0000      -0.556681       -15.1481
  63   1.0000      -0.543987       -14.8026
  64   1.0000      -0.534298       -14.5390
  65   1.0000      -0.528442       -14.3796
  66   1.0000      -0.509062       -13.8523
  67   1.0000      -0.470490       -12.8027
  68   1.0000      -0.459911       -12.5148
  69   1.0000      -0.448940       -12.2163
  70   1.0000      -0.425094       -11.5674
  71   1.0000      -0.424343       -11.5470
  72   1.0000      -0.421777       -11.4771
  73   1.0000      -0.412821       -11.2334
  74   1.0000      -0.411855       -11.2071
  75   1.0000      -0.410159       -11.1610
  76   1.0000      -0.399647       -10.8750
  77   0.0000       0.006192         0.1685
  78   0.0000       0.013982         0.3805
  79   0.0000       0.019757         0.5376
  80   0.0000       0.020240         0.5508
  81   0.0000       0.030444         0.8284

                 SPIN DOWN ORBITALS
  NO   OCC          E(Eh)            E(eV)
   0   1.0000    -261.543415     -7116.9582
   1   1.0000    -104.774279     -2851.0531
   2   1.0000    -104.770733     -2850.9566
   3   1.0000    -104.768404     -2850.8932
   4   1.0000     -32.052797      -872.2010
   5   1.0000     -27.530893      -749.1537
   6   1.0000     -27.530726      -749.1491
   7   1.0000     -27.530189      -749.1345
   8   1.0000     -20.539210      -558.9003
   9   1.0000     -11.384302      -309.7826
  10   1.0000     -11.369555      -309.3813
  11   1.0000     -11.287901      -307.1594
  12   1.0000     -11.283803      -307.0479
  13   1.0000     -11.270612      -306.6889
  14   1.0000     -11.255982      -306.2908
  15   1.0000     -11.248463      -306.0862
  16   1.0000     -11.239717      -305.8483
  17   1.0000     -10.500749      -285.7399
  18   1.0000     -10.497188      -285.6430
  19   1.0000     -10.494882      -285.5803
  20   1.0000      -7.966584      -216.7818
  21   1.0000      -7.966174      -216.7706
  22   1.0000      -7.966094      -216.7684
  23   1.0000      -7.963160      -216.6886
  24   1.0000      -7.962508      -216.6709
  25   1.0000      -7.962418      -216.6684
  26   1.0000      -7.960842      -216.6255
  27   1.0000      -7.960125      -216.6060
  28   1.0000      -7.960050      -216.6040
  29   1.0000      -4.127991      -112.3283
  30   1.0000      -2.649860       -72.1064
  31   1.0000      -2.649757       -72.1035
  32   1.0000      -2.648879       -72.0797
  33   1.0000      -1.366117       -37.1739
  34   1.0000      -1.187289       -32.3078
  35   1.0000      -1.082191       -29.4479
  36   1.0000      -1.042924       -28.3794
  37   1.0000      -1.031604       -28.0714
  38   1.0000      -1.020236       -27.7620
  39   1.0000      -1.016761       -27.6675
  40   1.0000      -1.009560       -27.4715
  41   1.0000      -0.973612       -26.4933
  42   1.0000      -0.932626       -25.3781
  43   1.0000      -0.796255       -21.6672
  44   1.0000      -0.771162       -20.9844
  45   1.0000      -0.706277       -19.2188
  46   1.0000      -0.690899       -18.8003
  47   1.0000      -0.674676       -18.3589
  48   1.0000      -0.652271       -17.7492
  49   1.0000      -0.642797       -17.4914
  50   1.0000      -0.627489       -17.0749
  51   1.0000      -0.601563       -16.3694
  52   1.0000      -0.595566       -16.2062
  53   1.0000      -0.592554       -16.1242
  54   1.0000      -0.580672       -15.8009
  55   1.0000      -0.576565       -15.6891
  56   1.0000      -0.559430       -15.2229
  57   1.0000      -0.556438       -15.1415
  58   1.0000      -0.543248       -14.7825
  59   1.0000      -0.528693       -14.3865
  60   1.0000      -0.527708       -14.3597
  61   1.0000      -0.501163       -13.6374
  62   1.0000      -0.469623       -12.7791
  63   1.0000      -0.463692       -12.6177
  64   1.0000      -0.456708       -12.4277
  65   1.0000      -0.435401       -11.8479
  66   1.0000      -0.432328       -11.7642
  67   1.0000      -0.430581       -11.7167
  68   1.0000      -0.423735       -11.5304
  69   1.0000      -0.410221       -11.1627
  70   1.0000      -0.398142       -10.8340
  71   1.0000      -0.391639       -10.6570
  72   0.0000       0.006191         0.1685
  73   0.0000       0.013790         0.3753
  74   0.0000       0.019762         0.5377
  75   0.0000       0.020221         0.5502
  76   0.0000       0.030467         0.8291

E(0)                                       ...  -3028.425721006
E(0)                                       ...  -3028.425721006
E(CORR)(strong-pairs)                      ...     -2.872202469
E(CORR)(weak-pairs)                        ...     -0.035605310
E(CORR)(corrected)                         ...     -2.907807779
E(TOT)                                     ...  -3031.333528785
E(CCSD(T))                                 ...  -3031.452477825
FINAL SINGLE POINT ENERGY     -3031.452477825122

DIPOLE MOMENT
-------------
                                X             Y             Z
Electronic contribution:     39.69754       5.39583       1.73790
Nuclear contribution   :    -44.66838      -5.27154      -2.16953
                        -----------------------------------------
Total Dipole Moment    :     -4.97084       0.12429      -0.43162
                        -----------------------------------------
Magnitude (a.u.)       :      4.99109
Magnitude (Debye)      :     12.68635

Rotational constants in cm-1:     0.019048     0.011682     0.010824
Rotational constants in MHz :   571.048919   350.202632   324.489229

                             ****ORCA TERMINATED NORMALLY****
TOTAL RUN TIME: 0 days 20 hours 11 minutes 32 seconds 520 msec
