                         Program Version 4.1.2  - RELEASE  -
|  1> ! aug-cc-pVTZ aug-cc-pVTZ/C DLPNO-CCSD(T1) TightSCF NormalPNO UNO MiniPrint AutoAux
|  2> %pal nproc 10 end
|  3> %maxcore 20000
|  4> %mdci
|  5>      density none
|  6> end
|  7>
|  8> * xyz 0 6
|  9>  O     -0.26269400     -0.25571000     -0.78933700
| 10>  C     -1.13497500     -1.17324000     -0.61898300
| 11>  C     -2.82959700     -0.27781100      0.55956300
| 12>  C     -2.64522600      0.91647900     -0.07379300
| 13>  C     -3.30162100      1.22678700     -1.38484100
| 14> Fe      1.45858300      0.14751500     -0.01905100
| 15> Cl      2.01084400      2.05459600     -0.93167600
| 16>  C     -1.73705000      1.98195500      0.44296600
| 17> Cl      2.67889600     -1.57950400     -0.59227300
| 18> Cl      1.18638300      0.28938900      2.16523100
| 19>  H     -3.57413100     -0.94581700      0.12944800
| 20>  H     -2.26393300      2.94365400      0.47662900
| 21>  H     -1.32171400      1.77056900      1.42724600
| 22>  H     -0.90154200      2.11347200     -0.25916400
| 23>  H     -3.90444300      2.13806100     -1.27995500
| 24>  H     -2.54831800      1.44373000     -2.15395300
| 25>  H     -3.95661200      0.42505800     -1.73276500
| 26>  C     -2.53356100     -0.50437900      2.02573500
| 27>  H     -3.26693500      0.04244500      2.63176900
| 28>  H     -2.62441200     -1.56002500      2.29035400
| 29>  H     -1.53959900     -0.16477300      2.32353300
| 30>  C     -0.84590100     -2.26779800      0.37762300
| 31>  H     -1.71339200     -2.90130600      0.56862900
| 32>  H     -0.06295700     -2.88078800     -0.09119500
| 33>  H     -0.43850700     -1.88184300      1.31131100
| 34>  C     -1.88752200     -1.59565200     -1.85929800
| 35>  H     -1.20876500     -2.26984400     -2.39919800
| 36>  H     -2.80277800     -2.14625200     -1.63550200
| 37>  H     -2.09494400     -0.75026100     -2.51278100
| 38> *
| 39>
| 40>
| 41>                          ****END OF INPUT****

CARTESIAN COORDINATES (ANGSTROEM)
---------------------------------
  O     -0.262694   -0.255710   -0.789337
  C     -1.134975   -1.173240   -0.618983
  C     -2.829597   -0.277811    0.559563
  C     -2.645226    0.916479   -0.073793
  C     -3.301621    1.226787   -1.384841
  Fe     1.458583    0.147515   -0.019051
  Cl     2.010844    2.054596   -0.931676
  C     -1.737050    1.981955    0.442966
  Cl     2.678896   -1.579504   -0.592273
  Cl     1.186383    0.289389    2.165231
  H     -3.574131   -0.945817    0.129448
  H     -2.263933    2.943654    0.476629
  H     -1.321714    1.770569    1.427246
  H     -0.901542    2.113472   -0.259164
  H     -3.904443    2.138061   -1.279955
  H     -2.548318    1.443730   -2.153953
  H     -3.956612    0.425058   -1.732765
  C     -2.533561   -0.504379    2.025735
  H     -3.266935    0.042445    2.631769
  H     -2.624412   -1.560025    2.290354
  H     -1.539599   -0.164773    2.323533
  C     -0.845901   -2.267798    0.377623
  H     -1.713392   -2.901306    0.568629
  H     -0.062957   -2.880788   -0.091195
  H     -0.438507   -1.881843    1.311311
  C     -1.887522   -1.595652   -1.859298
  H     -1.208765   -2.269844   -2.399198
  H     -2.802778   -2.146252   -1.635502
  H     -2.094944   -0.750261   -2.512781

ORBITAL ENERGIES
----------------
                 SPIN UP ORBITALS
  NO   OCC          E(Eh)            E(eV)
   0   1.0000    -261.565518     -7117.5596
   1   1.0000    -104.787385     -2851.4097
   2   1.0000    -104.783365     -2851.3003
   3   1.0000    -104.781895     -2851.2603
   4   1.0000     -32.233337      -877.1137
   5   1.0000     -27.709608      -754.0168
   6   1.0000     -27.708802      -753.9948
   7   1.0000     -27.708614      -753.9897
   8   1.0000     -20.593349      -560.3735
   9   1.0000     -11.412802      -310.5581
  10   1.0000     -11.302757      -307.5637
  11   1.0000     -11.269779      -306.6663
  12   1.0000     -11.264574      -306.5246
  13   1.0000     -11.259598      -306.3892
  14   1.0000     -11.259521      -306.3871
  15   1.0000     -11.242358      -305.9201
  16   1.0000     -11.242242      -305.9170
  17   1.0000     -10.514073      -286.1025
  18   1.0000     -10.510033      -285.9925
  19   1.0000     -10.508512      -285.9511
  20   1.0000      -7.980931      -217.1722
  21   1.0000      -7.980123      -217.1502
  22   1.0000      -7.980094      -217.1494
  23   1.0000      -7.976890      -217.0622
  24   1.0000      -7.976132      -217.0416
  25   1.0000      -7.976074      -217.0400
  26   1.0000      -7.975320      -217.0195
  27   1.0000      -7.974631      -217.0007
  28   1.0000      -7.974566      -216.9990
  29   1.0000      -4.588452      -124.8581
  30   1.0000      -3.201415       -87.1149
  31   1.0000      -3.200078       -87.0785
  32   1.0000      -3.199851       -87.0724
  33   1.0000      -1.437600       -39.1191
  34   1.0000      -1.148525       -31.2529
  35   1.0000      -1.091526       -29.7019
  36   1.0000      -1.059367       -28.8268
  37   1.0000      -1.053482       -28.6667
  38   1.0000      -1.050483       -28.5851
  39   1.0000      -1.030712       -28.0471
  40   1.0000      -1.000829       -27.2339
  41   1.0000      -0.975270       -26.5384
  42   1.0000      -0.933826       -25.4107
  43   1.0000      -0.917575       -24.9685
  44   1.0000      -0.917494       -24.9663
  45   1.0000      -0.910277       -24.7699
  46   1.0000      -0.907482       -24.6938
  47   1.0000      -0.906841       -24.6764
  48   1.0000      -0.801663       -21.8143
  49   1.0000      -0.747146       -20.3309
  50   1.0000      -0.696988       -18.9660
  51   1.0000      -0.688897       -18.7458
  52   1.0000      -0.682684       -18.5768
  53   1.0000      -0.667692       -18.1688
  54   1.0000      -0.635698       -17.2982
  55   1.0000      -0.622734       -16.9455
  56   1.0000      -0.604982       -16.4624
  57   1.0000      -0.595470       -16.2036
  58   1.0000      -0.582371       -15.8471
  59   1.0000      -0.575080       -15.6487
  60   1.0000      -0.564885       -15.3713
  61   1.0000      -0.559143       -15.2150
  62   1.0000      -0.553649       -15.0656
  63   1.0000      -0.544649       -14.8207
  64   1.0000      -0.537957       -14.6385
  65   1.0000      -0.527116       -14.3435
  66   1.0000      -0.509555       -13.8657
  67   1.0000      -0.491248       -13.3675
  68   1.0000      -0.470788       -12.8108
  69   1.0000      -0.467211       -12.7135
  70   1.0000      -0.439055       -11.9473
  71   1.0000      -0.434425       -11.8213
  72   1.0000      -0.432487       -11.7686
  73   1.0000      -0.423847       -11.5335
  74   1.0000      -0.422513       -11.4972
  75   1.0000      -0.421439       -11.4679
  76   1.0000      -0.372054       -10.1241
  77   0.0000       0.011489         0.3126
  78   0.0000       0.021716         0.5909
  79   0.0000       0.023153         0.6300
  80   0.0000       0.029516         0.8032
  81   0.0000       0.037798         1.0285

                 SPIN DOWN ORBITALS
  NO   OCC          E(Eh)            E(eV)
   0   1.0000    -261.561954     -7117.4626
   1   1.0000    -104.785950     -2851.3707
   2   1.0000    -104.781849     -2851.2591
   3   1.0000    -104.780398     -2851.2196
   4   1.0000     -32.071294      -872.7043
   5   1.0000     -27.549229      -749.6526
   6   1.0000     -27.549168      -749.6510
   7   1.0000     -27.548945      -749.6449
   8   1.0000     -20.589273      -560.2626
   9   1.0000     -11.412717      -310.5558
  10   1.0000     -11.302586      -307.5590
  11   1.0000     -11.269666      -306.6632
  12   1.0000     -11.264558      -306.5242
  13   1.0000     -11.259641      -306.3904
  14   1.0000     -11.259544      -306.3878
  15   1.0000     -11.242397      -305.9212
  16   1.0000     -11.242236      -305.9168
  17   1.0000     -10.512535      -286.0606
  18   1.0000     -10.508413      -285.9485
  19   1.0000     -10.506918      -285.9078
  20   1.0000      -7.978428      -217.1041
  21   1.0000      -7.977793      -217.0868
  22   1.0000      -7.977741      -217.0854
  23   1.0000      -7.974323      -216.9924
  24   1.0000      -7.973623      -216.9733
  25   1.0000      -7.973537      -216.9710
  26   1.0000      -7.972893      -216.9534
  27   1.0000      -7.972090      -216.9316
  28   1.0000      -7.972001      -216.9292
  29   1.0000      -4.146208      -112.8240
  30   1.0000      -2.667860       -72.5961
  31   1.0000      -2.667822       -72.5951
  32   1.0000      -2.667168       -72.5773
  33   1.0000      -1.427342       -38.8399
  34   1.0000      -1.147948       -31.2372
  35   1.0000      -1.088810       -29.6280
  36   1.0000      -1.044324       -28.4175
  37   1.0000      -1.032367       -28.0921
  38   1.0000      -1.030001       -28.0277
  39   1.0000      -1.028417       -27.9847
  40   1.0000      -1.000094       -27.2139
  41   1.0000      -0.975167       -26.5357
  42   1.0000      -0.910577       -24.7781
  43   1.0000      -0.815499       -22.1909
  44   1.0000      -0.747275       -20.3344
  45   1.0000      -0.699786       -19.0421
  46   1.0000      -0.688116       -18.7246
  47   1.0000      -0.681802       -18.5528
  48   1.0000      -0.667478       -18.1630
  49   1.0000      -0.635635       -17.2965
  50   1.0000      -0.622232       -16.9318
  51   1.0000      -0.604424       -16.4472
  52   1.0000      -0.595399       -16.2016
  53   1.0000      -0.582160       -15.8414
  54   1.0000      -0.573752       -15.6126
  55   1.0000      -0.564799       -15.3690
  56   1.0000      -0.558940       -15.2095
  57   1.0000      -0.553428       -15.0595
  58   1.0000      -0.542560       -14.7638
  59   1.0000      -0.536686       -14.6040
  60   1.0000      -0.516427       -14.0527
  61   1.0000      -0.509269       -13.8579
  62   1.0000      -0.491477       -13.3738
  63   1.0000      -0.477690       -12.9986
  64   1.0000      -0.475162       -12.9298
  65   1.0000      -0.447692       -12.1823
  66   1.0000      -0.444230       -12.0881
  67   1.0000      -0.441633       -12.0174
  68   1.0000      -0.426489       -11.6054
  69   1.0000      -0.422001       -11.4832
  70   1.0000      -0.407593       -11.0912
  71   1.0000      -0.370444       -10.0803
  72   0.0000       0.011476         0.3123
  73   0.0000       0.021692         0.5903
  74   0.0000       0.023136         0.6296
  75   0.0000       0.029342         0.7984
  76   0.0000       0.037319         1.0155

E(0)                                       ...  -3028.442495828
E(0)                                       ...  -3028.442495828
E(CORR)(strong-pairs)                      ...     -2.872600634
E(CORR)(weak-pairs)                        ...     -0.036308581
E(CORR)(corrected)                         ...     -2.908909216
E(TOT)                                     ...  -3031.351405043
E(CCSD(T))                                 ...  -3031.470954684
FINAL SINGLE POINT ENERGY     -3031.470954684209

DIPOLE MOMENT
-------------
                                X             Y             Z
Electronic contribution:     42.46581       5.09832       1.16140
Nuclear contribution   :    -46.45599      -6.05680      -1.69833
                        -----------------------------------------
Total Dipole Moment    :     -3.99018      -0.95849      -0.53692
                        -----------------------------------------
Magnitude (a.u.)       :      4.13866
Magnitude (Debye)      :     10.51965

Rotational constants in cm-1:     0.019136     0.010957     0.010308
Rotational constants in MHz :   573.696332   328.484172   309.018551

                             ****ORCA TERMINATED NORMALLY****
TOTAL RUN TIME: 0 days 18 hours 26 minutes 14 seconds 360 msec
