                         Program Version 4.1.2  - RELEASE  -
|  1> ! aug-cc-pVTZ aug-cc-pVTZ/C DLPNO-CCSD(T1) TightSCF NormalPNO UNO MiniPrint AutoAux
|  2> %pal nproc 10 end
|  3> %maxcore 20000
|  4> %mdci
|  5>      density none
|  6> end
|  7>
|  8> * xyz 0 6
|  9>  O     -0.23341700     -0.38663000     -0.63336200
| 10>  C     -1.31213800     -1.14182900     -0.29286700
| 11>  C     -2.29343300     -0.33270200      0.75826500
| 12>  C     -2.95815900      0.70122600     -0.00700300
| 13>  C     -4.34643400      0.53370000     -0.49025500
| 14> Fe      1.48219800      0.12380700     -0.09785100
| 15> Cl      2.82216200     -0.32557800     -1.77542400
| 16>  C     -2.18012600      1.85831000     -0.43355400
| 17> Cl      2.06135900     -0.92411700      1.76045800
| 18> Cl      1.26995000      2.31081000      0.29497400
| 19>  H     -3.02264300     -1.08233500      1.07897900
| 20>  H     -2.71039100      2.54708700     -1.09194400
| 21>  H     -1.70863000      2.39101500      0.40083900
| 22>  H     -1.28495400      1.41490600     -0.93460000
| 23>  H     -4.97163000      1.23853700      0.08327300
| 24>  H     -4.44483200      0.83449600     -1.53993600
| 25>  H     -4.73881300     -0.47285000     -0.33749000
| 26>  C     -1.47972500      0.18428000      1.95858100
| 27>  H     -2.13623400      0.72703900      2.64601800
| 28>  H     -1.03553900     -0.64848200      2.50349600
| 29>  H     -0.67414300      0.84966400      1.64962000
| 30>  C     -0.91172700     -2.43101700      0.45559200
| 31>  H     -1.79128300     -3.01355300      0.74628500
| 32>  H     -0.30878900     -3.02776600     -0.23565600
| 33>  H     -0.29656700     -2.22346400      1.33009700
| 34>  C     -2.08321900     -1.51453700     -1.57220400
| 35>  H     -1.44478900     -2.16346500     -2.17744000
| 36>  H     -3.01351500     -2.05063400     -1.35400000
| 37>  H     -2.30627800     -0.62967600     -2.17599300
| 38> *
| 39>
| 40>
| 41>                          ****END OF INPUT****

CARTESIAN COORDINATES (ANGSTROEM)
---------------------------------
  O     -0.233417   -0.386630   -0.633362
  C     -1.312138   -1.141829   -0.292867
  C     -2.293433   -0.332702    0.758265
  C     -2.958159    0.701226   -0.007003
  C     -4.346434    0.533700   -0.490255
  Fe     1.482198    0.123807   -0.097851
  Cl     2.822162   -0.325578   -1.775424
  C     -2.180126    1.858310   -0.433554
  Cl     2.061359   -0.924117    1.760458
  Cl     1.269950    2.310810    0.294974
  H     -3.022643   -1.082335    1.078979
  H     -2.710391    2.547087   -1.091944
  H     -1.708630    2.391015    0.400839
  H     -1.284954    1.414906   -0.934600
  H     -4.971630    1.238537    0.083273
  H     -4.444832    0.834496   -1.539936
  H     -4.738813   -0.472850   -0.337490
  C     -1.479725    0.184280    1.958581
  H     -2.136234    0.727039    2.646018
  H     -1.035539   -0.648482    2.503496
  H     -0.674143    0.849664    1.649620
  C     -0.911727   -2.431017    0.455592
  H     -1.791283   -3.013553    0.746285
  H     -0.308789   -3.027766   -0.235656
  H     -0.296567   -2.223464    1.330097
  C     -2.083219   -1.514537   -1.572204
  H     -1.444789   -2.163465   -2.177440
  H     -3.013515   -2.050634   -1.354000
  H     -2.306278   -0.629676   -2.175993

ORBITAL ENERGIES
----------------
                 SPIN UP ORBITALS
  NO   OCC          E(Eh)            E(eV)
   0   1.0000    -261.537288     -7116.7914
   1   1.0000    -104.767473     -2850.8679
   2   1.0000    -104.764794     -2850.7950
   3   1.0000    -104.757602     -2850.5993
   4   1.0000     -32.205077      -876.3447
   5   1.0000     -27.680937      -753.2366
   6   1.0000     -27.680880      -753.2350
   7   1.0000     -27.680561      -753.2264
   8   1.0000     -20.532352      -558.7137
   9   1.0000     -11.412470      -310.5491
  10   1.0000     -11.341821      -308.6266
  11   1.0000     -11.315726      -307.9166
  12   1.0000     -11.293091      -307.3006
  13   1.0000     -11.284488      -307.0665
  14   1.0000     -11.254582      -306.2527
  15   1.0000     -11.247045      -306.0477
  16   1.0000     -11.231710      -305.6304
  17   1.0000     -10.494096      -285.5589
  18   1.0000     -10.491521      -285.4888
  19   1.0000     -10.484204      -285.2897
  20   1.0000      -7.960999      -216.6298
  21   1.0000      -7.960142      -216.6065
  22   1.0000      -7.960054      -216.6041
  23   1.0000      -7.958373      -216.5583
  24   1.0000      -7.957573      -216.5366
  25   1.0000      -7.957561      -216.5362
  26   1.0000      -7.951046      -216.3589
  27   1.0000      -7.950335      -216.3396
  28   1.0000      -7.950212      -216.3363
  29   1.0000      -4.560415      -124.0952
  30   1.0000      -3.172907       -86.3392
  31   1.0000      -3.172456       -86.3269
  32   1.0000      -3.172219       -86.3205
  33   1.0000      -1.357946       -36.9516
  34   1.0000      -1.209444       -32.9106
  35   1.0000      -1.091019       -29.6881
  36   1.0000      -1.048931       -28.5429
  37   1.0000      -1.036806       -28.2129
  38   1.0000      -1.032654       -28.0999
  39   1.0000      -1.028382       -27.9837
  40   1.0000      -1.025780       -27.9129
  41   1.0000      -0.965221       -26.2650
  42   1.0000      -0.932744       -25.3812
  43   1.0000      -0.902707       -24.5639
  44   1.0000      -0.890284       -24.2259
  45   1.0000      -0.889290       -24.1988
  46   1.0000      -0.882153       -24.0046
  47   1.0000      -0.880771       -23.9670
  48   1.0000      -0.811544       -22.0832
  49   1.0000      -0.767796       -20.8928
  50   1.0000      -0.718808       -19.5598
  51   1.0000      -0.698510       -19.0074
  52   1.0000      -0.680144       -18.5077
  53   1.0000      -0.652415       -17.7531
  54   1.0000      -0.644502       -17.5378
  55   1.0000      -0.637204       -17.3392
  56   1.0000      -0.616167       -16.7668
  57   1.0000      -0.600686       -16.3455
  58   1.0000      -0.595486       -16.2040
  59   1.0000      -0.582062       -15.8387
  60   1.0000      -0.575316       -15.6551
  61   1.0000      -0.562613       -15.3095
  62   1.0000      -0.550720       -14.9858
  63   1.0000      -0.539770       -14.6879
  64   1.0000      -0.528870       -14.3913
  65   1.0000      -0.522187       -14.2094
  66   1.0000      -0.498324       -13.5601
  67   1.0000      -0.458952       -12.4887
  68   1.0000      -0.458291       -12.4707
  69   1.0000      -0.438318       -11.9272
  70   1.0000      -0.424708       -11.5569
  71   1.0000      -0.417602       -11.3635
  72   1.0000      -0.411789       -11.2054
  73   1.0000      -0.408188       -11.1074
  74   1.0000      -0.404405       -11.0044
  75   1.0000      -0.401331       -10.9208
  76   1.0000      -0.398620       -10.8470
  77   0.0000      -0.012802        -0.3484
  78   0.0000      -0.001360        -0.0370
  79   0.0000       0.015834         0.4309
  80   0.0000       0.016529         0.4498
  81   0.0000       0.026033         0.7084

                 SPIN DOWN ORBITALS
  NO   OCC          E(Eh)            E(eV)
   0   1.0000    -261.533762     -7116.6955
   1   1.0000    -104.766191     -2850.8330
   2   1.0000    -104.763400     -2850.7570
   3   1.0000    -104.756160     -2850.5600
   4   1.0000     -32.042974      -871.9336
   5   1.0000     -27.521105      -748.8873
   6   1.0000     -27.520967      -748.8836
   7   1.0000     -27.520346      -748.8667
   8   1.0000     -20.526442      -558.5529
   9   1.0000     -11.412483      -310.5495
  10   1.0000     -11.341633      -308.6215
  11   1.0000     -11.315726      -307.9166
  12   1.0000     -11.292991      -307.2979
  13   1.0000     -11.284486      -307.0665
  14   1.0000     -11.254619      -306.2537
  15   1.0000     -11.246933      -306.0446
  16   1.0000     -11.231653      -305.6288
  17   1.0000     -10.492711      -285.5212
  18   1.0000     -10.490023      -285.4480
  19   1.0000     -10.482661      -285.2477
  20   1.0000      -7.958574      -216.5638
  21   1.0000      -7.958164      -216.5527
  22   1.0000      -7.958074      -216.5502
  23   1.0000      -7.955944      -216.4923
  24   1.0000      -7.955314      -216.4751
  25   1.0000      -7.955282      -216.4742
  26   1.0000      -7.948617      -216.2929
  27   1.0000      -7.947919      -216.2739
  28   1.0000      -7.947822      -216.2712
  29   1.0000      -4.118052      -112.0579
  30   1.0000      -2.640167       -71.8426
  31   1.0000      -2.639833       -71.8335
  32   1.0000      -2.638698       -71.8026
  33   1.0000      -1.342917       -36.5426
  34   1.0000      -1.208586       -32.8873
  35   1.0000      -1.088439       -29.6179
  36   1.0000      -1.047888       -28.5145
  37   1.0000      -1.027557       -27.9612
  38   1.0000      -1.022866       -27.8336
  39   1.0000      -1.012820       -27.5602
  40   1.0000      -1.005119       -27.3507
  41   1.0000      -0.964602       -26.2482
  42   1.0000      -0.932573       -25.3766
  43   1.0000      -0.815643       -22.1948
  44   1.0000      -0.775674       -21.1072
  45   1.0000      -0.719466       -19.5777
  46   1.0000      -0.698684       -19.0121
  47   1.0000      -0.680189       -18.5089
  48   1.0000      -0.653440       -17.7810
  49   1.0000      -0.645790       -17.5728
  50   1.0000      -0.635269       -17.2866
  51   1.0000      -0.616135       -16.7659
  52   1.0000      -0.600571       -16.3424
  53   1.0000      -0.595242       -16.1974
  54   1.0000      -0.581336       -15.8190
  55   1.0000      -0.574090       -15.6218
  56   1.0000      -0.561915       -15.2905
  57   1.0000      -0.550726       -14.9860
  58   1.0000      -0.539834       -14.6896
  59   1.0000      -0.526698       -14.3322
  60   1.0000      -0.516937       -14.0666
  61   1.0000      -0.492140       -13.3918
  62   1.0000      -0.459761       -12.5107
  63   1.0000      -0.455305       -12.3895
  64   1.0000      -0.443697       -12.0736
  65   1.0000      -0.432792       -11.7769
  66   1.0000      -0.427191       -11.6245
  67   1.0000      -0.423031       -11.5113
  68   1.0000      -0.421813       -11.4781
  69   1.0000      -0.400946       -10.9103
  70   1.0000      -0.392527       -10.6812
  71   1.0000      -0.387918       -10.5558
  72   0.0000      -0.013086        -0.3561
  73   0.0000      -0.001361        -0.0370
  74   0.0000       0.015826         0.4306
  75   0.0000       0.016511         0.4493
  76   0.0000       0.026049         0.7088

E(0)                                       ...  -3028.423213085
E(0)                                       ...  -3028.423213085
E(CORR)(strong-pairs)                      ...     -2.873603727
E(CORR)(weak-pairs)                        ...     -0.034581518
E(CORR)(corrected)                         ...     -2.908185245
E(TOT)                                     ...  -3031.331398330
E(CCSD(T))                                 ...  -3031.450204663
FINAL SINGLE POINT ENERGY     -3031.450204662631

DIPOLE MOMENT
-------------
                                X             Y             Z
Electronic contribution:     42.20163       7.06713      -0.47972
Nuclear contribution   :    -48.53021      -7.04086       0.53509
                        -----------------------------------------
Total Dipole Moment    :     -6.32858       0.02627       0.05537
                        -----------------------------------------
Magnitude (a.u.)       :      6.32888
Magnitude (Debye)      :     16.08673

Rotational constants in cm-1:     0.020961     0.010278     0.009761
Rotational constants in MHz :   628.380808   308.121569   292.623551

                             ****ORCA TERMINATED NORMALLY****
TOTAL RUN TIME: 0 days 20 hours 40 minutes 31 seconds 202 msec
