                         Program Version 4.1.2  - RELEASE  -
|  1> ! aug-cc-pVTZ aug-cc-pVTZ/C DLPNO-CCSD(T1) TightSCF NormalPNO UNO MiniPrint AutoAux
|  2> %pal nproc 10 end
|  3> %maxcore 20000
|  4> %mdci
|  5>      density none
|  6> end
|  7>
|  8> * xyz 0 6
|  9>  O     -0.27944800     -0.23292500     -0.79775000
| 10>  C     -1.13876000     -1.16066200     -0.63752300
| 11>  C     -2.90572200     -0.20294300      0.48079000
| 12>  C     -2.54474600      0.96326900     -0.11945700
| 13>  C     -3.03358100      1.33836700     -1.48580800
| 14> Fe      1.44397500      0.13023900      0.00089800
| 15> Cl      2.04865800      2.03869800     -0.87128000
| 16>  C     -1.63922000      1.97005600      0.51214500
| 17> Cl      2.62987000     -1.61284200     -0.59800700
| 18> Cl      1.15822500      0.22211700      2.18693300
| 19>  H     -3.65039500     -0.80978600     -0.03138100
| 20>  H     -2.20087500      2.89766900      0.68832100
| 21>  H     -1.20726000      1.64571200      1.45743200
| 22>  H     -0.82348200      2.22897700     -0.17396600
| 23>  H     -3.51681400      2.32259700     -1.44076000
| 24>  H     -2.18766100      1.44218500     -2.17815000
| 25>  H     -3.75378400      0.62460400     -1.89215900
| 26>  C     -2.74327000     -0.48929200      1.95480600
| 27>  H     -3.51964300      0.04517500      2.51750000
| 28>  H     -2.86834300     -1.55282200      2.17185900
| 29>  H     -1.77510800     -0.17409500      2.35044100
| 30>  C     -0.89220000     -2.21977400      0.40314600
| 31>  H     -1.76429700     -2.85405000      0.56725500
| 32>  H     -0.08255200     -2.84101000     -0.00687200
| 33>  H     -0.53478800     -1.80345400      1.34411000
| 34>  C     -1.87087500     -1.61084000     -1.87753600
| 35>  H     -1.17812700     -2.29142700     -2.39195900
| 36>  H     -2.78370500     -2.16487900     -1.65319000
| 37>  H     -2.07550000     -0.78283600     -2.55319700
| 38> *
| 39>
| 40>
| 41>                          ****END OF INPUT****

CARTESIAN COORDINATES (ANGSTROEM)
---------------------------------
  O     -0.279448   -0.232925   -0.797750
  C     -1.138760   -1.160662   -0.637523
  C     -2.905722   -0.202943    0.480790
  C     -2.544746    0.963269   -0.119457
  C     -3.033581    1.338367   -1.485808
  Fe     1.443975    0.130239    0.000898
  Cl     2.048658    2.038698   -0.871280
  C     -1.639220    1.970056    0.512145
  Cl     2.629870   -1.612842   -0.598007
  Cl     1.158225    0.222117    2.186933
  H     -3.650395   -0.809786   -0.031381
  H     -2.200875    2.897669    0.688321
  H     -1.207260    1.645712    1.457432
  H     -0.823482    2.228977   -0.173966
  H     -3.516814    2.322597   -1.440760
  H     -2.187661    1.442185   -2.178150
  H     -3.753784    0.624604   -1.892159
  C     -2.743270   -0.489292    1.954806
  H     -3.519643    0.045175    2.517500
  H     -2.868343   -1.552822    2.171859
  H     -1.775108   -0.174095    2.350441
  C     -0.892200   -2.219774    0.403146
  H     -1.764297   -2.854050    0.567255
  H     -0.082552   -2.841010   -0.006872
  H     -0.534788   -1.803454    1.344110
  C     -1.870875   -1.610840   -1.877536
  H     -1.178127   -2.291427   -2.391959
  H     -2.783705   -2.164879   -1.653190
  H     -2.075500   -0.782836   -2.553197

ORBITAL ENERGIES
----------------
                 SPIN UP ORBITALS
  NO   OCC          E(Eh)            E(eV)
   0   1.0000    -261.567565     -7117.6153
   1   1.0000    -104.788488     -2851.4397
   2   1.0000    -104.784714     -2851.3370
   3   1.0000    -104.783466     -2851.3031
   4   1.0000     -32.235363      -877.1688
   5   1.0000     -27.711651      -754.0724
   6   1.0000     -27.710815      -754.0496
   7   1.0000     -27.710634      -754.0447
   8   1.0000     -20.595892      -560.4427
   9   1.0000     -11.415487      -310.6312
  10   1.0000     -11.296581      -307.3956
  11   1.0000     -11.271258      -306.7065
  12   1.0000     -11.265222      -306.5423
  13   1.0000     -11.256507      -306.3051
  14   1.0000     -11.255225      -306.2702
  15   1.0000     -11.243233      -305.9439
  16   1.0000     -11.239414      -305.8400
  17   1.0000     -10.515169      -286.1323
  18   1.0000     -10.511381      -286.0292
  19   1.0000     -10.510086      -285.9940
  20   1.0000      -7.982026      -217.2020
  21   1.0000      -7.981221      -217.1801
  22   1.0000      -7.981184      -217.1791
  23   1.0000      -7.978248      -217.0992
  24   1.0000      -7.977477      -217.0782
  25   1.0000      -7.977416      -217.0765
  26   1.0000      -7.976887      -217.0621
  27   1.0000      -7.976205      -217.0436
  28   1.0000      -7.976147      -217.0420
  29   1.0000      -4.590419      -124.9117
  30   1.0000      -3.203375       -87.1683
  31   1.0000      -3.202032       -87.1317
  32   1.0000      -3.201803       -87.1255
  33   1.0000      -1.441834       -39.2343
  34   1.0000      -1.145128       -31.1605
  35   1.0000      -1.093800       -29.7638
  36   1.0000      -1.060646       -28.8617
  37   1.0000      -1.054871       -28.7045
  38   1.0000      -1.052125       -28.6298
  39   1.0000      -1.029489       -28.0138
  40   1.0000      -1.002859       -27.2892
  41   1.0000      -0.971713       -26.4417
  42   1.0000      -0.935387       -25.4532
  43   1.0000      -0.919490       -25.0206
  44   1.0000      -0.919428       -25.0189
  45   1.0000      -0.909757       -24.7557
  46   1.0000      -0.909022       -24.7358
  47   1.0000      -0.908311       -24.7164
  48   1.0000      -0.803179       -21.8556
  49   1.0000      -0.743741       -20.2382
  50   1.0000      -0.699806       -19.0427
  51   1.0000      -0.691425       -18.8146
  52   1.0000      -0.684356       -18.6223
  53   1.0000      -0.666074       -18.1248
  54   1.0000      -0.633286       -17.2326
  55   1.0000      -0.622079       -16.9276
  56   1.0000      -0.604880       -16.4596
  57   1.0000      -0.596869       -16.2416
  58   1.0000      -0.583198       -15.8696
  59   1.0000      -0.574590       -15.6354
  60   1.0000      -0.563530       -15.3344
  61   1.0000      -0.557421       -15.1682
  62   1.0000      -0.551153       -14.9976
  63   1.0000      -0.547852       -14.9078
  64   1.0000      -0.537357       -14.6222
  65   1.0000      -0.528071       -14.3695
  66   1.0000      -0.506703       -13.7881
  67   1.0000      -0.493277       -13.4228
  68   1.0000      -0.471864       -12.8401
  69   1.0000      -0.468932       -12.7603
  70   1.0000      -0.440419       -11.9844
  71   1.0000      -0.435570       -11.8525
  72   1.0000      -0.433812       -11.8046
  73   1.0000      -0.425041       -11.5660
  74   1.0000      -0.423912       -11.5352
  75   1.0000      -0.422844       -11.5062
  76   1.0000      -0.369332       -10.0500
  77   0.0000       0.011922         0.3244
  78   0.0000       0.022236         0.6051
  79   0.0000       0.023289         0.6337
  80   0.0000       0.030102         0.8191
  81   0.0000       0.038432         1.0458

                 SPIN DOWN ORBITALS
  NO   OCC          E(Eh)            E(eV)
   0   1.0000    -261.564001     -7117.5183
   1   1.0000    -104.787055     -2851.4007
   2   1.0000    -104.783195     -2851.2957
   3   1.0000    -104.781963     -2851.2622
   4   1.0000     -32.073325      -872.7595
   5   1.0000     -27.551251      -749.7077
   6   1.0000     -27.551202      -749.7063
   7   1.0000     -27.550988      -749.7005
   8   1.0000     -20.591889      -560.3338
   9   1.0000     -11.415402      -310.6289
  10   1.0000     -11.296478      -307.3928
  11   1.0000     -11.271146      -306.7035
  12   1.0000     -11.265209      -306.5419
  13   1.0000     -11.256496      -306.3048
  14   1.0000     -11.255238      -306.2706
  15   1.0000     -11.243232      -305.9439
  16   1.0000     -11.239447      -305.8409
  17   1.0000     -10.513633      -286.0905
  18   1.0000     -10.509757      -285.9850
  19   1.0000     -10.508487      -285.9505
  20   1.0000      -7.979528      -217.1340
  21   1.0000      -7.978887      -217.1166
  22   1.0000      -7.978836      -217.1152
  23   1.0000      -7.975654      -217.0286
  24   1.0000      -7.974971      -217.0100
  25   1.0000      -7.974883      -217.0076
  26   1.0000      -7.974469      -216.9963
  27   1.0000      -7.973646      -216.9739
  28   1.0000      -7.973561      -216.9716
  29   1.0000      -4.148185      -112.8778
  30   1.0000      -2.669805       -72.6491
  31   1.0000      -2.669788       -72.6486
  32   1.0000      -2.669140       -72.6310
  33   1.0000      -1.431782       -38.9608
  34   1.0000      -1.144605       -31.1463
  35   1.0000      -1.091181       -29.6925
  36   1.0000      -1.045604       -28.4523
  37   1.0000      -1.033318       -28.1180
  38   1.0000      -1.030330       -28.0367
  39   1.0000      -1.028811       -27.9954
  40   1.0000      -1.002063       -27.2675
  41   1.0000      -0.971607       -26.4388
  42   1.0000      -0.909392       -24.7458
  43   1.0000      -0.816470       -22.2173
  44   1.0000      -0.743843       -20.2410
  45   1.0000      -0.702557       -19.1176
  46   1.0000      -0.690710       -18.7952
  47   1.0000      -0.683359       -18.5951
  48   1.0000      -0.665874       -18.1194
  49   1.0000      -0.633214       -17.2306
  50   1.0000      -0.621571       -16.9138
  51   1.0000      -0.604374       -16.4459
  52   1.0000      -0.596805       -16.2399
  53   1.0000      -0.582972       -15.8635
  54   1.0000      -0.573539       -15.6068
  55   1.0000      -0.563235       -15.3264
  56   1.0000      -0.557255       -15.1637
  57   1.0000      -0.550878       -14.9901
  58   1.0000      -0.545506       -14.8440
  59   1.0000      -0.536165       -14.5898
  60   1.0000      -0.517399       -14.0791
  61   1.0000      -0.506525       -13.7833
  62   1.0000      -0.493670       -13.4334
  63   1.0000      -0.479000       -13.0343
  64   1.0000      -0.476858       -12.9760
  65   1.0000      -0.448545       -12.2055
  66   1.0000      -0.445546       -12.1239
  67   1.0000      -0.442934       -12.0528
  68   1.0000      -0.427339       -11.6285
  69   1.0000      -0.423680       -11.5289
  70   1.0000      -0.408807       -11.1242
  71   1.0000      -0.367940       -10.0122
  72   0.0000       0.011909         0.3241
  73   0.0000       0.022211         0.6044
  74   0.0000       0.023270         0.6332
  75   0.0000       0.030003         0.8164
  76   0.0000       0.038174         1.0388

E(0)                                       ...  -3028.443920040
E(0)                                       ...  -3028.443920040
E(CORR)(strong-pairs)                      ...     -2.872306652
E(CORR)(weak-pairs)                        ...     -0.036400848
E(CORR)(corrected)                         ...     -2.908707500
E(TOT)                                     ...  -3031.352627540
E(CCSD(T))                                 ...  -3031.471934145
FINAL SINGLE POINT ENERGY     -3031.471934145355

DIPOLE MOMENT
-------------
                                X             Y             Z
Electronic contribution:     42.20945       4.34178       1.59383
Nuclear contribution   :    -46.05844      -5.29598      -2.18474
                        -----------------------------------------
Total Dipole Moment    :     -3.84899      -0.95420      -0.59091
                        -----------------------------------------
Magnitude (a.u.)       :      4.00929
Magnitude (Debye)      :     10.19081

Rotational constants in cm-1:     0.019075     0.011105     0.010446
Rotational constants in MHz :   571.863527   332.915928   313.170904

                             ****ORCA TERMINATED NORMALLY****
TOTAL RUN TIME: 0 days 18 hours 33 minutes 48 seconds 928 msec
