                         Program Version 4.1.2  - RELEASE  -
|  1> ! aug-cc-pVTZ aug-cc-pVTZ/C DLPNO-CCSD(T1) TightSCF NormalPNO UNO MiniPrint AutoAux
|  2> %pal nproc 10 end
|  3> %maxcore 20000
|  4> %mdci
|  5>      density none
|  6> end
|  7>
|  8> * xyz 0 6
|  9>  O      0.20074800      0.46794700     -0.84367500
| 10>  C      0.89185400      1.47894400     -0.60622000
| 11>  C      3.22015100     -0.04365000      0.51660300
| 12>  C      2.62360300     -0.93100200     -0.30038700
| 13>  C      2.97935100     -1.00796100     -1.76263200
| 14> Fe     -1.46957500     -0.18036300      0.02966700
| 15> Cl     -2.06728000     -1.92120900     -1.12104500
| 16>  C      1.66801200     -1.99838600      0.15382700
| 17> Cl     -2.72722900      1.59182600     -0.23544300
| 18> Cl     -1.04730400     -0.56475000      2.14397000
| 19>  H      3.95972300      0.62519000      0.07264300
| 20>  H      2.16019000     -2.97902100      0.09514600
| 21>  H      1.31099900     -1.86488200      1.17485400
| 22>  H      0.79944800     -2.05784600     -0.51207800
| 23>  H      3.42219900     -1.98570700     -1.99447900
| 24>  H      2.08178000     -0.92117800     -2.38837900
| 25>  H      3.69660600     -0.23638100     -2.05919200
| 26>  C      3.06012400      0.07935300      2.00632300
| 27>  H      3.91781000     -0.36845600      2.52707300
| 28>  H      3.02506600      1.13070900      2.31659300
| 29>  H      2.15645700     -0.40982900      2.37862000
| 30>  C      0.76918100      2.22372400      0.68379000
| 31>  H      1.62851200      2.87225000      0.86142400
| 32>  H     -0.13398200      2.84725900      0.60973900
| 33>  H      0.62218600      1.53876000      1.52057500
| 34>  C      1.71436900      2.06940500     -1.70613400
| 35>  H      1.22843900      3.00934000     -2.00491200
| 36>  H      2.71701500      2.32035600     -1.35197200
| 37>  H      1.76146900      1.40300800     -2.56582500
| 38> *
| 39>
| 40>
| 41>                          ****END OF INPUT****

CARTESIAN COORDINATES (ANGSTROEM)
---------------------------------
  O      0.200748    0.467947   -0.843675
  C      0.891854    1.478944   -0.606220
  C      3.220151   -0.043650    0.516603
  C      2.623603   -0.931002   -0.300387
  C      2.979351   -1.007961   -1.762632
  Fe    -1.469575   -0.180363    0.029667
  Cl    -2.067280   -1.921209   -1.121045
  C      1.668012   -1.998386    0.153827
  Cl    -2.727229    1.591826   -0.235443
  Cl    -1.047304   -0.564750    2.143970
  H      3.959723    0.625190    0.072643
  H      2.160190   -2.979021    0.095146
  H      1.310999   -1.864882    1.174854
  H      0.799448   -2.057846   -0.512078
  H      3.422199   -1.985707   -1.994479
  H      2.081780   -0.921178   -2.388379
  H      3.696606   -0.236381   -2.059192
  C      3.060124    0.079353    2.006323
  H      3.917810   -0.368456    2.527073
  H      3.025066    1.130709    2.316593
  H      2.156457   -0.409829    2.378620
  C      0.769181    2.223724    0.683790
  H      1.628512    2.872250    0.861424
  H     -0.133982    2.847259    0.609739
  H      0.622186    1.538760    1.520575
  C      1.714369    2.069405   -1.706134
  H      1.228439    3.009340   -2.004912
  H      2.717015    2.320356   -1.351972
  H      1.761469    1.403008   -2.565825

ORBITAL ENERGIES
----------------
                 SPIN UP ORBITALS
  NO   OCC          E(Eh)            E(eV)
   0   1.0000    -261.580389     -7117.9642
   1   1.0000    -104.796510     -2851.6580
   2   1.0000    -104.793694     -2851.5814
   3   1.0000    -104.791931     -2851.5334
   4   1.0000     -32.248005      -877.5128
   5   1.0000     -27.724580      -754.4242
   6   1.0000     -27.723295      -754.3892
   7   1.0000     -27.723104      -754.3840
   8   1.0000     -20.629752      -561.3641
   9   1.0000     -11.422635      -310.8257
  10   1.0000     -11.280660      -306.9624
  11   1.0000     -11.274473      -306.7940
  12   1.0000     -11.255131      -306.2677
  13   1.0000     -11.237154      -305.7785
  14   1.0000     -11.236183      -305.7521
  15   1.0000     -11.233505      -305.6792
  16   1.0000     -11.224114      -305.4237
  17   1.0000     -10.523251      -286.3522
  18   1.0000     -10.520411      -286.2749
  19   1.0000     -10.518592      -286.2254
  20   1.0000      -7.990066      -217.4208
  21   1.0000      -7.989347      -217.4012
  22   1.0000      -7.989283      -217.3994
  23   1.0000      -7.987315      -217.3459
  24   1.0000      -7.986497      -217.3236
  25   1.0000      -7.986444      -217.3222
  26   1.0000      -7.985368      -217.2929
  27   1.0000      -7.984721      -217.2753
  28   1.0000      -7.984684      -217.2743
  29   1.0000      -4.602701      -125.2459
  30   1.0000      -3.215875       -87.5084
  31   1.0000      -3.213999       -87.4574
  32   1.0000      -3.213916       -87.4551
  33   1.0000      -1.473797       -40.1041
  34   1.0000      -1.116391       -30.3786
  35   1.0000      -1.104960       -30.0675
  36   1.0000      -1.070286       -29.1240
  37   1.0000      -1.064483       -28.9660
  38   1.0000      -1.061972       -28.8977
  39   1.0000      -1.020672       -27.7739
  40   1.0000      -1.007759       -27.4225
  41   1.0000      -0.952002       -25.9053
  42   1.0000      -0.945838       -25.7376
  43   1.0000      -0.931513       -25.3478
  44   1.0000      -0.931362       -25.3436
  45   1.0000      -0.920307       -25.0428
  46   1.0000      -0.919670       -25.0255
  47   1.0000      -0.889197       -24.1963
  48   1.0000      -0.818722       -22.2786
  49   1.0000      -0.721956       -19.6454
  50   1.0000      -0.717359       -19.5203
  51   1.0000      -0.707717       -19.2580
  52   1.0000      -0.685404       -18.6508
  53   1.0000      -0.647649       -17.6234
  54   1.0000      -0.621952       -16.9242
  55   1.0000      -0.614603       -16.7242
  56   1.0000      -0.603156       -16.4127
  57   1.0000      -0.600134       -16.3305
  58   1.0000      -0.586938       -15.9714
  59   1.0000      -0.579879       -15.7793
  60   1.0000      -0.561317       -15.2742
  61   1.0000      -0.548240       -14.9184
  62   1.0000      -0.546048       -14.8587
  63   1.0000      -0.537383       -14.6229
  64   1.0000      -0.534157       -14.5352
  65   1.0000      -0.521101       -14.1799
  66   1.0000      -0.507636       -13.8135
  67   1.0000      -0.486589       -13.2408
  68   1.0000      -0.479987       -13.0611
  69   1.0000      -0.478362       -13.0169
  70   1.0000      -0.449978       -12.2445
  71   1.0000      -0.443373       -12.0648
  72   1.0000      -0.441609       -12.0168
  73   1.0000      -0.433082       -11.7848
  74   1.0000      -0.431922       -11.7532
  75   1.0000      -0.430763       -11.7217
  76   1.0000      -0.353085        -9.6079
  77   0.0000       0.012734         0.3465
  78   0.0000       0.024060         0.6547
  79   0.0000       0.025067         0.6821
  80   0.0000       0.031041         0.8447
  81   0.0000       0.039643         1.0787

                 SPIN DOWN ORBITALS
  NO   OCC          E(Eh)            E(eV)
   0   1.0000    -261.576800     -7117.8666
   1   1.0000    -104.794997     -2851.6168
   2   1.0000    -104.792125     -2851.5387
   3   1.0000    -104.790344     -2851.4902
   4   1.0000     -32.086053      -873.1059
   5   1.0000     -27.564027      -750.0553
   6   1.0000     -27.563859      -750.0507
   7   1.0000     -27.563803      -750.0492
   8   1.0000     -20.626527      -561.2763
   9   1.0000     -11.422566      -310.8238
  10   1.0000     -11.280561      -306.9597
  11   1.0000     -11.274469      -306.7939
  12   1.0000     -11.255186      -306.2692
  13   1.0000     -11.237085      -305.7766
  14   1.0000     -11.236175      -305.7519
  15   1.0000     -11.233511      -305.6794
  16   1.0000     -11.224120      -305.4238
  17   1.0000     -10.521637      -286.3083
  18   1.0000     -10.518736      -286.2294
  19   1.0000     -10.516909      -286.1796
  20   1.0000      -7.987575      -217.3530
  21   1.0000      -7.986780      -217.3313
  22   1.0000      -7.986744      -217.3303
  23   1.0000      -7.984588      -217.2717
  24   1.0000      -7.983937      -217.2540
  25   1.0000      -7.983841      -217.2514
  26   1.0000      -7.982911      -217.2260
  27   1.0000      -7.981969      -217.2004
  28   1.0000      -7.981891      -217.1983
  29   1.0000      -4.160720      -113.2190
  30   1.0000      -2.682267       -72.9882
  31   1.0000      -2.682172       -72.9856
  32   1.0000      -2.681807       -72.9757
  33   1.0000      -1.465986       -39.8915
  34   1.0000      -1.116085       -30.3702
  35   1.0000      -1.102900       -30.0114
  36   1.0000      -1.054425       -28.6924
  37   1.0000      -1.041761       -28.3477
  38   1.0000      -1.038866       -28.2690
  39   1.0000      -1.019629       -27.7455
  40   1.0000      -1.007620       -27.4187
  41   1.0000      -0.951756       -25.8986
  42   1.0000      -0.889264       -24.1981
  43   1.0000      -0.830352       -22.5950
  44   1.0000      -0.722222       -19.6527
  45   1.0000      -0.718526       -19.5521
  46   1.0000      -0.707023       -19.2391
  47   1.0000      -0.684899       -18.6370
  48   1.0000      -0.647615       -17.6225
  49   1.0000      -0.621356       -16.9080
  50   1.0000      -0.614513       -16.7217
  51   1.0000      -0.603073       -16.4104
  52   1.0000      -0.600051       -16.3282
  53   1.0000      -0.586651       -15.9636
  54   1.0000      -0.578556       -15.7433
  55   1.0000      -0.560365       -15.2483
  56   1.0000      -0.546236       -14.8638
  57   1.0000      -0.544945       -14.8287
  58   1.0000      -0.534410       -14.5420
  59   1.0000      -0.527210       -14.3461
  60   1.0000      -0.520945       -14.1756
  61   1.0000      -0.509186       -13.8556
  62   1.0000      -0.488913       -13.3040
  63   1.0000      -0.486553       -13.2398
  64   1.0000      -0.484551       -13.1853
  65   1.0000      -0.456665       -12.4265
  66   1.0000      -0.453845       -12.3497
  67   1.0000      -0.450633       -12.2623
  68   1.0000      -0.433901       -11.8070
  69   1.0000      -0.432410       -11.7665
  70   1.0000      -0.415899       -11.3172
  71   1.0000      -0.352773        -9.5994
  72   0.0000       0.012717         0.3460
  73   0.0000       0.024035         0.6540
  74   0.0000       0.025023         0.6809
  75   0.0000       0.030988         0.8432
  76   0.0000       0.039568         1.0767

E(0)                                       ...  -3028.473855088
E(0)                                       ...  -3028.473855088
E(CORR)(strong-pairs)                      ...     -2.864613852
E(CORR)(weak-pairs)                        ...     -0.035448373
E(CORR)(corrected)                         ...     -2.900062224
E(TOT)                                     ...  -3031.373917312
E(CCSD(T))                                 ...  -3031.491326363
FINAL SINGLE POINT ENERGY     -3031.491326363227

DIPOLE MOMENT
-------------
                                X             Y             Z
Electronic contribution:    -43.57848      -4.94883       1.91318
Nuclear contribution   :     46.57444       6.64856      -2.47973
                        -----------------------------------------
Total Dipole Moment    :      2.99595       1.69973      -0.56656
                        -----------------------------------------
Magnitude (a.u.)       :      3.49082
Magnitude (Debye)      :      8.87295

Rotational constants in cm-1:     0.018540     0.010657     0.010031
Rotational constants in MHz :   555.803850   319.487657   300.734313

                             ****ORCA TERMINATED NORMALLY****
TOTAL RUN TIME: 0 days 16 hours 48 minutes 44 seconds 710 msec
