                         Program Version 4.1.2  - RELEASE  -
|  1> ! aug-cc-pVTZ aug-cc-pVTZ/C DLPNO-CCSD(T1) TightSCF NormalPNO UNO MiniPrint AutoAux
|  2> %pal nproc 10 end
|  3> %maxcore 20000
|  4> %mdci
|  5>      density none
|  6> end
|  7>
|  8> * xyz 0 6
|  9>  O      0.17993900      0.47607700     -0.86124100
| 10>  C      0.88448100      1.47772300     -0.62283200
| 11>  C      3.21098300     -0.01876600      0.53816200
| 12>  C      2.65209300     -0.92576000     -0.28395000
| 13>  C      3.03872100     -1.00408000     -1.73829200
| 14> Fe     -1.47760400     -0.18282100      0.02622100
| 15> Cl     -2.06377300     -1.93234100     -1.11718000
| 16>  C      1.69760600     -2.00064200      0.15438600
| 17> Cl     -2.75173100      1.57839100     -0.22787100
| 18> Cl     -1.03038700     -0.56523000      2.13601100
| 19>  H      3.94852000      0.65942300      0.10514200
| 20>  H      2.19005100     -2.98033800      0.08500500
| 21>  H      1.33618400     -1.87925500      1.17534000
| 22>  H      0.83090300     -2.05145800     -0.51531800
| 23>  H      3.50254300     -1.97520600     -1.95646600
| 24>  H      2.15263500     -0.93558000     -2.38270600
| 25>  H      3.74833400     -0.22168700     -2.02462100
| 26>  C      3.02048500      0.10927200      2.02393500
| 27>  H      3.87212400     -0.32883200      2.56257000
| 28>  H      2.97062600      1.16142700      2.32884900
| 29>  H      2.11408300     -0.38597100      2.38095400
| 30>  C      0.75873000      2.23259500      0.66107900
| 31>  H      1.62001700      2.87820800      0.83929300
| 32>  H     -0.14128800      2.85942600      0.57682700
| 33>  H      0.60318700      1.55501500      1.50230700
| 34>  C      1.71807200      2.05333800     -1.72249400
| 35>  H      1.23277700      2.98747700     -2.04021700
| 36>  H      2.71678000      2.31145500     -1.36304600
| 37>  H      1.77386200      1.37459600     -2.57200900
| 38> *
| 39>
| 40>
| 41>                          ****END OF INPUT****

CARTESIAN COORDINATES (ANGSTROEM)
---------------------------------
  O      0.179939    0.476077   -0.861241
  C      0.884481    1.477723   -0.622832
  C      3.210983   -0.018766    0.538162
  C      2.652093   -0.925760   -0.283950
  C      3.038721   -1.004080   -1.738292
  Fe    -1.477604   -0.182821    0.026221
  Cl    -2.063773   -1.932341   -1.117180
  C      1.697606   -2.000642    0.154386
  Cl    -2.751731    1.578391   -0.227871
  Cl    -1.030387   -0.565230    2.136011
  H      3.948520    0.659423    0.105142
  H      2.190051   -2.980338    0.085005
  H      1.336184   -1.879255    1.175340
  H      0.830903   -2.051458   -0.515318
  H      3.502543   -1.975206   -1.956466
  H      2.152635   -0.935580   -2.382706
  H      3.748334   -0.221687   -2.024621
  C      3.020485    0.109272    2.023935
  H      3.872124   -0.328832    2.562570
  H      2.970626    1.161427    2.328849
  H      2.114083   -0.385971    2.380954
  C      0.758730    2.232595    0.661079
  H      1.620017    2.878208    0.839293
  H     -0.141288    2.859426    0.576827
  H      0.603187    1.555015    1.502307
  C      1.718072    2.053338   -1.722494
  H      1.232777    2.987477   -2.040217
  H      2.716780    2.311455   -1.363046
  H      1.773862    1.374596   -2.572009

ORBITAL ENERGIES
----------------
                 SPIN UP ORBITALS
  NO   OCC          E(Eh)            E(eV)
   0   1.0000    -261.580122     -7117.9570
   1   1.0000    -104.796481     -2851.6572
   2   1.0000    -104.793600     -2851.5788
   3   1.0000    -104.791743     -2851.5283
   4   1.0000     -32.247750      -877.5059
   5   1.0000     -27.724322      -754.4172
   6   1.0000     -27.723038      -754.3822
   7   1.0000     -27.722846      -754.3770
   8   1.0000     -20.630051      -561.3722
   9   1.0000     -11.422536      -310.8230
  10   1.0000     -11.280569      -306.9599
  11   1.0000     -11.274449      -306.7934
  12   1.0000     -11.255434      -306.2759
  13   1.0000     -11.237733      -305.7943
  14   1.0000     -11.236653      -305.7649
  15   1.0000     -11.233380      -305.6758
  16   1.0000     -11.224269      -305.4279
  17   1.0000     -10.523226      -286.3515
  18   1.0000     -10.520314      -286.2723
  19   1.0000     -10.518404      -286.2203
  20   1.0000      -7.990042      -217.4201
  21   1.0000      -7.989320      -217.4005
  22   1.0000      -7.989258      -217.3988
  23   1.0000      -7.987213      -217.3431
  24   1.0000      -7.986403      -217.3211
  25   1.0000      -7.986351      -217.3197
  26   1.0000      -7.985180      -217.2878
  27   1.0000      -7.984534      -217.2702
  28   1.0000      -7.984496      -217.2692
  29   1.0000      -4.602458      -125.2392
  30   1.0000      -3.215636       -87.5019
  31   1.0000      -3.213760       -87.4508
  32   1.0000      -3.213668       -87.4483
  33   1.0000      -1.473637       -40.0997
  34   1.0000      -1.116671       -30.3862
  35   1.0000      -1.104661       -30.0594
  36   1.0000      -1.070216       -29.1220
  37   1.0000      -1.064394       -28.9636
  38   1.0000      -1.061770       -28.8922
  39   1.0000      -1.020715       -27.7751
  40   1.0000      -1.007870       -27.4255
  41   1.0000      -0.952066       -25.9070
  42   1.0000      -0.945762       -25.7355
  43   1.0000      -0.931271       -25.3412
  44   1.0000      -0.931121       -25.3371
  45   1.0000      -0.920087       -25.0368
  46   1.0000      -0.919460       -25.0198
  47   1.0000      -0.889398       -24.2018
  48   1.0000      -0.818696       -22.2779
  49   1.0000      -0.722102       -19.6494
  50   1.0000      -0.717379       -19.5209
  51   1.0000      -0.707495       -19.2519
  52   1.0000      -0.684970       -18.6390
  53   1.0000      -0.647860       -17.6292
  54   1.0000      -0.621748       -16.9186
  55   1.0000      -0.614720       -16.7274
  56   1.0000      -0.603468       -16.4212
  57   1.0000      -0.600037       -16.3278
  58   1.0000      -0.586836       -15.9686
  59   1.0000      -0.580143       -15.7865
  60   1.0000      -0.561360       -15.2754
  61   1.0000      -0.547742       -14.9048
  62   1.0000      -0.546063       -14.8591
  63   1.0000      -0.537705       -14.6317
  64   1.0000      -0.534406       -14.5419
  65   1.0000      -0.521237       -14.1836
  66   1.0000      -0.507626       -13.8132
  67   1.0000      -0.486714       -13.2442
  68   1.0000      -0.479912       -13.0591
  69   1.0000      -0.478400       -13.0179
  70   1.0000      -0.449876       -12.2418
  71   1.0000      -0.443281       -12.0623
  72   1.0000      -0.441498       -12.0138
  73   1.0000      -0.432946       -11.7811
  74   1.0000      -0.431867       -11.7517
  75   1.0000      -0.430669       -11.7191
  76   1.0000      -0.353563        -9.6209
  77   0.0000       0.012706         0.3458
  78   0.0000       0.024054         0.6545
  79   0.0000       0.025024         0.6810
  80   0.0000       0.031046         0.8448
  81   0.0000       0.039610         1.0778

                 SPIN DOWN ORBITALS
  NO   OCC          E(Eh)            E(eV)
   0   1.0000    -261.576532     -7117.8593
   1   1.0000    -104.794970     -2851.6161
   2   1.0000    -104.792030     -2851.5361
   3   1.0000    -104.790156     -2851.4851
   4   1.0000     -32.085795      -873.0989
   5   1.0000     -27.563766      -750.0482
   6   1.0000     -27.563602      -750.0437
   7   1.0000     -27.563544      -750.0422
   8   1.0000     -20.626801      -561.2838
   9   1.0000     -11.422473      -310.8213
  10   1.0000     -11.280468      -306.9571
  11   1.0000     -11.274444      -306.7932
  12   1.0000     -11.255483      -306.2772
  13   1.0000     -11.237672      -305.7926
  14   1.0000     -11.236646      -305.7647
  15   1.0000     -11.233385      -305.6760
  16   1.0000     -11.224275      -305.4281
  17   1.0000     -10.521613      -286.3077
  18   1.0000     -10.518639      -286.2267
  19   1.0000     -10.516720      -286.1745
  20   1.0000      -7.987550      -217.3523
  21   1.0000      -7.986758      -217.3307
  22   1.0000      -7.986722      -217.3298
  23   1.0000      -7.984497      -217.2692
  24   1.0000      -7.983835      -217.2512
  25   1.0000      -7.983740      -217.2486
  26   1.0000      -7.982721      -217.2209
  27   1.0000      -7.981780      -217.1953
  28   1.0000      -7.981701      -217.1931
  29   1.0000      -4.160476      -113.2123
  30   1.0000      -2.682017       -72.9814
  31   1.0000      -2.681941       -72.9793
  32   1.0000      -2.681563       -72.9691
  33   1.0000      -1.465781       -39.8859
  34   1.0000      -1.116363       -30.3778
  35   1.0000      -1.102586       -30.0029
  36   1.0000      -1.054343       -28.6901
  37   1.0000      -1.041681       -28.3456
  38   1.0000      -1.038677       -28.2638
  39   1.0000      -1.019673       -27.7467
  40   1.0000      -1.007731       -27.4218
  41   1.0000      -0.951861       -25.9014
  42   1.0000      -0.889461       -24.2035
  43   1.0000      -0.830497       -22.5990
  44   1.0000      -0.722340       -19.6559
  45   1.0000      -0.718581       -19.5536
  46   1.0000      -0.706800       -19.2330
  47   1.0000      -0.684456       -18.6250
  48   1.0000      -0.647826       -17.6282
  49   1.0000      -0.621143       -16.9022
  50   1.0000      -0.614637       -16.7251
  51   1.0000      -0.603381       -16.4188
  52   1.0000      -0.599966       -16.3259
  53   1.0000      -0.586545       -15.9607
  54   1.0000      -0.578748       -15.7485
  55   1.0000      -0.560457       -15.2508
  56   1.0000      -0.546017       -14.8579
  57   1.0000      -0.544688       -14.8217
  58   1.0000      -0.534580       -14.5467
  59   1.0000      -0.527494       -14.3538
  60   1.0000      -0.521081       -14.1793
  61   1.0000      -0.509330       -13.8596
  62   1.0000      -0.488902       -13.3037
  63   1.0000      -0.486410       -13.2359
  64   1.0000      -0.484649       -13.1880
  65   1.0000      -0.456626       -12.4254
  66   1.0000      -0.453723       -12.3464
  67   1.0000      -0.450506       -12.2589
  68   1.0000      -0.433866       -11.8061
  69   1.0000      -0.432285       -11.7631
  70   1.0000      -0.415820       -11.3150
  71   1.0000      -0.353264        -9.6128
  72   0.0000       0.012690         0.3453
  73   0.0000       0.024029         0.6539
  74   0.0000       0.024982         0.6798
  75   0.0000       0.030996         0.8434
  76   0.0000       0.039540         1.0759

E(0)                                       ...  -3028.474925365
E(0)                                       ...  -3028.474925365
E(CORR)(strong-pairs)                      ...     -2.864047924
E(CORR)(weak-pairs)                        ...     -0.035735046
E(CORR)(corrected)                         ...     -2.899782970
E(TOT)                                     ...  -3031.374708335
E(CCSD(T))                                 ...  -3031.492021001
FINAL SINGLE POINT ENERGY     -3031.492021001378

DIPOLE MOMENT
-------------
                                X             Y             Z
Electronic contribution:    -43.71962      -5.08797       1.87341
Nuclear contribution   :     46.72248       6.79357      -2.45082
                        -----------------------------------------
Total Dipole Moment    :      3.00285       1.70560      -0.57742
                        -----------------------------------------
Magnitude (a.u.)       :      3.50137
Magnitude (Debye)      :      8.89979

Rotational constants in cm-1:     0.018557     0.010606     0.009984
Rotational constants in MHz :   556.330389   317.966966   299.317828

                             ****ORCA TERMINATED NORMALLY****
TOTAL RUN TIME: 0 days 16 hours 34 minutes 8 seconds 14 msec
