                         Program Version 4.1.2  - RELEASE  -
|  1> ! aug-cc-pVTZ aug-cc-pVTZ/C DLPNO-CCSD(T1) TightSCF NormalPNO UNO MiniPrint AutoAux
|  2> %pal nproc 10 end
|  3> %maxcore 20000
|  4> %mdci
|  5>      density none
|  6> end
|  7>
|  8> * xyz 0 6
|  9>  O     -0.42420000     -0.16339000     -0.49257200
| 10>  C     -1.39119300     -1.22604700     -0.36241600
| 11>  C     -2.84563700     -0.09587600     -0.18977300
| 12>  C     -1.95294800      1.11010200     -0.28980800
| 13>  C     -1.85305900      1.82002900     -1.59268000
| 14> Fe      1.37466900      0.04962900      0.04535300
| 15> Cl      1.85476300      2.01090500     -0.85023700
| 16>  C     -1.56206100      1.86756900      0.92838000
| 17> Cl      2.43528100     -1.70522300     -0.73206700
| 18> Cl      1.36681300      0.15286000      2.25402100
| 19>  H     -3.43876300     -0.21578500     -1.09852100
| 20>  H     -2.42092900      2.50207100      1.19860700
| 21>  H     -1.34341800      1.21860100      1.77660900
| 22>  H     -0.70434900      2.51520400      0.73531800
| 23>  H     -2.65199500      2.57884600     -1.60699300
| 24>  H     -0.89203100      2.33090500     -1.69041500
| 25>  H     -2.00985100      1.14692400     -2.43723900
| 26>  C     -3.67596100     -0.28589100      1.06357600
| 27>  H     -4.45205200      0.48504600      1.14967100
| 28>  H     -4.18180400     -1.25549600      1.02672400
| 29>  H     -3.07420900     -0.25935200      1.97518100
| 30>  C     -1.17382700     -2.06362900      0.87166900
| 31>  H     -1.98771400     -2.78361000      1.00249000
| 32>  H     -0.23811800     -2.62535500      0.75539500
| 33>  H     -1.07974400     -1.45164700      1.77049600
| 34>  C     -1.47710500     -2.01310900     -1.64682500
| 35>  H     -0.51599800     -2.51454800     -1.81546600
| 36>  H     -2.26477800     -2.77180000     -1.59178300
| 37>  H     -1.66785300     -1.35732500     -2.50061000
| 38> *
| 39>
| 40>
| 41>                          ****END OF INPUT****

CARTESIAN COORDINATES (ANGSTROEM)
---------------------------------
  O     -0.424200   -0.163390   -0.492572
  C     -1.391193   -1.226047   -0.362416
  C     -2.845637   -0.095876   -0.189773
  C     -1.952948    1.110102   -0.289808
  C     -1.853059    1.820029   -1.592680
  Fe     1.374669    0.049629    0.045353
  Cl     1.854763    2.010905   -0.850237
  C     -1.562061    1.867569    0.928380
  Cl     2.435281   -1.705223   -0.732067
  Cl     1.366813    0.152860    2.254021
  H     -3.438763   -0.215785   -1.098521
  H     -2.420929    2.502071    1.198607
  H     -1.343418    1.218601    1.776609
  H     -0.704349    2.515204    0.735318
  H     -2.651995    2.578846   -1.606993
  H     -0.892031    2.330905   -1.690415
  H     -2.009851    1.146924   -2.437239
  C     -3.675961   -0.285891    1.063576
  H     -4.452052    0.485046    1.149671
  H     -4.181804   -1.255496    1.026724
  H     -3.074209   -0.259352    1.975181
  C     -1.173827   -2.063629    0.871669
  H     -1.987714   -2.783610    1.002490
  H     -0.238118   -2.625355    0.755395
  H     -1.079744   -1.451647    1.770496
  C     -1.477105   -2.013109   -1.646825
  H     -0.515998   -2.514548   -1.815466
  H     -2.264778   -2.771800   -1.591783
  H     -1.667853   -1.357325   -2.500610

ORBITAL ENERGIES
----------------
                 SPIN UP ORBITALS
  NO   OCC          E(Eh)            E(eV)
   0   1.0000    -261.552722     -7117.2114
   1   1.0000    -104.779619     -2851.1984
   2   1.0000    -104.777376     -2851.1373
   3   1.0000    -104.776582     -2851.1157
   4   1.0000     -32.220636      -876.7681
   5   1.0000     -27.696610      -753.6631
   6   1.0000     -27.696298      -753.6546
   7   1.0000     -27.696039      -753.6475
   8   1.0000     -20.567535      -559.6711
   9   1.0000     -11.397831      -310.1508
  10   1.0000     -11.352487      -308.9169
  11   1.0000     -11.289997      -307.2164
  12   1.0000     -11.274027      -306.7819
  13   1.0000     -11.271921      -306.7246
  14   1.0000     -11.259880      -306.3969
  15   1.0000     -11.240945      -305.8817
  16   1.0000     -11.238704      -305.8207
  17   1.0000     -10.506216      -285.8887
  18   1.0000     -10.504032      -285.8292
  19   1.0000     -10.503206      -285.8068
  20   1.0000      -7.973035      -216.9573
  21   1.0000      -7.972303      -216.9374
  22   1.0000      -7.972236      -216.9356
  23   1.0000      -7.970915      -216.8996
  24   1.0000      -7.970084      -216.8770
  25   1.0000      -7.970044      -216.8759
  26   1.0000      -7.970006      -216.8749
  27   1.0000      -7.969318      -216.8562
  28   1.0000      -7.969253      -216.8544
  29   1.0000      -4.575991      -124.5191
  30   1.0000      -3.188458       -86.7623
  31   1.0000      -3.188112       -86.7529
  32   1.0000      -3.187527       -86.7370
  33   1.0000      -1.364437       -37.1282
  34   1.0000      -1.162335       -31.6287
  35   1.0000      -1.083246       -29.4766
  36   1.0000      -1.051221       -28.6052
  37   1.0000      -1.045292       -28.4438
  38   1.0000      -1.044012       -28.4090
  39   1.0000      -1.038332       -28.2545
  40   1.0000      -1.007056       -27.4034
  41   1.0000      -0.969073       -26.3698
  42   1.0000      -0.927203       -25.2305
  43   1.0000      -0.905903       -24.6509
  44   1.0000      -0.905431       -24.6380
  45   1.0000      -0.903599       -24.5882
  46   1.0000      -0.896818       -24.4037
  47   1.0000      -0.896200       -24.3868
  48   1.0000      -0.790478       -21.5100
  49   1.0000      -0.758070       -20.6281
  50   1.0000      -0.693055       -18.8590
  51   1.0000      -0.684930       -18.6379
  52   1.0000      -0.667691       -18.1688
  53   1.0000      -0.640016       -17.4157
  54   1.0000      -0.625534       -17.0216
  55   1.0000      -0.625097       -17.0098
  56   1.0000      -0.596699       -16.2370
  57   1.0000      -0.595325       -16.1996
  58   1.0000      -0.589014       -16.0279
  59   1.0000      -0.580336       -15.7917
  60   1.0000      -0.571271       -15.5451
  61   1.0000      -0.559692       -15.2300
  62   1.0000      -0.546005       -14.8575
  63   1.0000      -0.538126       -14.6431
  64   1.0000      -0.532947       -14.5022
  65   1.0000      -0.523333       -14.2406
  66   1.0000      -0.507738       -13.8162
  67   1.0000      -0.482737       -13.1359
  68   1.0000      -0.465849       -12.6764
  69   1.0000      -0.455215       -12.3870
  70   1.0000      -0.435595       -11.8532
  71   1.0000      -0.428998       -11.6736
  72   1.0000      -0.425683       -11.5834
  73   1.0000      -0.419457       -11.4140
  74   1.0000      -0.416691       -11.3388
  75   1.0000      -0.415649       -11.3104
  76   1.0000      -0.398793       -10.8517
  77   0.0000       0.008989         0.2446
  78   0.0000       0.020769         0.5652
  79   0.0000       0.022985         0.6255
  80   0.0000       0.031069         0.8454
  81   0.0000       0.037789         1.0283

                 SPIN DOWN ORBITALS
  NO   OCC          E(Eh)            E(eV)
   0   1.0000    -261.549170     -7117.1147
   1   1.0000    -104.778262     -2851.1615
   2   1.0000    -104.775971     -2851.0991
   3   1.0000    -104.775121     -2851.0760
   4   1.0000     -32.058681      -872.3611
   5   1.0000     -27.536695      -749.3116
   6   1.0000     -27.536546      -749.3075
   7   1.0000     -27.536158      -749.2970
   8   1.0000     -20.562290      -559.5284
   9   1.0000     -11.397876      -310.1520
  10   1.0000     -11.352394      -308.9144
  11   1.0000     -11.289784      -307.2106
  12   1.0000     -11.274007      -306.7813
  13   1.0000     -11.271930      -306.7248
  14   1.0000     -11.259883      -306.3970
  15   1.0000     -11.240903      -305.8805
  16   1.0000     -11.238691      -305.8203
  17   1.0000     -10.504761      -285.8491
  18   1.0000     -10.502524      -285.7882
  19   1.0000     -10.501644      -285.7643
  20   1.0000      -7.970723      -216.8944
  21   1.0000      -7.970064      -216.8765
  22   1.0000      -7.969997      -216.8747
  23   1.0000      -7.968419      -216.8317
  24   1.0000      -7.967833      -216.8157
  25   1.0000      -7.967766      -216.8139
  26   1.0000      -7.967620      -216.8100
  27   1.0000      -7.966841      -216.7888
  28   1.0000      -7.966788      -216.7873
  29   1.0000      -4.133943      -112.4903
  30   1.0000      -2.655851       -72.2694
  31   1.0000      -2.655676       -72.2646
  32   1.0000      -2.654813       -72.2411
  33   1.0000      -1.350623       -36.7523
  34   1.0000      -1.160956       -31.5912
  35   1.0000      -1.080620       -29.4052
  36   1.0000      -1.037529       -28.2326
  37   1.0000      -1.036238       -28.1975
  38   1.0000      -1.025296       -27.8997
  39   1.0000      -1.023324       -27.8461
  40   1.0000      -1.006773       -27.3957
  41   1.0000      -0.968523       -26.3548
  42   1.0000      -0.919117       -25.0105
  43   1.0000      -0.793723       -21.5983
  44   1.0000      -0.761933       -20.7333
  45   1.0000      -0.693144       -18.8614
  46   1.0000      -0.684622       -18.6295
  47   1.0000      -0.668235       -18.1836
  48   1.0000      -0.640948       -17.4411
  49   1.0000      -0.625442       -17.0191
  50   1.0000      -0.623611       -16.9693
  51   1.0000      -0.596450       -16.2302
  52   1.0000      -0.594635       -16.1808
  53   1.0000      -0.589018       -16.0280
  54   1.0000      -0.578345       -15.7376
  55   1.0000      -0.571062       -15.5394
  56   1.0000      -0.559588       -15.2272
  57   1.0000      -0.543402       -14.7867
  58   1.0000      -0.537612       -14.6292
  59   1.0000      -0.531509       -14.4631
  60   1.0000      -0.518004       -14.0956
  61   1.0000      -0.505719       -13.7613
  62   1.0000      -0.478652       -13.0248
  63   1.0000      -0.469997       -12.7893
  64   1.0000      -0.465663       -12.6713
  65   1.0000      -0.440530       -11.9874
  66   1.0000      -0.437621       -11.9083
  67   1.0000      -0.435666       -11.8551
  68   1.0000      -0.426419       -11.6034
  69   1.0000      -0.415216       -11.2986
  70   1.0000      -0.402815       -10.9611
  71   1.0000      -0.398060       -10.8318
  72   0.0000       0.008967         0.2440
  73   0.0000       0.020678         0.5627
  74   0.0000       0.022964         0.6249
  75   0.0000       0.031116         0.8467
  76   0.0000       0.037790         1.0283

E(0)                                       ...  -3028.425356343
E(0)                                       ...  -3028.425356343
E(CORR)(strong-pairs)                      ...     -2.875013699
E(CORR)(weak-pairs)                        ...     -0.035914010
E(CORR)(corrected)                         ...     -2.910927709
E(TOT)                                     ...  -3031.336284052
E(CCSD(T))                                 ...  -3031.455766441
FINAL SINGLE POINT ENERGY     -3031.455766441126

DIPOLE MOMENT
-------------
                                X             Y             Z
Electronic contribution:     40.18393       3.54833       1.96594
Nuclear contribution   :    -44.59486      -3.18523      -2.40191
                        -----------------------------------------
Total Dipole Moment    :     -4.41092       0.36310      -0.43596
                        -----------------------------------------
Magnitude (a.u.)       :      4.44726
Magnitude (Debye)      :     11.30405

Rotational constants in cm-1:     0.018842     0.012014     0.010806
Rotational constants in MHz :   564.854775   360.164407   323.968024

                             ****ORCA TERMINATED NORMALLY****
TOTAL RUN TIME: 0 days 21 hours 8 minutes 28 seconds 410 msec
