                         Program Version 4.1.2  - RELEASE  -
|  1> ! aug-cc-pVTZ aug-cc-pVTZ/C DLPNO-CCSD(T1) TightSCF NormalPNO UNO MiniPrint AutoAux
|  2> %pal nproc 10 end
|  3> %maxcore 20000
|  4> %mdci
|  5>      density none
|  6> end
|  7>
|  8> * xyz 0 6
|  9>  O     -0.32129200     -0.18164400     -0.70953000
| 10>  C     -1.26758400     -1.10004700     -0.55213500
| 11>  C     -2.72747800     -0.31147800      0.37354100
| 12>  C     -2.45218800      0.97526500     -0.10057000
| 13>  C     -2.92736000      1.44977000     -1.42597700
| 14> Fe      1.39671300      0.11344100     -0.02231600
| 15> Cl      1.90464200      2.12372800     -0.76768500
| 16>  C     -1.61106500      1.93167300      0.65573700
| 17> Cl      2.66232200     -1.53428900     -0.73748700
| 18> Cl      1.18575800      0.09183500      2.19904900
| 19>  H     -3.55099000     -0.81113100     -0.13506300
| 20>  H     -2.29576300      2.65369600      1.13065900
| 21>  H     -1.01680300      1.46852800      1.44161400
| 22>  H     -0.95552000      2.49844700     -0.01313100
| 23>  H     -3.31339400      2.47206100     -1.33088000
| 24>  H     -2.05662800      1.51575800     -2.09414900
| 25>  H     -3.69127600      0.81239700     -1.87278500
| 26>  C     -2.66374800     -0.59615900      1.86711900
| 27>  H     -3.43231000     -0.01143300      2.38576300
| 28>  H     -2.86497900     -1.65060500      2.06485700
| 29>  H     -1.69536600     -0.34850700      2.30629500
| 30>  C     -0.89506800     -2.27656100      0.33832800
| 31>  H     -1.72540200     -2.97272900      0.47887700
| 32>  H     -0.08693700     -2.79880200     -0.18962800
| 33>  H     -0.50165200     -1.95771800      1.30297000
| 34>  C     -1.86109400     -1.55563400     -1.88087000
| 35>  H     -1.06557900     -2.10585600     -2.39628100
| 36>  H     -2.71604700     -2.22398100     -1.74798300
| 37>  H     -2.13829700     -0.71906100     -2.52164800
| 38> *
| 39>
| 40>
| 41>                          ****END OF INPUT****

CARTESIAN COORDINATES (ANGSTROEM)
---------------------------------
  O     -0.321292   -0.181644   -0.709530
  C     -1.267584   -1.100047   -0.552135
  C     -2.727478   -0.311478    0.373541
  C     -2.452188    0.975265   -0.100570
  C     -2.927360    1.449770   -1.425977
  Fe     1.396713    0.113441   -0.022316
  Cl     1.904642    2.123728   -0.767685
  C     -1.611065    1.931673    0.655737
  Cl     2.662322   -1.534289   -0.737487
  Cl     1.185758    0.091835    2.199049
  H     -3.550990   -0.811131   -0.135063
  H     -2.295763    2.653696    1.130659
  H     -1.016803    1.468528    1.441614
  H     -0.955520    2.498447   -0.013131
  H     -3.313394    2.472061   -1.330880
  H     -2.056628    1.515758   -2.094149
  H     -3.691276    0.812397   -1.872785
  C     -2.663748   -0.596159    1.867119
  H     -3.432310   -0.011433    2.385763
  H     -2.864979   -1.650605    2.064857
  H     -1.695366   -0.348507    2.306295
  C     -0.895068   -2.276561    0.338328
  H     -1.725402   -2.972729    0.478877
  H     -0.086937   -2.798802   -0.189628
  H     -0.501652   -1.957718    1.302970
  C     -1.861094   -1.555634   -1.880870
  H     -1.065579   -2.105856   -2.396281
  H     -2.716047   -2.223981   -1.747983
  H     -2.138297   -0.719061   -2.521648

ORBITAL ENERGIES
----------------
                 SPIN UP ORBITALS
  NO   OCC          E(Eh)            E(eV)
   0   1.0000    -261.549234     -7117.1165
   1   1.0000    -104.777011     -2851.1274
   2   1.0000    -104.773038     -2851.0193
   3   1.0000    -104.771259     -2850.9709
   4   1.0000     -32.217138      -876.6729
   5   1.0000     -27.693061      -753.5665
   6   1.0000     -27.692836      -753.5604
   7   1.0000     -27.692586      -753.5536
   8   1.0000     -20.550120      -559.1972
   9   1.0000     -11.378210      -309.6168
  10   1.0000     -11.372161      -309.4522
  11   1.0000     -11.284622      -307.0702
  12   1.0000     -11.281058      -306.9732
  13   1.0000     -11.266461      -306.5760
  14   1.0000     -11.254087      -306.2393
  15   1.0000     -11.251897      -306.1797
  16   1.0000     -11.243693      -305.9564
  17   1.0000     -10.503606      -285.8176
  18   1.0000     -10.499609      -285.7089
  19   1.0000     -10.497859      -285.6613
  20   1.0000      -7.970506      -216.8885
  21   1.0000      -7.969617      -216.8643
  22   1.0000      -7.969580      -216.8633
  23   1.0000      -7.966427      -216.7775
  24   1.0000      -7.965710      -216.7580
  25   1.0000      -7.965625      -216.7557
  26   1.0000      -7.964692      -216.7303
  27   1.0000      -7.963964      -216.7105
  28   1.0000      -7.963887      -216.7084
  29   1.0000      -4.572503      -124.4241
  30   1.0000      -3.185040       -86.6693
  31   1.0000      -3.184567       -86.6565
  32   1.0000      -3.184126       -86.6445
  33   1.0000      -1.389465       -37.8093
  34   1.0000      -1.183603       -32.2075
  35   1.0000      -1.083649       -29.4876
  36   1.0000      -1.047187       -28.4954
  37   1.0000      -1.044038       -28.4097
  38   1.0000      -1.041131       -28.3306
  39   1.0000      -1.038515       -28.2594
  40   1.0000      -1.005373       -27.3576
  41   1.0000      -0.977929       -26.6108
  42   1.0000      -0.932199       -25.3664
  43   1.0000      -0.914148       -24.8752
  44   1.0000      -0.901973       -24.5439
  45   1.0000      -0.901845       -24.5404
  46   1.0000      -0.893506       -24.3135
  47   1.0000      -0.892750       -24.2930
  48   1.0000      -0.787226       -21.4215
  49   1.0000      -0.766274       -20.8514
  50   1.0000      -0.702630       -19.1195
  51   1.0000      -0.690743       -18.7961
  52   1.0000      -0.672421       -18.2975
  53   1.0000      -0.653086       -17.7714
  54   1.0000      -0.647907       -17.6304
  55   1.0000      -0.628498       -17.1023
  56   1.0000      -0.599063       -16.3013
  57   1.0000      -0.597477       -16.2582
  58   1.0000      -0.589887       -16.0516
  59   1.0000      -0.578142       -15.7320
  60   1.0000      -0.576562       -15.6891
  61   1.0000      -0.561837       -15.2884
  62   1.0000      -0.555736       -15.1223
  63   1.0000      -0.546387       -14.8679
  64   1.0000      -0.536810       -14.6073
  65   1.0000      -0.527700       -14.3594
  66   1.0000      -0.511512       -13.9189
  67   1.0000      -0.472575       -12.8594
  68   1.0000      -0.460853       -12.5405
  69   1.0000      -0.451125       -12.2757
  70   1.0000      -0.426200       -11.5975
  71   1.0000      -0.425453       -11.5772
  72   1.0000      -0.423081       -11.5126
  73   1.0000      -0.413969       -11.2647
  74   1.0000      -0.412874       -11.2349
  75   1.0000      -0.411452       -11.1962
  76   1.0000      -0.395390       -10.7591
  77   0.0000       0.007070         0.1924
  78   0.0000       0.016350         0.4449
  79   0.0000       0.020322         0.5530
  80   0.0000       0.020775         0.5653
  81   0.0000       0.030744         0.8366

                 SPIN DOWN ORBITALS
  NO   OCC          E(Eh)            E(eV)
   0   1.0000    -261.545689     -7117.0200
   1   1.0000    -104.775690     -2851.0915
   2   1.0000    -104.771673     -2850.9822
   3   1.0000    -104.769813     -2850.9316
   4   1.0000     -32.055060      -872.2625
   5   1.0000     -27.533133      -749.2146
   6   1.0000     -27.532982      -749.2105
   7   1.0000     -27.532488      -749.1971
   8   1.0000     -20.544701      -559.0497
   9   1.0000     -11.378171      -309.6158
  10   1.0000     -11.372109      -309.4508
  11   1.0000     -11.284629      -307.0704
  12   1.0000     -11.280873      -306.9682
  13   1.0000     -11.266494      -306.5769
  14   1.0000     -11.254107      -306.2398
  15   1.0000     -11.251782      -306.1766
  16   1.0000     -11.243657      -305.9555
  17   1.0000     -10.502182      -285.7789
  18   1.0000     -10.498148      -285.6691
  19   1.0000     -10.496312      -285.6192
  20   1.0000      -7.968027      -216.8210
  21   1.0000      -7.967584      -216.8090
  22   1.0000      -7.967509      -216.8069
  23   1.0000      -7.964123      -216.7148
  24   1.0000      -7.963444      -216.6963
  25   1.0000      -7.963354      -216.6939
  26   1.0000      -7.962260      -216.6641
  27   1.0000      -7.961555      -216.6449
  28   1.0000      -7.961476      -216.6428
  29   1.0000      -4.130189      -112.3882
  30   1.0000      -2.652035       -72.1655
  31   1.0000      -2.651941       -72.1630
  32   1.0000      -2.651041       -72.1385
  33   1.0000      -1.375545       -37.4305
  34   1.0000      -1.182688       -32.1826
  35   1.0000      -1.080991       -29.4153
  36   1.0000      -1.042901       -28.3788
  37   1.0000      -1.033016       -28.1098
  38   1.0000      -1.021445       -27.7949
  39   1.0000      -1.018064       -27.7029
  40   1.0000      -1.005123       -27.3508
  41   1.0000      -0.977100       -26.5883
  42   1.0000      -0.930733       -25.3265
  43   1.0000      -0.797119       -21.6907
  44   1.0000      -0.769554       -20.9406
  45   1.0000      -0.703133       -19.1332
  46   1.0000      -0.689857       -18.7720
  47   1.0000      -0.673731       -18.3331
  48   1.0000      -0.654706       -17.8155
  49   1.0000      -0.646299       -17.5867
  50   1.0000      -0.627838       -17.0843
  51   1.0000      -0.599059       -16.3012
  52   1.0000      -0.596640       -16.2354
  53   1.0000      -0.589784       -16.0488
  54   1.0000      -0.578125       -15.7316
  55   1.0000      -0.575874       -15.6703
  56   1.0000      -0.561194       -15.2709
  57   1.0000      -0.555512       -15.1163
  58   1.0000      -0.545673       -14.8485
  59   1.0000      -0.531091       -14.4517
  60   1.0000      -0.527534       -14.3549
  61   1.0000      -0.502971       -13.6865
  62   1.0000      -0.471474       -12.8295
  63   1.0000      -0.465095       -12.6559
  64   1.0000      -0.459416       -12.5013
  65   1.0000      -0.436850       -11.8873
  66   1.0000      -0.433735       -11.8025
  67   1.0000      -0.431844       -11.7511
  68   1.0000      -0.422537       -11.4978
  69   1.0000      -0.411579       -11.1996
  70   1.0000      -0.399036       -10.8583
  71   1.0000      -0.388994       -10.5851
  72   0.0000       0.007071         0.1924
  73   0.0000       0.016145         0.4393
  74   0.0000       0.020317         0.5529
  75   0.0000       0.020729         0.5641
  76   0.0000       0.030752         0.8368

E(0)                                       ...  -3028.425864828
E(0)                                       ...  -3028.425864828
E(CORR)(strong-pairs)                      ...     -2.873120360
E(CORR)(weak-pairs)                        ...     -0.035745561
E(CORR)(corrected)                         ...     -2.908865921
E(TOT)                                     ...  -3031.334730749
E(CCSD(T))                                 ...  -3031.454185895
FINAL SINGLE POINT ENERGY     -3031.454185894675

DIPOLE MOMENT
-------------
                                X             Y             Z
Electronic contribution:     40.10316       5.35307       1.59812
Nuclear contribution   :    -44.98336      -5.38661      -2.03211
                        -----------------------------------------
Total Dipole Moment    :     -4.88020      -0.03355      -0.43399
                        -----------------------------------------
Magnitude (a.u.)       :      4.89957
Magnitude (Debye)      :     12.45371

Rotational constants in cm-1:     0.019099     0.011553     0.010741
Rotational constants in MHz :   572.569819   346.345189   322.012656

                             ****ORCA TERMINATED NORMALLY****
TOTAL RUN TIME: 0 days 21 hours 54 minutes 14 seconds 111 msec
