                         Program Version 4.1.2  - RELEASE  -
|  1> ! aug-cc-pVTZ aug-cc-pVTZ/C DLPNO-CCSD(T1) TightSCF NormalPNO UNO MiniPrint AutoAux
|  2> %pal nproc 10 end
|  3> %maxcore 20000
|  4> %mdci
|  5>      density none
|  6> end
|  7>
|  8> * xyz 0 6
|  9>  O     -0.28648200     -0.22121700     -0.78945200
| 10>  C     -1.13604700     -1.15586400     -0.64148500
| 11>  C     -2.97588000     -0.14741500      0.41707500
| 12>  C     -2.49704000      0.98921400     -0.15045100
| 13>  C     -2.86861700      1.40058200     -1.54345000
| 14> Fe      1.44361000      0.11976100      0.01626500
| 15> Cl      2.07380000      2.02335000     -0.84553700
| 16>  C     -1.59770700      1.95227700      0.55712700
| 17> Cl      2.59803800     -1.63751800     -0.60392500
| 18> Cl      1.16991900      0.19005800      2.20324300
| 19>  H     -3.70899800     -0.71504500     -0.15341700
| 20>  H     -2.16797700      2.86302600      0.78800200
| 21>  H     -1.18262500      1.56850900      1.48786100
| 22>  H     -0.77229100      2.26010800     -0.09464800
| 23>  H     -3.28256200      2.41665700     -1.52365600
| 24>  H     -1.97362400      1.44411300     -2.17766200
| 25>  H     -3.61046400      0.74086600     -1.99978300
| 26>  C     -2.91418700     -0.46892700      1.88973700
| 27>  H     -3.72379100      0.05613400      2.41366400
| 28>  H     -3.05706700     -1.53677800      2.07470500
| 29>  H     -1.97348000     -0.16672100      2.35618600
| 30>  C     -0.93020900     -2.18299800      0.43592500
| 31>  H     -1.80652500     -2.81587500      0.58022600
| 32>  H     -0.10178900     -2.81280300      0.07900400
| 33>  H     -0.61396100     -1.73795100      1.37857700
| 34>  C     -1.84991400     -1.62213000     -1.88367800
| 35>  H     -1.14718400     -2.30595800     -2.38081300
| 36>  H     -2.76242800     -2.17781800     -1.66288100
| 37>  H     -2.04949500     -0.80308000     -2.57171900
| 38> *
| 39>
| 40>
| 41>                          ****END OF INPUT****

CARTESIAN COORDINATES (ANGSTROEM)
---------------------------------
  O     -0.286482   -0.221217   -0.789452
  C     -1.136047   -1.155864   -0.641485
  C     -2.975880   -0.147415    0.417075
  C     -2.497040    0.989214   -0.150451
  C     -2.868617    1.400582   -1.543450
  Fe     1.443610    0.119761    0.016265
  Cl     2.073800    2.023350   -0.845537
  C     -1.597707    1.952277    0.557127
  Cl     2.598038   -1.637518   -0.603925
  Cl     1.169919    0.190058    2.203243
  H     -3.708998   -0.715045   -0.153417
  H     -2.167977    2.863026    0.788002
  H     -1.182625    1.568509    1.487861
  H     -0.772291    2.260108   -0.094648
  H     -3.282562    2.416657   -1.523656
  H     -1.973624    1.444113   -2.177662
  H     -3.610464    0.740866   -1.999783
  C     -2.914187   -0.468927    1.889737
  H     -3.723791    0.056134    2.413664
  H     -3.057067   -1.536778    2.074705
  H     -1.973480   -0.166721    2.356186
  C     -0.930209   -2.182998    0.435925
  H     -1.806525   -2.815875    0.580226
  H     -0.101789   -2.812803    0.079004
  H     -0.613961   -1.737951    1.378577
  C     -1.849914   -1.622130   -1.883678
  H     -1.147184   -2.305958   -2.380813
  H     -2.762428   -2.177818   -1.662881
  H     -2.049495   -0.803080   -2.571719

ORBITAL ENERGIES
----------------
                 SPIN UP ORBITALS
  NO   OCC          E(Eh)            E(eV)
   0   1.0000    -261.569195     -7117.6597
   1   1.0000    -104.789278     -2851.4612
   2   1.0000    -104.785850     -2851.3679
   3   1.0000    -104.784648     -2851.3352
   4   1.0000     -32.236972      -877.2126
   5   1.0000     -27.713289      -754.1169
   6   1.0000     -27.712404      -754.0929
   7   1.0000     -27.712233      -754.0882
   8   1.0000     -20.598911      -560.5249
   9   1.0000     -11.417586      -310.6883
  10   1.0000     -11.291357      -307.2534
  11   1.0000     -11.272647      -306.7443
  12   1.0000     -11.266329      -306.5724
  13   1.0000     -11.253898      -306.2341
  14   1.0000     -11.251906      -306.1799
  15   1.0000     -11.243845      -305.9606
  16   1.0000     -11.237542      -305.7891
  17   1.0000     -10.515962      -286.1539
  18   1.0000     -10.512514      -286.0600
  19   1.0000     -10.511266      -286.0261
  20   1.0000      -7.982814      -217.2234
  21   1.0000      -7.982020      -217.2018
  22   1.0000      -7.981979      -217.2007
  23   1.0000      -7.979389      -217.1302
  24   1.0000      -7.978608      -217.1090
  25   1.0000      -7.978545      -217.1072
  26   1.0000      -7.978063      -217.0941
  27   1.0000      -7.977385      -217.0757
  28   1.0000      -7.977330      -217.0742
  29   1.0000      -4.591992      -124.9544
  30   1.0000      -3.204976       -87.2118
  31   1.0000      -3.203573       -87.1736
  32   1.0000      -3.203353       -87.1677
  33   1.0000      -1.446030       -39.3485
  34   1.0000      -1.142128       -31.0789
  35   1.0000      -1.095616       -29.8132
  36   1.0000      -1.061653       -28.8891
  37   1.0000      -1.055970       -28.7344
  38   1.0000      -1.053383       -28.6640
  39   1.0000      -1.028251       -27.9801
  40   1.0000      -1.004885       -27.3443
  41   1.0000      -0.969170       -26.3724
  42   1.0000      -0.936831       -25.4925
  43   1.0000      -0.921049       -25.0630
  44   1.0000      -0.920970       -25.0609
  45   1.0000      -0.910867       -24.7860
  46   1.0000      -0.910266       -24.7696
  47   1.0000      -0.907363       -24.6906
  48   1.0000      -0.804921       -21.9030
  49   1.0000      -0.741079       -20.1658
  50   1.0000      -0.702250       -19.1092
  51   1.0000      -0.693849       -18.8806
  52   1.0000      -0.685810       -18.6618
  53   1.0000      -0.664564       -18.0837
  54   1.0000      -0.631367       -17.1804
  55   1.0000      -0.621572       -16.9138
  56   1.0000      -0.604687       -16.4544
  57   1.0000      -0.598023       -16.2730
  58   1.0000      -0.583823       -15.8866
  59   1.0000      -0.575246       -15.6532
  60   1.0000      -0.563166       -15.3245
  61   1.0000      -0.556747       -15.1498
  62   1.0000      -0.550331       -14.9753
  63   1.0000      -0.548078       -14.9140
  64   1.0000      -0.536460       -14.5978
  65   1.0000      -0.528599       -14.3839
  66   1.0000      -0.504460       -13.7271
  67   1.0000      -0.495127       -13.4731
  68   1.0000      -0.472876       -12.8676
  69   1.0000      -0.470196       -12.7947
  70   1.0000      -0.441579       -12.0160
  71   1.0000      -0.436431       -11.8759
  72   1.0000      -0.434767       -11.8306
  73   1.0000      -0.426001       -11.5921
  74   1.0000      -0.424893       -11.5619
  75   1.0000      -0.423898       -11.5349
  76   1.0000      -0.367081        -9.9888
  77   0.0000       0.012179         0.3314
  78   0.0000       0.022620         0.6155
  79   0.0000       0.023412         0.6371
  80   0.0000       0.030322         0.8251
  81   0.0000       0.038761         1.0547

                 SPIN DOWN ORBITALS
  NO   OCC          E(Eh)            E(eV)
   0   1.0000    -261.565630     -7117.5626
   1   1.0000    -104.787836     -2851.4220
   2   1.0000    -104.784327     -2851.3265
   3   1.0000    -104.783138     -2851.2941
   4   1.0000     -32.074941      -872.8035
   5   1.0000     -27.552858      -749.7514
   6   1.0000     -27.552820      -749.7503
   7   1.0000     -27.552618      -749.7449
   8   1.0000     -20.594999      -560.4184
   9   1.0000     -11.417492      -310.6857
  10   1.0000     -11.291301      -307.2519
  11   1.0000     -11.272535      -306.7413
  12   1.0000     -11.266319      -306.5721
  13   1.0000     -11.253848      -306.2328
  14   1.0000     -11.251912      -306.1801
  15   1.0000     -11.243850      -305.9607
  16   1.0000     -11.237570      -305.7898
  17   1.0000     -10.514418      -286.1119
  18   1.0000     -10.510887      -286.0158
  19   1.0000     -10.509660      -285.9824
  20   1.0000      -7.980316      -217.1554
  21   1.0000      -7.979663      -217.1377
  22   1.0000      -7.979610      -217.1362
  23   1.0000      -7.976774      -217.0590
  24   1.0000      -7.976104      -217.0408
  25   1.0000      -7.976014      -217.0384
  26   1.0000      -7.975645      -217.0283
  27   1.0000      -7.974808      -217.0056
  28   1.0000      -7.974725      -217.0033
  29   1.0000      -4.149773      -112.9211
  30   1.0000      -2.671377       -72.6919
  31   1.0000      -2.671354       -72.6912
  32   1.0000      -2.670748       -72.6748
  33   1.0000      -1.436223       -39.0816
  34   1.0000      -1.141643       -31.0657
  35   1.0000      -1.093067       -29.7439
  36   1.0000      -1.046546       -28.4780
  37   1.0000      -1.034202       -28.1421
  38   1.0000      -1.031376       -28.0652
  39   1.0000      -1.027773       -27.9671
  40   1.0000      -1.004075       -27.3223
  41   1.0000      -0.969057       -26.3694
  42   1.0000      -0.907901       -24.7053
  43   1.0000      -0.818039       -22.2600
  44   1.0000      -0.741162       -20.1680
  45   1.0000      -0.704963       -19.1830
  46   1.0000      -0.693153       -18.8616
  47   1.0000      -0.684751       -18.6330
  48   1.0000      -0.664402       -18.0793
  49   1.0000      -0.631288       -17.1782
  50   1.0000      -0.621058       -16.8999
  51   1.0000      -0.604253       -16.4426
  52   1.0000      -0.597967       -16.2715
  53   1.0000      -0.583575       -15.8799
  54   1.0000      -0.574414       -15.6306
  55   1.0000      -0.562677       -15.3112
  56   1.0000      -0.556652       -15.1473
  57   1.0000      -0.548950       -14.9377
  58   1.0000      -0.546739       -14.8775
  59   1.0000      -0.535206       -14.5637
  60   1.0000      -0.518159       -14.0998
  61   1.0000      -0.504331       -13.7235
  62   1.0000      -0.495605       -13.4861
  63   1.0000      -0.480061       -13.0631
  64   1.0000      -0.478119       -13.0103
  65   1.0000      -0.449358       -12.2276
  66   1.0000      -0.446496       -12.1498
  67   1.0000      -0.443922       -12.0797
  68   1.0000      -0.428049       -11.6478
  69   1.0000      -0.424850       -11.5608
  70   1.0000      -0.409663       -11.1475
  71   1.0000      -0.365860        -9.9555
  72   0.0000       0.012166         0.3311
  73   0.0000       0.022595         0.6148
  74   0.0000       0.023391         0.6365
  75   0.0000       0.030255         0.8233
  76   0.0000       0.038586         1.0500

E(0)                                       ...  -3028.445543283
E(0)                                       ...  -3028.445543283
E(CORR)(strong-pairs)                      ...     -2.871816838
E(CORR)(weak-pairs)                        ...     -0.036318602
E(CORR)(corrected)                         ...     -2.908135439
E(TOT)                                     ...  -3031.353678722
E(CCSD(T))                                 ...  -3031.472784796
FINAL SINGLE POINT ENERGY     -3031.472784795812

DIPOLE MOMENT
-------------
                                X             Y             Z
Electronic contribution:     42.32207       3.84949       1.84912
Nuclear contribution   :    -46.07559      -4.82556      -2.46609
                        -----------------------------------------
Total Dipole Moment    :     -3.75352      -0.97608      -0.61697
                        -----------------------------------------
Magnitude (a.u.)       :      3.92712
Magnitude (Debye)      :      9.98195

Rotational constants in cm-1:     0.019069     0.011106     0.010458
Rotational constants in MHz :   571.667087   332.959981   313.537025

                             ****ORCA TERMINATED NORMALLY****
TOTAL RUN TIME: 0 days 17 hours 57 minutes 58 seconds 114 msec
