                         Program Version 4.1.2  - RELEASE  -
|  1> ! aug-cc-pVTZ aug-cc-pVTZ/C DLPNO-CCSD(T1) TightSCF NormalPNO UNO MiniPrint AutoAux
|  2> %pal nproc 10 end
|  3> %maxcore 20000
|  4> %mdci
|  5>      density none
|  6> end
|  7>
|  8> * xyz 0 6
|  9>  O     -0.35287400     -0.25233300     -0.58995500
| 10>  C     -1.40716100     -1.19555900     -0.41451900
| 11>  C     -2.78121900     -0.14402600     -0.15233500
| 12>  C     -2.02832800      1.13381400     -0.25610600
| 13>  C     -1.92434400      1.83193400     -1.55438700
| 14> Fe      1.37573100      0.03661700      0.02747700
| 15> Cl      1.76364800      2.06491500     -0.79902300
| 16>  C     -1.56917900      1.85012200      0.95059000
| 17> Cl      2.63645800     -1.60590300     -0.69841400
| 18> Cl      1.27367200      0.12030300      2.24923200
| 19>  H     -3.42495100     -0.26481800     -1.02728100
| 20>  H     -2.44530000      2.39992600      1.33526600
| 21>  H     -1.23722800      1.17435200      1.74091200
| 22>  H     -0.77894400      2.56763300      0.72186100
| 23>  H     -2.63847700      2.67236200     -1.52406700
| 24>  H     -0.92277400      2.25769200     -1.67607300
| 25>  H     -2.17790000      1.19066700     -2.39909300
| 26>  C     -3.56131500     -0.38998200      1.13226400
| 27>  H     -4.37279200      0.33848400      1.24584400
| 28>  H     -4.01563100     -1.38417200      1.10071200
| 29>  H     -2.93251200     -0.33995100      2.02378600
| 30>  C     -1.16140200     -2.10640400      0.77109100
| 31>  H     -1.98871800     -2.80684900      0.91986400
| 32>  H     -0.25444300     -2.68769700      0.56438000
| 33>  H     -0.98511800     -1.54551500      1.69047800
| 34>  C     -1.61382500     -1.96127100     -1.70849100
| 35>  H     -0.70322400     -2.53235200     -1.92228000
| 36>  H     -2.45786300     -2.65543000     -1.63278300
| 37>  H     -1.78374000     -1.27783500     -2.54543900
| 38> *
| 39>
| 40>
| 41>                          ****END OF INPUT****

CARTESIAN COORDINATES (ANGSTROEM)
---------------------------------
  O     -0.352874   -0.252333   -0.589955
  C     -1.407161   -1.195559   -0.414519
  C     -2.781219   -0.144026   -0.152335
  C     -2.028328    1.133814   -0.256106
  C     -1.924344    1.831934   -1.554387
  Fe     1.375731    0.036617    0.027477
  Cl     1.763648    2.064915   -0.799023
  C     -1.569179    1.850122    0.950590
  Cl     2.636458   -1.605903   -0.698414
  Cl     1.273672    0.120303    2.249232
  H     -3.424951   -0.264818   -1.027281
  H     -2.445300    2.399926    1.335266
  H     -1.237228    1.174352    1.740912
  H     -0.778944    2.567633    0.721861
  H     -2.638477    2.672362   -1.524067
  H     -0.922774    2.257692   -1.676073
  H     -2.177900    1.190667   -2.399093
  C     -3.561315   -0.389982    1.132264
  H     -4.372792    0.338484    1.245844
  H     -4.015631   -1.384172    1.100712
  H     -2.932512   -0.339951    2.023786
  C     -1.161402   -2.106404    0.771091
  H     -1.988718   -2.806849    0.919864
  H     -0.254443   -2.687697    0.564380
  H     -0.985118   -1.545515    1.690478
  C     -1.613825   -1.961271   -1.708491
  H     -0.703224   -2.532352   -1.922280
  H     -2.457863   -2.655430   -1.632783
  H     -1.783740   -1.277835   -2.545439

ORBITAL ENERGIES
----------------
                 SPIN UP ORBITALS
  NO   OCC          E(Eh)            E(eV)
   0   1.0000    -261.545219     -7117.0072
   1   1.0000    -104.774551     -2851.0605
   2   1.0000    -104.773427     -2851.0299
   3   1.0000    -104.769854     -2850.9327
   4   1.0000     -32.213105      -876.5632
   5   1.0000     -27.688992      -753.4558
   6   1.0000     -27.688874      -753.4526
   7   1.0000     -27.688543      -753.4435
   8   1.0000     -20.546509      -559.0989
   9   1.0000     -11.409200      -310.4601
  10   1.0000     -11.346265      -308.7476
  11   1.0000     -11.293370      -307.3082
  12   1.0000     -11.283362      -307.0359
  13   1.0000     -11.279737      -306.9372
  14   1.0000     -11.264800      -306.5308
  15   1.0000     -11.239293      -305.8367
  16   1.0000     -11.234882      -305.7167
  17   1.0000     -10.501084      -285.7490
  18   1.0000     -10.500066      -285.7213
  19   1.0000     -10.496428      -285.6223
  20   1.0000      -7.967926      -216.8183
  21   1.0000      -7.967156      -216.7973
  22   1.0000      -7.967070      -216.7950
  23   1.0000      -7.966961      -216.7920
  24   1.0000      -7.966092      -216.7684
  25   1.0000      -7.966059      -216.7675
  26   1.0000      -7.963226      -216.6904
  27   1.0000      -7.962551      -216.6720
  28   1.0000      -7.962463      -216.6696
  29   1.0000      -4.568566      -124.3170
  30   1.0000      -3.180998       -86.5594
  31   1.0000      -3.180781       -86.5535
  32   1.0000      -3.180216       -86.5381
  33   1.0000      -1.353110       -36.8200
  34   1.0000      -1.180944       -32.1351
  35   1.0000      -1.088642       -29.6235
  36   1.0000      -1.045215       -28.4418
  37   1.0000      -1.040008       -28.3001
  38   1.0000      -1.039194       -28.2779
  39   1.0000      -1.037090       -28.2207
  40   1.0000      -1.017514       -27.6880
  41   1.0000      -0.966699       -26.3052
  42   1.0000      -0.932361       -25.3708
  43   1.0000      -0.903642       -24.5893
  44   1.0000      -0.898055       -24.4373
  45   1.0000      -0.897930       -24.4339
  46   1.0000      -0.890115       -24.2213
  47   1.0000      -0.889711       -24.2103
  48   1.0000      -0.794767       -21.6267
  49   1.0000      -0.760116       -20.6838
  50   1.0000      -0.702517       -19.1165
  51   1.0000      -0.688892       -18.7457
  52   1.0000      -0.672851       -18.3092
  53   1.0000      -0.637516       -17.3477
  54   1.0000      -0.632424       -17.2091
  55   1.0000      -0.626260       -17.0414
  56   1.0000      -0.601554       -16.3691
  57   1.0000      -0.599091       -16.3021
  58   1.0000      -0.595134       -16.1944
  59   1.0000      -0.581784       -15.8311
  60   1.0000      -0.577242       -15.7076
  61   1.0000      -0.558013       -15.1843
  62   1.0000      -0.549436       -14.9509
  63   1.0000      -0.539417       -14.6783
  64   1.0000      -0.529835       -14.4175
  65   1.0000      -0.522106       -14.2072
  66   1.0000      -0.504434       -13.7264
  67   1.0000      -0.472624       -12.8608
  68   1.0000      -0.462170       -12.5763
  69   1.0000      -0.448189       -12.1958
  70   1.0000      -0.430463       -11.7135
  71   1.0000      -0.425632       -11.5820
  72   1.0000      -0.420857       -11.4521
  73   1.0000      -0.414599       -11.2818
  74   1.0000      -0.412197       -11.2165
  75   1.0000      -0.409897       -11.1539
  76   1.0000      -0.409527       -11.1438
  77   0.0000       0.005848         0.1591
  78   0.0000       0.018164         0.4943
  79   0.0000       0.021166         0.5760
  80   0.0000       0.027064         0.7364
  81   0.0000       0.030412         0.8276

                 SPIN DOWN ORBITALS
  NO   OCC          E(Eh)            E(eV)
   0   1.0000    -261.541676     -7116.9108
   1   1.0000    -104.773272     -2851.0257
   2   1.0000    -104.772084     -2850.9933
   3   1.0000    -104.768416     -2850.8935
   4   1.0000     -32.051094      -872.1546
   5   1.0000     -27.529218      -749.1081
   6   1.0000     -27.528990      -749.1019
   7   1.0000     -27.528470      -749.0878
   8   1.0000     -20.540427      -558.9334
   9   1.0000     -11.409237      -310.4611
  10   1.0000     -11.346061      -308.7420
  11   1.0000     -11.293212      -307.3039
  12   1.0000     -11.283343      -307.0354
  13   1.0000     -11.279749      -306.9376
  14   1.0000     -11.264805      -306.5309
  15   1.0000     -11.239228      -305.8349
  16   1.0000     -11.234859      -305.7161
  17   1.0000     -10.499708      -285.7116
  18   1.0000     -10.498618      -285.6819
  19   1.0000     -10.494890      -285.5805
  20   1.0000      -7.965647      -216.7563
  21   1.0000      -7.965104      -216.7415
  22   1.0000      -7.965018      -216.7392
  23   1.0000      -7.964487      -216.7247
  24   1.0000      -7.963995      -216.7113
  25   1.0000      -7.963929      -216.7095
  26   1.0000      -7.960879      -216.6265
  27   1.0000      -7.960106      -216.6055
  28   1.0000      -7.960043      -216.6038
  29   1.0000      -4.126438      -112.2861
  30   1.0000      -2.648336       -72.0649
  31   1.0000      -2.648279       -72.0633
  32   1.0000      -2.647389       -72.0391
  33   1.0000      -1.337126       -36.3850
  34   1.0000      -1.179562       -32.0975
  35   1.0000      -1.086055       -29.5531
  36   1.0000      -1.037478       -28.2312
  37   1.0000      -1.031256       -28.0619
  38   1.0000      -1.021624       -27.7998
  39   1.0000      -1.017561       -27.6892
  40   1.0000      -1.015729       -27.6394
  41   1.0000      -0.965986       -26.2858
  42   1.0000      -0.929365       -25.2893
  43   1.0000      -0.798226       -21.7208
  44   1.0000      -0.765680       -20.8352
  45   1.0000      -0.702716       -19.1219
  46   1.0000      -0.688305       -18.7297
  47   1.0000      -0.673836       -18.3360
  48   1.0000      -0.639551       -17.4031
  49   1.0000      -0.632473       -17.2105
  50   1.0000      -0.624232       -16.9862
  51   1.0000      -0.601749       -16.3744
  52   1.0000      -0.598182       -16.2774
  53   1.0000      -0.594761       -16.1843
  54   1.0000      -0.580974       -15.8091
  55   1.0000      -0.576108       -15.6767
  56   1.0000      -0.557792       -15.1783
  57   1.0000      -0.547095       -14.8872
  58   1.0000      -0.538936       -14.6652
  59   1.0000      -0.527898       -14.3648
  60   1.0000      -0.516524       -14.0553
  61   1.0000      -0.500046       -13.6070
  62   1.0000      -0.469847       -12.7852
  63   1.0000      -0.464164       -12.6305
  64   1.0000      -0.457036       -12.4366
  65   1.0000      -0.435918       -11.8619
  66   1.0000      -0.433841       -11.8054
  67   1.0000      -0.431173       -11.7328
  68   1.0000      -0.430288       -11.7087
  69   1.0000      -0.410464       -11.1693
  70   1.0000      -0.400306       -10.8929
  71   1.0000      -0.398238       -10.8366
  72   0.0000       0.005813         0.1582
  73   0.0000       0.017908         0.4873
  74   0.0000       0.021147         0.5754
  75   0.0000       0.026393         0.7182
  76   0.0000       0.030447         0.8285

E(0)                                       ...  -3028.431731347
E(0)                                       ...  -3028.431731347
E(CORR)(strong-pairs)                      ...     -2.869577402
E(CORR)(weak-pairs)                        ...     -0.035680476
E(CORR)(corrected)                         ...     -2.905257878
E(TOT)                                     ...  -3031.336989225
E(CCSD(T))                                 ...  -3031.454962382
FINAL SINGLE POINT ENERGY     -3031.454962382116

DIPOLE MOMENT
-------------
                                X             Y             Z
Electronic contribution:     39.94874       4.28031       2.06810
Nuclear contribution   :    -44.80988      -3.72538      -2.48003
                        -----------------------------------------
Total Dipole Moment    :     -4.86114       0.55494      -0.41193
                        -----------------------------------------
Magnitude (a.u.)       :      4.91002
Magnitude (Debye)      :     12.48027

Rotational constants in cm-1:     0.018958     0.011930     0.010746
Rotational constants in MHz :   568.345602   357.650410   322.170761

                             ****ORCA TERMINATED NORMALLY****
TOTAL RUN TIME: 0 days 20 hours 39 minutes 0 seconds 94 msec
