                         Program Version 4.1.2  - RELEASE  -
|  1> ! aug-cc-pVTZ aug-cc-pVTZ/C DLPNO-CCSD(T1) TightSCF NormalPNO UNO MiniPrint AutoAux
|  2> %pal nproc 10 end
|  3> %maxcore 20000
|  4> %mdci
|  5>      density none
|  6> end
|  7>
|  8> * xyz 0 6
|  9>  O     -0.35153900     -0.07812600     -0.51368900
| 10>  C     -1.25166000     -1.02513800     -0.46711600
| 11>  C     -3.09913100      0.01286500     -0.10393800
| 12>  C     -2.21166100      1.05979400     -0.22196500
| 13>  C     -2.00237400      1.75187800     -1.53007800
| 14> Fe      1.44712600      0.05258300      0.05443000
| 15> Cl      2.04932900      1.99008300     -0.78986700
| 16>  C     -1.59985500      1.72598300      0.96991700
| 17> Cl      2.38488800     -1.75505900     -0.78249600
| 18> Cl      1.42590000      0.03410300      2.26264800
| 19>  H     -3.63066500     -0.27257500     -1.00889700
| 20>  H     -2.33936800      2.43935400      1.36251400
| 21>  H     -1.35322100      1.03227600      1.77469700
| 22>  H     -0.70035000      2.28198700      0.69996900
| 23>  H     -2.52923400      2.71545500     -1.46897400
| 24>  H     -0.94480800      1.96459500     -1.70311000
| 25>  H     -2.42074800      1.20017900     -2.37465800
| 26>  C     -3.74894400     -0.42863000      1.18201000
| 27>  H     -4.66904800      0.14871600      1.34313100
| 28>  H     -4.03768600     -1.48333100      1.14441900
| 29>  H     -3.11337300     -0.28011800      2.05739800
| 30>  C     -1.20887300     -1.95010800      0.71808700
| 31>  H     -2.07294300     -2.61335500      0.77068100
| 32>  H     -0.30951600     -2.56626100      0.57104500
| 33>  H     -1.07301800     -1.40941300      1.65521300
| 34>  C     -1.59739900     -1.65044400     -1.79434400
| 35>  H     -0.71618500     -2.24484700     -2.07511200
| 36>  H     -2.46547400     -2.31048800     -1.73450800
| 37>  H     -1.73994800     -0.89667700     -2.56975400
| 38> *
| 39>
| 40>
| 41>                          ****END OF INPUT****

CARTESIAN COORDINATES (ANGSTROEM)
---------------------------------
  O     -0.351539   -0.078126   -0.513689
  C     -1.251660   -1.025138   -0.467116
  C     -3.099131    0.012865   -0.103938
  C     -2.211661    1.059794   -0.221965
  C     -2.002374    1.751878   -1.530078
  Fe     1.447126    0.052583    0.054430
  Cl     2.049329    1.990083   -0.789867
  C     -1.599855    1.725983    0.969917
  Cl     2.384888   -1.755059   -0.782496
  Cl     1.425900    0.034103    2.262648
  H     -3.630665   -0.272575   -1.008897
  H     -2.339368    2.439354    1.362514
  H     -1.353221    1.032276    1.774697
  H     -0.700350    2.281987    0.699969
  H     -2.529234    2.715455   -1.468974
  H     -0.944808    1.964595   -1.703110
  H     -2.420748    1.200179   -2.374658
  C     -3.748944   -0.428630    1.182010
  H     -4.669048    0.148716    1.343131
  H     -4.037686   -1.483331    1.144419
  H     -3.113373   -0.280118    2.057398
  C     -1.208873   -1.950108    0.718087
  H     -2.072943   -2.613355    0.770681
  H     -0.309516   -2.566261    0.571045
  H     -1.073018   -1.409413    1.655213
  C     -1.597399   -1.650444   -1.794344
  H     -0.716185   -2.244847   -2.075112
  H     -2.465474   -2.310488   -1.734508
  H     -1.739948   -0.896677   -2.569754

ORBITAL ENERGIES
----------------
                 SPIN UP ORBITALS
  NO   OCC          E(Eh)            E(eV)
   0   1.0000    -261.559105     -7117.3851
   1   1.0000    -104.781309     -2851.2444
   2   1.0000    -104.781169     -2851.2406
   3   1.0000    -104.780754     -2851.2293
   4   1.0000     -32.226959      -876.9401
   5   1.0000     -27.703092      -753.8395
   6   1.0000     -27.702496      -753.8232
   7   1.0000     -27.702356      -753.8194
   8   1.0000     -20.569173      -559.7157
   9   1.0000     -11.408290      -310.4353
  10   1.0000     -11.332917      -308.3844
  11   1.0000     -11.266445      -306.5756
  12   1.0000     -11.264776      -306.5301
  13   1.0000     -11.260828      -306.4227
  14   1.0000     -11.256823      -306.3137
  15   1.0000     -11.256650      -306.3090
  16   1.0000     -11.253858      -306.2331
  17   1.0000     -10.507925      -285.9352
  18   1.0000     -10.507735      -285.9300
  19   1.0000     -10.507290      -285.9179
  20   1.0000      -7.974800      -217.0054
  21   1.0000      -7.974585      -216.9995
  22   1.0000      -7.974087      -216.9859
  23   1.0000      -7.973988      -216.9832
  24   1.0000      -7.973938      -216.9819
  25   1.0000      -7.973832      -216.9790
  26   1.0000      -7.973747      -216.9767
  27   1.0000      -7.973403      -216.9673
  28   1.0000      -7.973321      -216.9651
  29   1.0000      -4.582321      -124.6913
  30   1.0000      -3.195209       -86.9461
  31   1.0000      -3.194177       -86.9180
  32   1.0000      -3.193734       -86.9059
  33   1.0000      -1.422666       -38.7127
  34   1.0000      -1.159323       -31.5468
  35   1.0000      -1.091999       -29.7148
  36   1.0000      -1.054144       -28.6847
  37   1.0000      -1.048580       -28.5333
  38   1.0000      -1.047387       -28.5008
  39   1.0000      -1.035444       -28.1759
  40   1.0000      -1.000979       -27.2380
  41   1.0000      -0.982554       -26.7367
  42   1.0000      -0.931545       -25.3486
  43   1.0000      -0.917405       -24.9639
  44   1.0000      -0.911891       -24.8138
  45   1.0000      -0.911834       -24.8123
  46   1.0000      -0.902398       -24.5555
  47   1.0000      -0.901836       -24.5402
  48   1.0000      -0.793534       -21.5932
  49   1.0000      -0.754092       -20.5199
  50   1.0000      -0.699314       -19.0293
  51   1.0000      -0.691779       -18.8243
  52   1.0000      -0.683680       -18.6039
  53   1.0000      -0.666104       -18.1256
  54   1.0000      -0.639515       -17.4021
  55   1.0000      -0.620346       -16.8805
  56   1.0000      -0.601622       -16.3710
  57   1.0000      -0.596571       -16.2335
  58   1.0000      -0.583047       -15.8655
  59   1.0000      -0.575327       -15.6554
  60   1.0000      -0.574748       -15.6397
  61   1.0000      -0.568397       -15.4669
  62   1.0000      -0.551279       -15.0011
  63   1.0000      -0.547948       -14.9104
  64   1.0000      -0.544492       -14.8164
  65   1.0000      -0.521208       -14.1828
  66   1.0000      -0.515596       -14.0301
  67   1.0000      -0.487207       -13.2576
  68   1.0000      -0.468919       -12.7599
  69   1.0000      -0.458877       -12.4867
  70   1.0000      -0.436932       -11.8895
  71   1.0000      -0.431091       -11.7306
  72   1.0000      -0.429083       -11.6759
  73   1.0000      -0.421821       -11.4783
  74   1.0000      -0.419570       -11.4171
  75   1.0000      -0.419207       -11.4072
  76   1.0000      -0.370874       -10.0920
  77   0.0000       0.011116         0.3025
  78   0.0000       0.021622         0.5884
  79   0.0000       0.023039         0.6269
  80   0.0000       0.030348         0.8258
  81   0.0000       0.038760         1.0547

                 SPIN DOWN ORBITALS
  NO   OCC          E(Eh)            E(eV)
   0   1.0000    -261.555552     -7117.2884
   1   1.0000    -104.779883     -2851.2056
   2   1.0000    -104.779721     -2851.2011
   3   1.0000    -104.779344     -2851.1909
   4   1.0000     -32.064946      -872.5315
   5   1.0000     -27.542918      -749.4809
   6   1.0000     -27.542837      -749.4787
   7   1.0000     -27.542502      -749.4696
   8   1.0000     -20.564450      -559.5871
   9   1.0000     -11.408209      -310.4331
  10   1.0000     -11.332977      -308.3860
  11   1.0000     -11.266018      -306.5639
  12   1.0000     -11.264685      -306.5277
  13   1.0000     -11.260796      -306.4218
  14   1.0000     -11.256803      -306.3132
  15   1.0000     -11.256696      -306.3103
  16   1.0000     -11.253868      -306.2333
  17   1.0000     -10.506396      -285.8936
  18   1.0000     -10.506183      -285.8878
  19   1.0000     -10.505785      -285.8769
  20   1.0000      -7.972292      -216.9371
  21   1.0000      -7.972096      -216.9318
  22   1.0000      -7.971769      -216.9229
  23   1.0000      -7.971685      -216.9206
  24   1.0000      -7.971609      -216.9185
  25   1.0000      -7.971446      -216.9141
  26   1.0000      -7.971357      -216.9117
  27   1.0000      -7.971027      -216.9027
  28   1.0000      -7.970936      -216.9002
  29   1.0000      -4.140114      -112.6582
  30   1.0000      -2.661821       -72.4318
  31   1.0000      -2.661704       -72.4286
  32   1.0000      -2.661310       -72.4179
  33   1.0000      -1.410664       -38.3861
  34   1.0000      -1.158261       -31.5179
  35   1.0000      -1.089359       -29.6430
  36   1.0000      -1.039342       -28.2819
  37   1.0000      -1.034802       -28.1584
  38   1.0000      -1.027424       -27.9576
  39   1.0000      -1.026934       -27.9443
  40   1.0000      -1.000204       -27.2169
  41   1.0000      -0.982473       -26.7344
  42   1.0000      -0.921596       -25.0779
  43   1.0000      -0.807162       -21.9640
  44   1.0000      -0.754236       -20.5238
  45   1.0000      -0.699503       -19.0345
  46   1.0000      -0.694055       -18.8862
  47   1.0000      -0.682876       -18.5820
  48   1.0000      -0.665599       -18.1119
  49   1.0000      -0.639441       -17.4001
  50   1.0000      -0.620247       -16.8778
  51   1.0000      -0.600760       -16.3475
  52   1.0000      -0.596497       -16.2315
  53   1.0000      -0.582880       -15.8610
  54   1.0000      -0.575255       -15.6535
  55   1.0000      -0.574442       -15.6314
  56   1.0000      -0.568046       -15.4573
  57   1.0000      -0.550925       -14.9914
  58   1.0000      -0.547680       -14.9031
  59   1.0000      -0.539710       -14.6863
  60   1.0000      -0.520681       -14.1684
  61   1.0000      -0.509824       -13.8730
  62   1.0000      -0.483808       -13.1651
  63   1.0000      -0.472996       -12.8709
  64   1.0000      -0.469793       -12.7837
  65   1.0000      -0.443211       -12.0604
  66   1.0000      -0.440767       -11.9939
  67   1.0000      -0.438496       -11.9321
  68   1.0000      -0.425708       -11.5841
  69   1.0000      -0.418406       -11.3854
  70   1.0000      -0.405369       -11.0307
  71   1.0000      -0.369445       -10.0531
  72   0.0000       0.011115         0.3025
  73   0.0000       0.021577         0.5871
  74   0.0000       0.023015         0.6263
  75   0.0000       0.030380         0.8267
  76   0.0000       0.038732         1.0540

E(0)                                       ...  -3028.419054350
E(0)                                       ...  -3028.419054350
E(CORR)(strong-pairs)                      ...     -2.873743538
E(CORR)(weak-pairs)                        ...     -0.035583794
E(CORR)(corrected)                         ...     -2.909327333
E(TOT)                                     ...  -3031.328381683
E(CCSD(T))                                 ...  -3031.448269064
FINAL SINGLE POINT ENERGY     -3031.448269064439

DIPOLE MOMENT
-------------
                                X             Y             Z
Electronic contribution:     42.11305       2.38590       2.16096
Nuclear contribution   :    -46.28956      -2.77684      -2.65920
                        -----------------------------------------
Total Dipole Moment    :     -4.17651      -0.39095      -0.49824
                        -----------------------------------------
Magnitude (a.u.)       :      4.22426
Magnitude (Debye)      :     10.73720

Rotational constants in cm-1:     0.019600     0.011261     0.010510
Rotational constants in MHz :   587.601038   337.593775   315.086590

                             ****ORCA TERMINATED NORMALLY****
TOTAL RUN TIME: 0 days 21 hours 5 minutes 26 seconds 371 msec
