                         Program Version 4.1.2  - RELEASE  -
|  1> ! aug-cc-pVTZ aug-cc-pVTZ/C DLPNO-CCSD(T1) TightSCF NormalPNO UNO MiniPrint AutoAux
|  2> %pal nproc 10 end
|  3> %maxcore 20000
|  4> %mdci
|  5>      density none
|  6> end
|  7>
|  8> * xyz 0 6
|  9>  O     -0.32375500     -0.12399100     -0.62021800
| 10>  C     -1.19641800     -1.05829900     -0.54961000
| 11>  C     -3.14762300      0.00103900      0.05088900
| 12>  C     -2.31680100      1.04926900     -0.20336800
| 13>  C     -2.23707400      1.67529200     -1.56146100
| 14> Fe      1.46011600      0.07081100      0.05387900
| 15> Cl      2.08429400      1.99656200     -0.77687700
| 16>  C     -1.56413600      1.77029600      0.87313100
| 17> Cl      2.45024000     -1.72264200     -0.74069500
| 18> Cl      1.36977200      0.04701700      2.25472600
| 19>  H     -3.75089300     -0.36237100     -0.77841700
| 20>  H     -2.21764200      2.55780100      1.27501700
| 21>  H     -1.26977600      1.13039500      1.70578700
| 22>  H     -0.67110700      2.25852300      0.47553000
| 23>  H     -2.57664500      2.71647300     -1.48002100
| 24>  H     -1.20071200      1.70604600     -1.91272000
| 25>  H     -2.86828200      1.17382400     -2.29909500
| 26>  C     -3.59692200     -0.45167800      1.41443300
| 27>  H     -4.51652500      0.08234100      1.68943600
| 28>  H     -3.83549000     -1.51946200      1.43096400
| 29>  H     -2.86105100     -0.25323400      2.19684800
| 30>  C     -1.13535400     -2.00997600      0.61028800
| 31>  H     -2.01526000     -2.64953900      0.67951900
| 32>  H     -0.26017700     -2.64751900      0.41375000
| 33>  H     -0.94988500     -1.49451900      1.55282900
| 34>  C     -1.70441700     -1.60047100     -1.85886000
| 35>  H     -0.89214100     -2.23473400     -2.24261900
| 36>  H     -2.59883500     -2.21485200     -1.74261000
| 37>  H     -1.86931500     -0.80709800     -2.58758600
| 38> *
| 39>
| 40>
| 41>                          ****END OF INPUT****

CARTESIAN COORDINATES (ANGSTROEM)
---------------------------------
  O     -0.323755   -0.123991   -0.620218
  C     -1.196418   -1.058299   -0.549610
  C     -3.147623    0.001039    0.050889
  C     -2.316801    1.049269   -0.203368
  C     -2.237074    1.675292   -1.561461
  Fe     1.460116    0.070811    0.053879
  Cl     2.084294    1.996562   -0.776877
  C     -1.564136    1.770296    0.873131
  Cl     2.450240   -1.722642   -0.740695
  Cl     1.369772    0.047017    2.254726
  H     -3.750893   -0.362371   -0.778417
  H     -2.217642    2.557801    1.275017
  H     -1.269776    1.130395    1.705787
  H     -0.671107    2.258523    0.475530
  H     -2.576645    2.716473   -1.480021
  H     -1.200712    1.706046   -1.912720
  H     -2.868282    1.173824   -2.299095
  C     -3.596922   -0.451678    1.414433
  H     -4.516525    0.082341    1.689436
  H     -3.835490   -1.519462    1.430964
  H     -2.861051   -0.253234    2.196848
  C     -1.135354   -2.009976    0.610288
  H     -2.015260   -2.649539    0.679519
  H     -0.260177   -2.647519    0.413750
  H     -0.949885   -1.494519    1.552829
  C     -1.704417   -1.600471   -1.858860
  H     -0.892141   -2.234734   -2.242619
  H     -2.598835   -2.214852   -1.742610
  H     -1.869315   -0.807098   -2.587586

ORBITAL ENERGIES
----------------
                 SPIN UP ORBITALS
  NO   OCC          E(Eh)            E(eV)
   0   1.0000    -261.565830     -7117.5681
   1   1.0000    -104.786021     -2851.3726
   2   1.0000    -104.784660     -2851.3356
   3   1.0000    -104.783726     -2851.3101
   4   1.0000     -32.233632      -877.1217
   5   1.0000     -27.709914      -754.0251
   6   1.0000     -27.709079      -754.0024
   7   1.0000     -27.708948      -753.9988
   8   1.0000     -20.586818      -560.1958
   9   1.0000     -11.417364      -310.6823
  10   1.0000     -11.302788      -307.5645
  11   1.0000     -11.271249      -306.7063
  12   1.0000     -11.266263      -306.5706
  13   1.0000     -11.257970      -306.3449
  14   1.0000     -11.251444      -306.1674
  15   1.0000     -11.249572      -306.1164
  16   1.0000     -11.243732      -305.9575
  17   1.0000     -10.512680      -286.0646
  18   1.0000     -10.511265      -286.0261
  19   1.0000     -10.510301      -285.9998
  20   1.0000      -7.979540      -217.1343
  21   1.0000      -7.978745      -217.1127
  22   1.0000      -7.978705      -217.1116
  23   1.0000      -7.978137      -217.0961
  24   1.0000      -7.977362      -217.0751
  25   1.0000      -7.977277      -217.0727
  26   1.0000      -7.977098      -217.0679
  27   1.0000      -7.976421      -217.0494
  28   1.0000      -7.976351      -217.0475
  29   1.0000      -4.588830      -124.8684
  30   1.0000      -3.201864       -87.1272
  31   1.0000      -3.200478       -87.0894
  32   1.0000      -3.200182       -87.0814
  33   1.0000      -1.441178       -39.2164
  34   1.0000      -1.147763       -31.2322
  35   1.0000      -1.095344       -29.8058
  36   1.0000      -1.058842       -28.8126
  37   1.0000      -1.053461       -28.6661
  38   1.0000      -1.051515       -28.6132
  39   1.0000      -1.030614       -28.0444
  40   1.0000      -1.006339       -27.3839
  41   1.0000      -0.973141       -26.4805
  42   1.0000      -0.935231       -25.4489
  43   1.0000      -0.918205       -24.9856
  44   1.0000      -0.918063       -24.9818
  45   1.0000      -0.912244       -24.8234
  46   1.0000      -0.907851       -24.7039
  47   1.0000      -0.907614       -24.6974
  48   1.0000      -0.801672       -21.8146
  49   1.0000      -0.745015       -20.2729
  50   1.0000      -0.700335       -19.0571
  51   1.0000      -0.696344       -18.9485
  52   1.0000      -0.688472       -18.7343
  53   1.0000      -0.666236       -18.1292
  54   1.0000      -0.634574       -17.2676
  55   1.0000      -0.619822       -16.8662
  56   1.0000      -0.603092       -16.4110
  57   1.0000      -0.599663       -16.3177
  58   1.0000      -0.582806       -15.8590
  59   1.0000      -0.577319       -15.7096
  60   1.0000      -0.567288       -15.4367
  61   1.0000      -0.564600       -15.3635
  62   1.0000      -0.550332       -14.9753
  63   1.0000      -0.547207       -14.8903
  64   1.0000      -0.539829       -14.6895
  65   1.0000      -0.522978       -14.2310
  66   1.0000      -0.509870       -13.8743
  67   1.0000      -0.492411       -13.3992
  68   1.0000      -0.472268       -12.8511
  69   1.0000      -0.465709       -12.6726
  70   1.0000      -0.440247       -11.9797
  71   1.0000      -0.434533       -11.8242
  72   1.0000      -0.433049       -11.7839
  73   1.0000      -0.424777       -11.5588
  74   1.0000      -0.422973       -11.5097
  75   1.0000      -0.422755       -11.5037
  76   1.0000      -0.367473        -9.9995
  77   0.0000       0.011989         0.3262
  78   0.0000       0.022713         0.6180
  79   0.0000       0.023296         0.6339
  80   0.0000       0.030320         0.8250
  81   0.0000       0.039298         1.0694

                 SPIN DOWN ORBITALS
  NO   OCC          E(Eh)            E(eV)
   0   1.0000    -261.562271     -7117.4712
   1   1.0000    -104.784566     -2851.3330
   2   1.0000    -104.783174     -2851.2951
   3   1.0000    -104.782255     -2851.2701
   4   1.0000     -32.071612      -872.7129
   5   1.0000     -27.549546      -749.6613
   6   1.0000     -27.549498      -749.6600
   7   1.0000     -27.549241      -749.6530
   8   1.0000     -20.582682      -560.0833
   9   1.0000     -11.417206      -310.6780
  10   1.0000     -11.302843      -307.5660
  11   1.0000     -11.271150      -306.7036
  12   1.0000     -11.266247      -306.5702
  13   1.0000     -11.257705      -306.3377
  14   1.0000     -11.251473      -306.1681
  15   1.0000     -11.249557      -306.1160
  16   1.0000     -11.243747      -305.9579
  17   1.0000     -10.511123      -286.0222
  18   1.0000     -10.509676      -285.9828
  19   1.0000     -10.508735      -285.9572
  20   1.0000      -7.977025      -217.0659
  21   1.0000      -7.976369      -217.0480
  22   1.0000      -7.976304      -217.0463
  23   1.0000      -7.975566      -217.0262
  24   1.0000      -7.974925      -217.0087
  25   1.0000      -7.974826      -217.0061
  26   1.0000      -7.974720      -217.0032
  27   1.0000      -7.973920      -216.9814
  28   1.0000      -7.973832      -216.9790
  29   1.0000      -4.146598      -112.8347
  30   1.0000      -2.668216       -72.6058
  31   1.0000      -2.668156       -72.6042
  32   1.0000      -2.667747       -72.5931
  33   1.0000      -1.430684       -38.9309
  34   1.0000      -1.147100       -31.2142
  35   1.0000      -1.092751       -29.7353
  36   1.0000      -1.043770       -28.4024
  37   1.0000      -1.031669       -28.0732
  38   1.0000      -1.030624       -28.0447
  39   1.0000      -1.029722       -28.0202
  40   1.0000      -1.005526       -27.3618
  41   1.0000      -0.973045       -26.4779
  42   1.0000      -0.913143       -24.8479
  43   1.0000      -0.815667       -22.1954
  44   1.0000      -0.745052       -20.2739
  45   1.0000      -0.703072       -19.1316
  46   1.0000      -0.696630       -18.9563
  47   1.0000      -0.686650       -18.6847
  48   1.0000      -0.666140       -18.1266
  49   1.0000      -0.634493       -17.2654
  50   1.0000      -0.619512       -16.8578
  51   1.0000      -0.602675       -16.3996
  52   1.0000      -0.599601       -16.3160
  53   1.0000      -0.582423       -15.8485
  54   1.0000      -0.576890       -15.6980
  55   1.0000      -0.567102       -15.4316
  56   1.0000      -0.564400       -15.3581
  57   1.0000      -0.548429       -14.9235
  58   1.0000      -0.545981       -14.8569
  59   1.0000      -0.538775       -14.6608
  60   1.0000      -0.514467       -13.9994
  61   1.0000      -0.509887       -13.8747
  62   1.0000      -0.490930       -13.3589
  63   1.0000      -0.477029       -12.9806
  64   1.0000      -0.475980       -12.9521
  65   1.0000      -0.447379       -12.1738
  66   1.0000      -0.444401       -12.0928
  67   1.0000      -0.442175       -12.0322
  68   1.0000      -0.427563       -11.6346
  69   1.0000      -0.422886       -11.5073
  70   1.0000      -0.408297       -11.1103
  71   1.0000      -0.366090        -9.9618
  72   0.0000       0.011982         0.3260
  73   0.0000       0.022683         0.6172
  74   0.0000       0.023270         0.6332
  75   0.0000       0.030327         0.8252
  76   0.0000       0.039268         1.0685

E(0)                                       ...  -3028.433674319
E(0)                                       ...  -3028.433674319
E(CORR)(strong-pairs)                      ...     -2.872241286
E(CORR)(weak-pairs)                        ...     -0.036275651
E(CORR)(corrected)                         ...     -2.908516937
E(TOT)                                     ...  -3031.342191256
E(CCSD(T))                                 ...  -3031.461651124
FINAL SINGLE POINT ENERGY     -3031.461651123706

DIPOLE MOMENT
-------------
                                X             Y             Z
Electronic contribution:     42.72646       2.44667       2.23618
Nuclear contribution   :    -46.62740      -3.16997      -2.78838
                        -----------------------------------------
Total Dipole Moment    :     -3.90095      -0.72330      -0.55220
                        -----------------------------------------
Magnitude (a.u.)       :      4.00568
Magnitude (Debye)      :     10.18163

Rotational constants in cm-1:     0.019476     0.011062     0.010401
Rotational constants in MHz :   583.876514   331.618901   311.806622

                             ****ORCA TERMINATED NORMALLY****
TOTAL RUN TIME: 0 days 19 hours 24 minutes 40 seconds 141 msec
