                         Program Version 4.1.2  - RELEASE  -
|  1> ! aug-cc-pVTZ aug-cc-pVTZ/C DLPNO-CCSD(T1) TightSCF NormalPNO UNO MiniPrint AutoAux
|  2> %pal nproc 10 end
|  3> %maxcore 20000
|  4> %mdci
|  5>      density none
|  6> end
|  7>
|  8> * xyz 0 6
|  9>  O     -0.42408000     -0.16899900     -0.51537500
| 10>  C     -1.44889200     -1.19199200     -0.34144800
| 11>  C     -2.76713700     -0.12434400     -0.23028700
| 12>  C     -1.91797500      1.13796400     -0.27018500
| 13>  C     -1.83510100      1.90741500     -1.53862600
| 14> Fe      1.37458400      0.03626600      0.03382800
| 15> Cl      1.86200300      1.99907100     -0.85383500
| 16>  C     -1.55922600      1.84798300      0.98502100
| 17> Cl      2.42938100     -1.72026100     -0.74196600
| 18> Cl      1.38083900      0.14693800      2.24108200
| 19>  H     -3.33476400     -0.20528000     -1.16152500
| 20>  H     -2.42900600      2.46212400      1.26693800
| 21>  H     -1.34399500      1.16837900      1.80963100
| 22>  H     -0.70750900      2.51448900      0.83193300
| 23>  H     -2.65191900      2.64701500     -1.52571100
| 24>  H     -0.88681300      2.44689800     -1.60728600
| 25>  H     -1.96657300      1.26752600     -2.41264600
| 26>  C     -3.69406200     -0.29785100      0.96402400
| 27>  H     -4.46981900      0.47668100      0.97723400
| 28>  H     -4.19933400     -1.26637100      0.89980900
| 29>  H     -3.16280200     -0.26181600      1.91792800
| 30>  C     -1.21038600     -2.00707700      0.91325000
| 31>  H     -2.02753600     -2.71767600      1.07422400
| 32>  H     -0.28221800     -2.57820500      0.79762300
| 33>  H     -1.10232800     -1.37762600      1.79858500
| 34>  C     -1.51060400     -2.04331400     -1.59367900
| 35>  H     -0.55944800     -2.57237500     -1.71815800
| 36>  H     -2.31691900     -2.78197700     -1.52326600
| 37>  H     -1.67306600     -1.42314300     -2.48004500
| 38> *
| 39>
| 40>
| 41>                          ****END OF INPUT****

CARTESIAN COORDINATES (ANGSTROEM)
---------------------------------
  O     -0.424080   -0.168999   -0.515375
  C     -1.448892   -1.191992   -0.341448
  C     -2.767137   -0.124344   -0.230287
  C     -1.917975    1.137964   -0.270185
  C     -1.835101    1.907415   -1.538626
  Fe     1.374584    0.036266    0.033828
  Cl     1.862003    1.999071   -0.853835
  C     -1.559226    1.847983    0.985021
  Cl     2.429381   -1.720261   -0.741966
  Cl     1.380839    0.146938    2.241082
  H     -3.334764   -0.205280   -1.161525
  H     -2.429006    2.462124    1.266938
  H     -1.343995    1.168379    1.809631
  H     -0.707509    2.514489    0.831933
  H     -2.651919    2.647015   -1.525711
  H     -0.886813    2.446898   -1.607286
  H     -1.966573    1.267526   -2.412646
  C     -3.694062   -0.297851    0.964024
  H     -4.469819    0.476681    0.977234
  H     -4.199334   -1.266371    0.899809
  H     -3.162802   -0.261816    1.917928
  C     -1.210386   -2.007077    0.913250
  H     -2.027536   -2.717676    1.074224
  H     -0.282218   -2.578205    0.797623
  H     -1.102328   -1.377626    1.798585
  C     -1.510604   -2.043314   -1.593679
  H     -0.559448   -2.572375   -1.718158
  H     -2.316919   -2.781977   -1.523266
  H     -1.673066   -1.423143   -2.480045

ORBITAL ENERGIES
----------------
                 SPIN UP ORBITALS
  NO   OCC          E(Eh)            E(eV)
   0   1.0000    -261.551838     -7117.1873
   1   1.0000    -104.778883     -2851.1784
   2   1.0000    -104.776961     -2851.1261
   3   1.0000    -104.775397     -2851.0835
   4   1.0000     -32.219763      -876.7443
   5   1.0000     -27.695742      -753.6395
   6   1.0000     -27.695431      -753.6310
   7   1.0000     -27.695144      -753.6232
   8   1.0000     -20.568254      -559.6906
   9   1.0000     -11.400243      -310.2164
  10   1.0000     -11.339122      -308.5532
  11   1.0000     -11.292454      -307.2833
  12   1.0000     -11.275733      -306.8283
  13   1.0000     -11.274382      -306.7915
  14   1.0000     -11.262261      -306.4617
  15   1.0000     -11.237482      -305.7874
  16   1.0000     -11.236109      -305.7501
  17   1.0000     -10.505500      -285.8692
  18   1.0000     -10.503653      -285.8189
  19   1.0000     -10.502035      -285.7749
  20   1.0000      -7.972325      -216.9380
  21   1.0000      -7.971589      -216.9180
  22   1.0000      -7.971515      -216.9160
  23   1.0000      -7.970533      -216.8892
  24   1.0000      -7.969701      -216.8666
  25   1.0000      -7.969672      -216.8658
  26   1.0000      -7.968835      -216.8430
  27   1.0000      -7.968153      -216.8245
  28   1.0000      -7.968083      -216.8226
  29   1.0000      -4.575113      -124.4951
  30   1.0000      -3.187551       -86.7377
  31   1.0000      -3.187234       -86.7291
  32   1.0000      -3.186668       -86.7136
  33   1.0000      -1.360518       -37.0216
  34   1.0000      -1.163781       -31.6681
  35   1.0000      -1.089527       -29.6475
  36   1.0000      -1.050575       -28.5876
  37   1.0000      -1.044943       -28.4343
  38   1.0000      -1.043131       -28.3850
  39   1.0000      -1.036043       -28.1922
  40   1.0000      -1.009240       -27.4628
  41   1.0000      -0.965548       -26.2739
  42   1.0000      -0.931067       -25.3356
  43   1.0000      -0.904921       -24.6241
  44   1.0000      -0.904452       -24.6114
  45   1.0000      -0.902600       -24.5610
  46   1.0000      -0.895910       -24.3789
  47   1.0000      -0.895293       -24.3622
  48   1.0000      -0.797959       -21.7136
  49   1.0000      -0.757194       -20.6043
  50   1.0000      -0.695501       -18.9256
  51   1.0000      -0.687217       -18.7001
  52   1.0000      -0.669293       -18.2124
  53   1.0000      -0.636233       -17.3128
  54   1.0000      -0.629328       -17.1249
  55   1.0000      -0.620504       -16.8848
  56   1.0000      -0.599764       -16.3204
  57   1.0000      -0.594682       -16.1821
  58   1.0000      -0.590270       -16.0621
  59   1.0000      -0.581807       -15.8318
  60   1.0000      -0.571528       -15.5521
  61   1.0000      -0.559039       -15.2122
  62   1.0000      -0.544065       -14.8048
  63   1.0000      -0.536604       -14.6017
  64   1.0000      -0.529647       -14.4124
  65   1.0000      -0.519252       -14.1296
  66   1.0000      -0.505772       -13.7627
  67   1.0000      -0.479179       -13.0391
  68   1.0000      -0.467011       -12.7080
  69   1.0000      -0.454845       -12.3770
  70   1.0000      -0.441665       -12.0183
  71   1.0000      -0.429215       -11.6795
  72   1.0000      -0.425245       -11.5715
  73   1.0000      -0.419481       -11.4147
  74   1.0000      -0.416244       -11.3266
  75   1.0000      -0.415408       -11.3038
  76   1.0000      -0.414762       -11.2862
  77   0.0000       0.008216         0.2236
  78   0.0000       0.020489         0.5575
  79   0.0000       0.022665         0.6167
  80   0.0000       0.030905         0.8410
  81   0.0000       0.037666         1.0249

                 SPIN DOWN ORBITALS
  NO   OCC          E(Eh)            E(eV)
   0   1.0000    -261.548286     -7117.0907
   1   1.0000    -104.777525     -2851.1414
   2   1.0000    -104.775555     -2851.0878
   3   1.0000    -104.773928     -2851.0435
   4   1.0000     -32.057794      -872.3369
   5   1.0000     -27.535817      -749.2877
   6   1.0000     -27.535660      -749.2834
   7   1.0000     -27.535267      -749.2727
   8   1.0000     -20.563005      -559.5478
   9   1.0000     -11.400287      -310.2176
  10   1.0000     -11.338955      -308.5487
  11   1.0000     -11.292340      -307.2802
  12   1.0000     -11.275714      -306.8278
  13   1.0000     -11.274390      -306.7918
  14   1.0000     -11.262251      -306.4614
  15   1.0000     -11.237447      -305.7865
  16   1.0000     -11.236099      -305.7498
  17   1.0000     -10.504043      -285.8295
  18   1.0000     -10.502143      -285.7778
  19   1.0000     -10.500465      -285.7322
  20   1.0000      -7.970000      -216.8747
  21   1.0000      -7.969350      -216.8570
  22   1.0000      -7.969284      -216.8552
  23   1.0000      -7.968041      -216.8214
  24   1.0000      -7.967446      -216.8052
  25   1.0000      -7.967386      -216.8036
  26   1.0000      -7.966444      -216.7780
  27   1.0000      -7.965655      -216.7565
  28   1.0000      -7.965603      -216.7551
  29   1.0000      -4.133048      -112.4659
  30   1.0000      -2.654950       -72.2449
  31   1.0000      -2.654839       -72.2419
  32   1.0000      -2.653850       -72.2149
  33   1.0000      -1.346866       -36.6501
  34   1.0000      -1.162057       -31.6212
  35   1.0000      -1.087090       -29.5812
  36   1.0000      -1.035876       -28.1876
  37   1.0000      -1.034815       -28.1588
  38   1.0000      -1.024807       -27.8864
  39   1.0000      -1.022429       -27.8217
  40   1.0000      -1.008901       -27.4536
  41   1.0000      -0.964900       -26.2563
  42   1.0000      -0.923908       -25.1408
  43   1.0000      -0.800202       -21.7746
  44   1.0000      -0.761119       -20.7111
  45   1.0000      -0.695562       -18.9272
  46   1.0000      -0.686862       -18.6905
  47   1.0000      -0.670091       -18.2341
  48   1.0000      -0.637050       -17.3350
  49   1.0000      -0.629446       -17.1281
  50   1.0000      -0.618893       -16.8409
  51   1.0000      -0.599762       -16.3204
  52   1.0000      -0.593760       -16.1570
  53   1.0000      -0.590213       -16.0605
  54   1.0000      -0.580120       -15.7859
  55   1.0000      -0.571259       -15.5447
  56   1.0000      -0.558700       -15.2030
  57   1.0000      -0.540370       -14.7042
  58   1.0000      -0.535895       -14.5825
  59   1.0000      -0.527660       -14.3584
  60   1.0000      -0.513964       -13.9857
  61   1.0000      -0.504710       -13.7339
  62   1.0000      -0.475619       -12.9423
  63   1.0000      -0.469539       -12.7768
  64   1.0000      -0.464484       -12.6392
  65   1.0000      -0.442129       -12.0309
  66   1.0000      -0.439939       -11.9713
  67   1.0000      -0.436724       -11.8839
  68   1.0000      -0.434577       -11.8254
  69   1.0000      -0.415663       -11.3108
  70   1.0000      -0.409152       -11.1336
  71   1.0000      -0.401959       -10.9379
  72   0.0000       0.008196         0.2230
  73   0.0000       0.020402         0.5552
  74   0.0000       0.022645         0.6162
  75   0.0000       0.030947         0.8421
  76   0.0000       0.037672         1.0251

E(0)                                       ...  -3028.441262195
E(0)                                       ...  -3028.441262195
E(CORR)(strong-pairs)                      ...     -2.874545623
E(CORR)(weak-pairs)                        ...     -0.035312089
E(CORR)(corrected)                         ...     -2.909857711
E(TOT)                                     ...  -3031.351119906
E(CCSD(T))                                 ...  -3031.470033271
FINAL SINGLE POINT ENERGY     -3031.470033270691

DIPOLE MOMENT
-------------
                                X             Y             Z
Electronic contribution:     40.28917       3.34192       1.67292
Nuclear contribution   :    -44.79922      -2.84422      -2.03831
                        -----------------------------------------
Total Dipole Moment    :     -4.51005       0.49770      -0.36539
                        -----------------------------------------
Magnitude (a.u.)       :      4.55212
Magnitude (Debye)      :     11.57056

Rotational constants in cm-1:     0.018934     0.012073     0.010792
Rotational constants in MHz :   567.621618   361.948995   323.529498

                             ****ORCA TERMINATED NORMALLY****
TOTAL RUN TIME: 1 days 2 hours 19 minutes 42 seconds 473 msec
