                         Program Version 4.1.2  - RELEASE  -
|  1> ! aug-cc-pVTZ aug-cc-pVTZ/C DLPNO-CCSD(T1) TightSCF NormalPNO UNO MiniPrint AutoAux
|  2> %pal nproc 10 end
|  3> %maxcore 20000
|  4> %mdci
|  5>      density none
|  6> end
|  7>
|  8> * xyz 0 6
|  9>  O      0.21123200      0.32384100     -0.82860500
| 10>  C      1.06634900      1.23974400     -0.64093900
| 11>  C      2.87911100      0.27297700      0.59972900
| 12>  C      2.73397800     -0.89444000     -0.07928300
| 13>  C      3.42082700     -1.13715900     -1.39156900
| 14> Fe     -1.48776300     -0.16529600     -0.01894500
| 15> Cl     -2.01566500     -2.04194900     -0.99540900
| 16>  C      1.83388700     -1.99988500      0.37570100
| 17> Cl     -2.73983300      1.56312600     -0.50529700
| 18> Cl     -1.16308400     -0.37917200      2.14628000
| 19>  H      3.59406200      0.98901500      0.19630500
| 20>  H      2.36597200     -2.95909300      0.36352700
| 21>  H      1.41338600     -1.84355800      1.36870000
| 22>  H      0.99909200     -2.10106400     -0.33311100
| 23>  H      4.06314100     -2.02369500     -1.30984600
| 24>  H      2.69098600     -1.35938500     -2.18182700
| 25>  H      4.04512700     -0.29627300     -1.70353300
| 26>  C      2.52609600      0.46556500      2.05647300
| 27>  H      3.25754500     -0.06273200      2.68163700
| 28>  H      2.56891700      1.51928000      2.34157600
| 29>  H      1.53630900      0.08508100      2.31658500
| 30>  C      0.80984100      2.28106600      0.41236700
| 31>  H      1.68841800      2.89275400      0.62051500
| 32>  H      0.02599400      2.92773900     -0.00865300
| 33>  H      0.41307500      1.84948600      1.33083700
| 34>  C      1.87087600      1.65874400     -1.84306900
| 35>  H      1.23107900      2.36048200     -2.39680100
| 36>  H      2.79100500      2.18063400     -1.57722300
| 37>  H      2.07796900      0.81455200     -2.49850200
| 38> *
| 39>
| 40>
| 41>                          ****END OF INPUT****

CARTESIAN COORDINATES (ANGSTROEM)
---------------------------------
  O      0.211232    0.323841   -0.828605
  C      1.066349    1.239744   -0.640939
  C      2.879111    0.272977    0.599729
  C      2.733978   -0.894440   -0.079283
  C      3.420827   -1.137159   -1.391569
  Fe    -1.487763   -0.165296   -0.018945
  Cl    -2.015665   -2.041949   -0.995409
  C      1.833887   -1.999885    0.375701
  Cl    -2.739833    1.563126   -0.505297
  Cl    -1.163084   -0.379172    2.146280
  H      3.594062    0.989015    0.196305
  H      2.365972   -2.959093    0.363527
  H      1.413386   -1.843558    1.368700
  H      0.999092   -2.101064   -0.333111
  H      4.063141   -2.023695   -1.309846
  H      2.690986   -1.359385   -2.181827
  H      4.045127   -0.296273   -1.703533
  C      2.526096    0.465565    2.056473
  H      3.257545   -0.062732    2.681637
  H      2.568917    1.519280    2.341576
  H      1.536309    0.085081    2.316585
  C      0.809841    2.281066    0.412367
  H      1.688418    2.892754    0.620515
  H      0.025994    2.927739   -0.008653
  H      0.413075    1.849486    1.330837
  C      1.870876    1.658744   -1.843069
  H      1.231079    2.360482   -2.396801
  H      2.791005    2.180634   -1.577223
  H      2.077969    0.814552   -2.498502

ORBITAL ENERGIES
----------------
                 SPIN UP ORBITALS
  NO   OCC          E(Eh)            E(eV)
   0   1.0000    -261.569923     -7117.6795
   1   1.0000    -104.790418     -2851.4923
   2   1.0000    -104.786632     -2851.3892
   3   1.0000    -104.784444     -2851.3297
   4   1.0000     -32.237703      -877.2325
   5   1.0000     -27.714080      -754.1385
   6   1.0000     -27.713110      -754.1121
   7   1.0000     -27.712907      -754.1065
   8   1.0000     -20.607594      -560.7611
   9   1.0000     -11.418253      -310.7065
  10   1.0000     -11.285864      -307.1040
  11   1.0000     -11.273953      -306.7799
  12   1.0000     -11.269409      -306.6562
  13   1.0000     -11.252902      -306.2070
  14   1.0000     -11.252467      -306.1952
  15   1.0000     -11.238431      -305.8133
  16   1.0000     -11.237223      -305.7804
  17   1.0000     -10.517130      -286.1857
  18   1.0000     -10.513307      -286.0816
  19   1.0000     -10.511069      -286.0207
  20   1.0000      -7.983973      -217.2550
  21   1.0000      -7.983193      -217.2337
  22   1.0000      -7.983158      -217.2328
  23   1.0000      -7.980167      -217.1514
  24   1.0000      -7.979409      -217.1308
  25   1.0000      -7.979355      -217.1293
  26   1.0000      -7.977873      -217.0890
  27   1.0000      -7.977197      -217.0706
  28   1.0000      -7.977134      -217.0688
  29   1.0000      -4.592734      -124.9746
  30   1.0000      -3.205832       -87.2351
  31   1.0000      -3.204239       -87.1918
  32   1.0000      -3.204044       -87.1865
  33   1.0000      -1.450557       -39.4717
  34   1.0000      -1.138192       -30.9718
  35   1.0000      -1.095603       -29.8129
  36   1.0000      -1.062833       -28.9212
  37   1.0000      -1.056893       -28.7595
  38   1.0000      -1.053585       -28.6695
  39   1.0000      -1.025804       -27.9135
  40   1.0000      -1.005918       -27.3724
  41   1.0000      -0.967981       -26.3401
  42   1.0000      -0.938190       -25.5294
  43   1.0000      -0.921797       -25.0834
  44   1.0000      -0.921655       -25.0795
  45   1.0000      -0.911459       -24.8021
  46   1.0000      -0.910669       -24.7806
  47   1.0000      -0.903183       -24.5769
  48   1.0000      -0.807971       -21.9860
  49   1.0000      -0.739743       -20.1294
  50   1.0000      -0.704160       -19.1612
  51   1.0000      -0.694536       -18.8993
  52   1.0000      -0.682589       -18.5742
  53   1.0000      -0.662640       -18.0313
  54   1.0000      -0.629039       -17.1170
  55   1.0000      -0.621516       -16.9123
  56   1.0000      -0.605795       -16.4845
  57   1.0000      -0.597583       -16.2611
  58   1.0000      -0.583977       -15.8908
  59   1.0000      -0.576110       -15.6767
  60   1.0000      -0.561333       -15.2746
  61   1.0000      -0.559052       -15.2126
  62   1.0000      -0.548052       -14.9133
  63   1.0000      -0.545301       -14.8384
  64   1.0000      -0.534542       -14.5456
  65   1.0000      -0.529767       -14.4157
  66   1.0000      -0.502691       -13.6789
  67   1.0000      -0.496881       -13.5208
  68   1.0000      -0.473729       -12.8908
  69   1.0000      -0.471350       -12.8261
  70   1.0000      -0.442673       -12.0457
  71   1.0000      -0.437121       -11.8947
  72   1.0000      -0.435035       -11.8379
  73   1.0000      -0.426674       -11.6104
  74   1.0000      -0.425341       -11.5741
  75   1.0000      -0.424004       -11.5377
  76   1.0000      -0.366095        -9.9619
  77   0.0000       0.012050         0.3279
  78   0.0000       0.022498         0.6122
  79   0.0000       0.023607         0.6424
  80   0.0000       0.029974         0.8156
  81   0.0000       0.038688         1.0528

                 SPIN DOWN ORBITALS
  NO   OCC          E(Eh)            E(eV)
   0   1.0000    -261.566349     -7117.5822
   1   1.0000    -104.788953     -2851.4524
   2   1.0000    -104.785095     -2851.3474
   3   1.0000    -104.782910     -2851.2879
   4   1.0000     -32.075678      -872.8236
   5   1.0000     -27.553593      -749.7714
   6   1.0000     -27.553537      -749.7699
   7   1.0000     -27.553382      -749.7657
   8   1.0000     -20.603795      -560.6578
   9   1.0000     -11.418155      -310.7038
  10   1.0000     -11.285779      -307.1017
  11   1.0000     -11.273843      -306.7769
  12   1.0000     -11.269395      -306.6558
  13   1.0000     -11.252913      -306.2073
  14   1.0000     -11.252492      -306.1959
  15   1.0000     -11.238425      -305.8131
  16   1.0000     -11.237246      -305.7810
  17   1.0000     -10.515562      -286.1430
  18   1.0000     -10.511667      -286.0370
  19   1.0000     -10.509438      -285.9763
  20   1.0000      -7.981466      -217.1867
  21   1.0000      -7.980780      -217.1681
  22   1.0000      -7.980735      -217.1668
  23   1.0000      -7.977571      -217.0807
  24   1.0000      -7.976862      -217.0614
  25   1.0000      -7.976776      -217.0591
  26   1.0000      -7.975416      -217.0221
  27   1.0000      -7.974577      -216.9993
  28   1.0000      -7.974488      -216.9969
  29   1.0000      -4.150555      -112.9423
  30   1.0000      -2.672167       -72.7134
  31   1.0000      -2.672110       -72.7118
  32   1.0000      -2.671596       -72.6978
  33   1.0000      -1.441105       -39.2145
  34   1.0000      -1.137796       -30.9610
  35   1.0000      -1.092967       -29.7411
  36   1.0000      -1.047379       -28.5006
  37   1.0000      -1.034976       -28.1631
  38   1.0000      -1.031311       -28.0634
  39   1.0000      -1.025224       -27.8978
  40   1.0000      -1.005260       -27.3545
  41   1.0000      -0.967909       -26.3381
  42   1.0000      -0.903445       -24.5840
  43   1.0000      -0.822059       -22.3694
  44   1.0000      -0.739835       -20.1319
  45   1.0000      -0.706639       -19.2286
  46   1.0000      -0.693528       -18.8719
  47   1.0000      -0.681938       -18.5565
  48   1.0000      -0.662546       -18.0288
  49   1.0000      -0.629008       -17.1162
  50   1.0000      -0.621041       -16.8994
  51   1.0000      -0.605387       -16.4734
  52   1.0000      -0.597447       -16.2574
  53   1.0000      -0.583667       -15.8824
  54   1.0000      -0.574504       -15.6331
  55   1.0000      -0.561067       -15.2674
  56   1.0000      -0.558872       -15.2077
  57   1.0000      -0.547869       -14.9083
  58   1.0000      -0.543670       -14.7940
  59   1.0000      -0.532038       -14.4775
  60   1.0000      -0.520145       -14.1539
  61   1.0000      -0.502635       -13.6774
  62   1.0000      -0.498140       -13.5551
  63   1.0000      -0.481246       -13.0954
  64   1.0000      -0.478284       -13.0148
  65   1.0000      -0.450837       -12.2679
  66   1.0000      -0.447006       -12.1637
  67   1.0000      -0.444349       -12.0913
  68   1.0000      -0.428621       -11.6634
  69   1.0000      -0.424789       -11.5591
  70   1.0000      -0.409985       -11.1563
  71   1.0000      -0.365093        -9.9347
  72   0.0000       0.012034         0.3275
  73   0.0000       0.022473         0.6115
  74   0.0000       0.023576         0.6415
  75   0.0000       0.029827         0.8116
  76   0.0000       0.038421         1.0455

E(0)                                       ...  -3028.452792029
E(0)                                       ...  -3028.452792029
E(CORR)(strong-pairs)                      ...     -2.869680156
E(CORR)(weak-pairs)                        ...     -0.036289948
E(CORR)(corrected)                         ...     -2.905970103
E(TOT)                                     ...  -3031.358762132
E(CCSD(T))                                 ...  -3031.477511908
FINAL SINGLE POINT ENERGY     -3031.477511908050

DIPOLE MOMENT
-------------
                                X             Y             Z
Electronic contribution:    -43.42712      -5.36263       1.02662
Nuclear contribution   :     47.14074       6.58886      -1.59367
                        -----------------------------------------
Total Dipole Moment    :      3.71362       1.22623      -0.56705
                        -----------------------------------------
Magnitude (a.u.)       :      3.95173
Magnitude (Debye)      :     10.04451

Rotational constants in cm-1:     0.019073     0.010693     0.010067
Rotational constants in MHz :   571.788428   320.581106   301.800174

                             ****ORCA TERMINATED NORMALLY****
TOTAL RUN TIME: 0 days 17 hours 23 minutes 16 seconds 974 msec
