                         Program Version 4.1.2  - RELEASE  -
|  1> ! aug-cc-pVTZ aug-cc-pVTZ/C DLPNO-CCSD(T1) TightSCF NormalPNO UNO MiniPrint AutoAux
|  2> %pal nproc 10 end
|  3> %maxcore 20000
|  4> %mdci
|  5>      density none
|  6> end
|  7>
|  8> * xyz 0 6
|  9>  O     -0.35111200     -0.09956600     -0.51959600
| 10>  C     -1.28519500     -1.03996200     -0.45811600
| 11>  C     -3.03288100     -0.02520300     -0.11409100
| 12>  C     -2.18823200      1.07425100     -0.22436900
| 13>  C     -1.98632700      1.76641800     -1.52896000
| 14> Fe      1.43189900      0.04904800      0.04863400
| 15> Cl      1.99368200      2.01128500     -0.78441100
| 16>  C     -1.59910500      1.74455500      0.97104400
| 17> Cl      2.43123400     -1.73205000     -0.77423200
| 18> Cl      1.39826900      0.04275600      2.26236000
| 19>  H     -3.58163700     -0.28599900     -1.01645000
| 20>  H     -2.36562500      2.42820200      1.36724100
| 21>  H     -1.33658000      1.04885200      1.76895800
| 22>  H     -0.71698600      2.33105900      0.70883100
| 23>  H     -2.55752000      2.70600600     -1.47849100
| 24>  H     -0.93529200      2.02510800     -1.67938900
| 25>  H     -2.36368500      1.19313100     -2.37783700
| 26>  C     -3.70588500     -0.44119200      1.17215300
| 27>  H     -4.61068200      0.16093700      1.32612700
| 28>  H     -4.01955900     -1.48816400      1.13258400
| 29>  H     -3.07069100     -0.31045100      2.05049500
| 30>  C     -1.19951300     -1.97752600      0.71866000
| 31>  H     -2.05186600     -2.65562600      0.78349500
| 32>  H     -0.29335200     -2.57693300      0.54946700
| 33>  H     -1.05570800     -1.44386100      1.65878500
| 34>  C     -1.59550300     -1.68704900     -1.78730600
| 35>  H     -0.70086300     -2.26667000     -2.05354500
| 36>  H     -2.45388300     -2.36117100     -1.73391700
| 37>  H     -1.74484000     -0.94272800     -2.57135500
| 38> *
| 39>
| 40>
| 41>                          ****END OF INPUT****

CARTESIAN COORDINATES (ANGSTROEM)
---------------------------------
  O     -0.351112   -0.099566   -0.519596
  C     -1.285195   -1.039962   -0.458116
  C     -3.032881   -0.025203   -0.114091
  C     -2.188232    1.074251   -0.224369
  C     -1.986327    1.766418   -1.528960
  Fe     1.431899    0.049048    0.048634
  Cl     1.993682    2.011285   -0.784411
  C     -1.599105    1.744555    0.971044
  Cl     2.431234   -1.732050   -0.774232
  Cl     1.398269    0.042756    2.262360
  H     -3.581637   -0.285999   -1.016450
  H     -2.365625    2.428202    1.367241
  H     -1.336580    1.048852    1.768958
  H     -0.716986    2.331059    0.708831
  H     -2.557520    2.706006   -1.478491
  H     -0.935292    2.025108   -1.679389
  H     -2.363685    1.193131   -2.377837
  C     -3.705885   -0.441192    1.172153
  H     -4.610682    0.160937    1.326127
  H     -4.019559   -1.488164    1.132584
  H     -3.070691   -0.310451    2.050495
  C     -1.199513   -1.977526    0.718660
  H     -2.051866   -2.655626    0.783495
  H     -0.293352   -2.576933    0.549467
  H     -1.055708   -1.443861    1.658785
  C     -1.595503   -1.687049   -1.787306
  H     -0.700863   -2.266670   -2.053545
  H     -2.453883   -2.361171   -1.733917
  H     -1.744840   -0.942728   -2.571355

ORBITAL ENERGIES
----------------
                 SPIN UP ORBITALS
  NO   OCC          E(Eh)            E(eV)
   0   1.0000    -261.554619     -7117.2630
   1   1.0000    -104.778425     -2851.1659
   2   1.0000    -104.778366     -2851.1643
   3   1.0000    -104.777701     -2851.1462
   4   1.0000     -32.222498      -876.8188
   5   1.0000     -27.698522      -753.7151
   6   1.0000     -27.698123      -753.7043
   7   1.0000     -27.697928      -753.6989
   8   1.0000     -20.560067      -559.4679
   9   1.0000     -11.396986      -310.1277
  10   1.0000     -11.353833      -308.9535
  11   1.0000     -11.273112      -306.7570
  12   1.0000     -11.264139      -306.5128
  13   1.0000     -11.260745      -306.4205
  14   1.0000     -11.259559      -306.3882
  15   1.0000     -11.259258      -306.3800
  16   1.0000     -11.255001      -306.2641
  17   1.0000     -10.505026      -285.8563
  18   1.0000     -10.504883      -285.8524
  19   1.0000     -10.504249      -285.8351
  20   1.0000      -7.971910      -216.9267
  21   1.0000      -7.971690      -216.9207
  22   1.0000      -7.971086      -216.9043
  23   1.0000      -7.971082      -216.9042
  24   1.0000      -7.971030      -216.9028
  25   1.0000      -7.970987      -216.9016
  26   1.0000      -7.970900      -216.8992
  27   1.0000      -7.970350      -216.8843
  28   1.0000      -7.970265      -216.8819
  29   1.0000      -4.577926      -124.5717
  30   1.0000      -3.190698       -86.8233
  31   1.0000      -3.189909       -86.8018
  32   1.0000      -3.189395       -86.7879
  33   1.0000      -1.407332       -38.2955
  34   1.0000      -1.167920       -31.7807
  35   1.0000      -1.088684       -29.6246
  36   1.0000      -1.050864       -28.5955
  37   1.0000      -1.045258       -28.4429
  38   1.0000      -1.044054       -28.4101
  39   1.0000      -1.038961       -28.2716
  40   1.0000      -0.999014       -27.1846
  41   1.0000      -0.986059       -26.8320
  42   1.0000      -0.931850       -25.3569
  43   1.0000      -0.917262       -24.9600
  44   1.0000      -0.907539       -24.6954
  45   1.0000      -0.907501       -24.6944
  46   1.0000      -0.898468       -24.4486
  47   1.0000      -0.897945       -24.4343
  48   1.0000      -0.788313       -21.4511
  49   1.0000      -0.760036       -20.6816
  50   1.0000      -0.697406       -18.9774
  51   1.0000      -0.692325       -18.8391
  52   1.0000      -0.679413       -18.4878
  53   1.0000      -0.659876       -17.9561
  54   1.0000      -0.642802       -17.4915
  55   1.0000      -0.622353       -16.9351
  56   1.0000      -0.600847       -16.3499
  57   1.0000      -0.593785       -16.1577
  58   1.0000      -0.586290       -15.9538
  59   1.0000      -0.580841       -15.8055
  60   1.0000      -0.573287       -15.5999
  61   1.0000      -0.566786       -15.4230
  62   1.0000      -0.554315       -15.0837
  63   1.0000      -0.549926       -14.9642
  64   1.0000      -0.541435       -14.7332
  65   1.0000      -0.527422       -14.3519
  66   1.0000      -0.512584       -13.9481
  67   1.0000      -0.482914       -13.1408
  68   1.0000      -0.466004       -12.6806
  69   1.0000      -0.454884       -12.3780
  70   1.0000      -0.433621       -11.7994
  71   1.0000      -0.428513       -11.6604
  72   1.0000      -0.426163       -11.5965
  73   1.0000      -0.419200       -11.4070
  74   1.0000      -0.416932       -11.3453
  75   1.0000      -0.416223       -11.3260
  76   1.0000      -0.378202       -10.2914
  77   0.0000       0.010034         0.2730
  78   0.0000       0.020663         0.5623
  79   0.0000       0.022537         0.6133
  80   0.0000       0.030318         0.8250
  81   0.0000       0.038254         1.0409

                 SPIN DOWN ORBITALS
  NO   OCC          E(Eh)            E(eV)
   0   1.0000    -261.551071     -7117.1665
   1   1.0000    -104.777025     -2851.1278
   2   1.0000    -104.776996     -2851.1270
   3   1.0000    -104.776263     -2851.1071
   4   1.0000     -32.060477      -872.4099
   5   1.0000     -27.538489      -749.3604
   6   1.0000     -27.538371      -749.3572
   7   1.0000     -27.537976      -749.3464
   8   1.0000     -20.554935      -559.3282
   9   1.0000     -11.396954      -310.1269
  10   1.0000     -11.353841      -308.9537
  11   1.0000     -11.272710      -306.7460
  12   1.0000     -11.264125      -306.5124
  13   1.0000     -11.260761      -306.4209
  14   1.0000     -11.259602      -306.3893
  15   1.0000     -11.259165      -306.3775
  16   1.0000     -11.254963      -306.2631
  17   1.0000     -10.503523      -285.8154
  18   1.0000     -10.503418      -285.8125
  19   1.0000     -10.502709      -285.7932
  20   1.0000      -7.969411      -216.8587
  21   1.0000      -7.969393      -216.8582
  22   1.0000      -7.968842      -216.8432
  23   1.0000      -7.968767      -216.8412
  24   1.0000      -7.968702      -216.8394
  25   1.0000      -7.968640      -216.8377
  26   1.0000      -7.968610      -216.8369
  27   1.0000      -7.967968      -216.8194
  28   1.0000      -7.967886      -216.8172
  29   1.0000      -4.135713      -112.5385
  30   1.0000      -2.657458       -72.3131
  31   1.0000      -2.657361       -72.3105
  32   1.0000      -2.656875       -72.2973
  33   1.0000      -1.394255       -37.9396
  34   1.0000      -1.166696       -31.7474
  35   1.0000      -1.085982       -29.5511
  36   1.0000      -1.038207       -28.2510
  37   1.0000      -1.036231       -28.1973
  38   1.0000      -1.024685       -27.8831
  39   1.0000      -1.023845       -27.8602
  40   1.0000      -0.998441       -27.1690
  41   1.0000      -0.985760       -26.8239
  42   1.0000      -0.926883       -25.2218
  43   1.0000      -0.801292       -21.8043
  44   1.0000      -0.760581       -20.6965
  45   1.0000      -0.696916       -18.9640
  46   1.0000      -0.693210       -18.8632
  47   1.0000      -0.680826       -18.5262
  48   1.0000      -0.659130       -17.9358
  49   1.0000      -0.642580       -17.4855
  50   1.0000      -0.622357       -16.9352
  51   1.0000      -0.599883       -16.3236
  52   1.0000      -0.593547       -16.1512
  53   1.0000      -0.586206       -15.9515
  54   1.0000      -0.580683       -15.8012
  55   1.0000      -0.573047       -15.5934
  56   1.0000      -0.566649       -15.4193
  57   1.0000      -0.553710       -15.0672
  58   1.0000      -0.549570       -14.9546
  59   1.0000      -0.536175       -14.5901
  60   1.0000      -0.526969       -14.3396
  61   1.0000      -0.506711       -13.7883
  62   1.0000      -0.479285       -13.0420
  63   1.0000      -0.469852       -12.7853
  64   1.0000      -0.465744       -12.6735
  65   1.0000      -0.440289       -11.9809
  66   1.0000      -0.437697       -11.9103
  67   1.0000      -0.435736       -11.8570
  68   1.0000      -0.423941       -11.5360
  69   1.0000      -0.415332       -11.3018
  70   1.0000      -0.402899       -10.9635
  71   1.0000      -0.376380       -10.2418
  72   0.0000       0.010035         0.2731
  73   0.0000       0.020612         0.5609
  74   0.0000       0.022516         0.6127
  75   0.0000       0.030354         0.8260
  76   0.0000       0.038228         1.0402

E(0)                                       ...  -3028.418456889
E(0)                                       ...  -3028.418456889
E(CORR)(strong-pairs)                      ...     -2.873346250
E(CORR)(weak-pairs)                        ...     -0.035364660
E(CORR)(corrected)                         ...     -2.908710910
E(TOT)                                     ...  -3031.327167799
E(CCSD(T))                                 ...  -3031.446930321
FINAL SINGLE POINT ENERGY     -3031.446930321320

DIPOLE MOMENT
-------------
                                X             Y             Z
Electronic contribution:     41.53058       2.82125       2.17839
Nuclear contribution   :    -45.93506      -2.97557      -2.66517
                        -----------------------------------------
Total Dipole Moment    :     -4.40448      -0.15432      -0.48678
                        -----------------------------------------
Magnitude (a.u.)       :      4.43398
Magnitude (Debye)      :     11.27029

Rotational constants in cm-1:     0.019489     0.011401     0.010578
Rotational constants in MHz :   584.279249   341.793180   317.130199

                             ****ORCA TERMINATED NORMALLY****
TOTAL RUN TIME: 0 days 20 hours 53 minutes 48 seconds 806 msec
