                         Program Version 4.1.2  - RELEASE  -
|  1> ! aug-cc-pVTZ aug-cc-pVTZ/C DLPNO-CCSD(T1) TightSCF NormalPNO UNO MiniPrint AutoAux
|  2> %pal nproc 10 end
|  3> %maxcore 20000
|  4> %mdci
|  5>      density none
|  6> end
|  7>
|  8> * xyz 0 6
|  9>  O      0.15536300      0.40095600     -0.88958100
| 10>  C      0.97203200      1.33336100     -0.68595200
| 11>  C      3.00616800      0.20750200      0.58575500
| 12>  C      2.74528400     -0.90833700     -0.12931500
| 13>  C      3.32948900     -1.12054000     -1.49875700
| 14> Fe     -1.50209600     -0.17594600     -0.00184700
| 15> Cl     -2.03347600     -2.02414100     -1.01808600
| 16>  C      1.84567500     -2.01265300      0.34267600
| 17> Cl     -2.79377500      1.54770700     -0.38146000
| 18> Cl     -1.07032500     -0.43698300      2.13465100
| 19>  H      3.70616500      0.92177600      0.15182100
| 20>  H      2.38572600     -2.96840200      0.34415600
| 21>  H      1.43558900     -1.84780300      1.33878200
| 22>  H      1.00560600     -2.13613900     -0.35488000
| 23>  H      3.92981800     -2.03961200     -1.51098400
| 24>  H      2.53694300     -1.26242600     -2.24619400
| 25>  H      3.97354000     -0.29455100     -1.81305400
| 26>  C      2.69375400      0.41701600      2.04589400
| 27>  H      3.46798500     -0.05766400      2.66370400
| 28>  H      2.69303900      1.47877800      2.30796800
| 29>  H      1.73158000     -0.00472000      2.34529300
| 30>  C      0.77863300      2.27418400      0.46276500
| 31>  H      1.66614100      2.87578100      0.66048900
| 32>  H     -0.04010300      2.94511700      0.16196200
| 33>  H      0.45441700      1.75422200      1.36437000
| 34>  C      1.81866300      1.77586100     -1.84238900
| 35>  H      1.22778300      2.53653800     -2.37377400
| 36>  H      2.75188800      2.24090800     -1.52325300
| 37>  H      2.00605600      0.95487000     -2.53255200
| 38> *
| 39>
| 40>
| 41>                          ****END OF INPUT****

CARTESIAN COORDINATES (ANGSTROEM)
---------------------------------
  O      0.155363    0.400956   -0.889581
  C      0.972032    1.333361   -0.685952
  C      3.006168    0.207502    0.585755
  C      2.745284   -0.908337   -0.129315
  C      3.329489   -1.120540   -1.498757
  Fe    -1.502096   -0.175946   -0.001847
  Cl    -2.033476   -2.024141   -1.018086
  C      1.845675   -2.012653    0.342676
  Cl    -2.793775    1.547707   -0.381460
  Cl    -1.070325   -0.436983    2.134651
  H      3.706165    0.921776    0.151821
  H      2.385726   -2.968402    0.344156
  H      1.435589   -1.847803    1.338782
  H      1.005606   -2.136139   -0.354880
  H      3.929818   -2.039612   -1.510984
  H      2.536943   -1.262426   -2.246194
  H      3.973540   -0.294551   -1.813054
  C      2.693754    0.417016    2.045894
  H      3.467985   -0.057664    2.663704
  H      2.693039    1.478778    2.307968
  H      1.731580   -0.004720    2.345293
  C      0.778633    2.274184    0.462765
  H      1.666141    2.875781    0.660489
  H     -0.040103    2.945117    0.161962
  H      0.454417    1.754222    1.364370
  C      1.818663    1.775861   -1.842389
  H      1.227783    2.536538   -2.373774
  H      2.751888    2.240908   -1.523253
  H      2.006056    0.954870   -2.532552

ORBITAL ENERGIES
----------------
                 SPIN UP ORBITALS
  NO   OCC          E(Eh)            E(eV)
   0   1.0000    -261.575136     -7117.8213
   1   1.0000    -104.793908     -2851.5872
   2   1.0000    -104.790410     -2851.4920
   3   1.0000    -104.788082     -2851.4287
   4   1.0000     -32.242861      -877.3729
   5   1.0000     -27.719344      -754.2817
   6   1.0000     -27.718208      -754.2508
   7   1.0000     -27.717991      -754.2449
   8   1.0000     -20.621257      -561.1329
   9   1.0000     -11.421660      -310.7992
  10   1.0000     -11.277718      -306.8823
  11   1.0000     -11.272834      -306.7494
  12   1.0000     -11.268376      -306.6281
  13   1.0000     -11.244623      -305.9817
  14   1.0000     -11.244491      -305.9782
  15   1.0000     -11.235356      -305.7296
  16   1.0000     -11.230365      -305.5938
  17   1.0000     -10.520640      -286.2812
  18   1.0000     -10.517096      -286.1847
  19   1.0000     -10.514722      -286.1201
  20   1.0000      -7.987471      -217.3501
  21   1.0000      -7.986718      -217.3296
  22   1.0000      -7.986670      -217.3283
  23   1.0000      -7.983962      -217.2547
  24   1.0000      -7.983198      -217.2339
  25   1.0000      -7.983147      -217.2325
  26   1.0000      -7.981514      -217.1880
  27   1.0000      -7.980856      -217.1701
  28   1.0000      -7.980801      -217.1686
  29   1.0000      -4.597753      -125.1112
  30   1.0000      -3.210925       -87.3737
  31   1.0000      -3.209167       -87.3259
  32   1.0000      -3.208973       -87.3206
  33   1.0000      -1.463915       -39.8352
  34   1.0000      -1.126640       -30.6574
  35   1.0000      -1.100257       -29.9395
  36   1.0000      -1.066899       -29.0318
  37   1.0000      -1.060960       -28.8702
  38   1.0000      -1.057679       -28.7809
  39   1.0000      -1.021987       -27.8097
  40   1.0000      -1.009128       -27.4598
  41   1.0000      -0.959068       -26.0976
  42   1.0000      -0.942596       -25.6493
  43   1.0000      -0.926704       -25.2169
  44   1.0000      -0.926530       -25.2122
  45   1.0000      -0.915912       -24.9232
  46   1.0000      -0.915226       -24.9046
  47   1.0000      -0.895930       -24.3795
  48   1.0000      -0.814229       -22.1563
  49   1.0000      -0.730220       -19.8703
  50   1.0000      -0.712149       -19.3786
  51   1.0000      -0.702050       -19.1037
  52   1.0000      -0.683178       -18.5902
  53   1.0000      -0.655101       -17.8262
  54   1.0000      -0.621484       -16.9114
  55   1.0000      -0.620589       -16.8871
  56   1.0000      -0.605456       -16.4753
  57   1.0000      -0.599814       -16.3218
  58   1.0000      -0.585840       -15.9415
  59   1.0000      -0.578269       -15.7355
  60   1.0000      -0.561011       -15.2659
  61   1.0000      -0.552449       -15.0329
  62   1.0000      -0.545740       -14.8503
  63   1.0000      -0.540864       -14.7177
  64   1.0000      -0.537322       -14.6213
  65   1.0000      -0.525568       -14.3014
  66   1.0000      -0.503702       -13.7064
  67   1.0000      -0.493141       -13.4191
  68   1.0000      -0.476985       -12.9794
  69   1.0000      -0.476064       -12.9544
  70   1.0000      -0.446687       -12.1550
  71   1.0000      -0.440410       -11.9842
  72   1.0000      -0.438419       -11.9300
  73   1.0000      -0.430022       -11.7015
  74   1.0000      -0.428924       -11.6716
  75   1.0000      -0.427498       -11.6328
  76   1.0000      -0.359864        -9.7924
  77   0.0000       0.012509         0.3404
  78   0.0000       0.023489         0.6392
  79   0.0000       0.024189         0.6582
  80   0.0000       0.030579         0.8321
  81   0.0000       0.039202         1.0668

                 SPIN DOWN ORBITALS
  NO   OCC          E(Eh)            E(eV)
   0   1.0000    -261.571551     -7117.7238
   1   1.0000    -104.792419     -2851.5467
   2   1.0000    -104.788852     -2851.4496
   3   1.0000    -104.786515     -2851.3860
   4   1.0000     -32.080864      -872.9647
   5   1.0000     -27.558789      -749.9128
   6   1.0000     -27.558703      -749.9104
   7   1.0000     -27.558600      -749.9076
   8   1.0000     -20.617726      -561.0368
   9   1.0000     -11.421585      -310.7971
  10   1.0000     -11.277610      -306.8794
  11   1.0000     -11.272822      -306.7491
  12   1.0000     -11.268384      -306.6283
  13   1.0000     -11.244596      -305.9810
  14   1.0000     -11.244490      -305.9781
  15   1.0000     -11.235356      -305.7296
  16   1.0000     -11.230375      -305.5940
  17   1.0000     -10.519049      -286.2379
  18   1.0000     -10.515434      -286.1395
  19   1.0000     -10.513058      -286.0748
  20   1.0000      -7.984968      -217.2820
  21   1.0000      -7.984231      -217.2620
  22   1.0000      -7.984193      -217.2609
  23   1.0000      -7.981328      -217.1830
  24   1.0000      -7.980616      -217.1636
  25   1.0000      -7.980528      -217.1612
  26   1.0000      -7.979046      -217.1209
  27   1.0000      -7.978156      -217.0967
  28   1.0000      -7.978071      -217.0943
  29   1.0000      -4.155670      -113.0815
  30   1.0000      -2.677236       -72.8513
  31   1.0000      -2.677186       -72.8499
  32   1.0000      -2.676753       -72.8382
  33   1.0000      -1.455285       -39.6003
  34   1.0000      -1.126336       -30.6492
  35   1.0000      -1.097859       -29.8743
  36   1.0000      -1.051161       -28.6035
  37   1.0000      -1.038594       -28.2616
  38   1.0000      -1.034962       -28.1627
  39   1.0000      -1.021196       -27.7881
  40   1.0000      -1.008727       -27.4488
  41   1.0000      -0.958995       -26.0956
  42   1.0000      -0.896036       -24.3824
  43   1.0000      -0.827670       -22.5220
  44   1.0000      -0.730296       -19.8724
  45   1.0000      -0.714070       -19.4308
  46   1.0000      -0.701206       -19.0808
  47   1.0000      -0.682575       -18.5738
  48   1.0000      -0.655045       -17.8247
  49   1.0000      -0.621417       -16.9096
  50   1.0000      -0.620084       -16.8733
  51   1.0000      -0.605231       -16.4692
  52   1.0000      -0.599681       -16.3182
  53   1.0000      -0.585484       -15.9318
  54   1.0000      -0.576646       -15.6913
  55   1.0000      -0.560389       -15.2490
  56   1.0000      -0.552136       -15.0244
  57   1.0000      -0.544673       -14.8213
  58   1.0000      -0.540583       -14.7100
  59   1.0000      -0.527170       -14.3450
  60   1.0000      -0.523691       -14.2504
  61   1.0000      -0.505690       -13.7605
  62   1.0000      -0.493133       -13.4188
  63   1.0000      -0.485141       -13.2013
  64   1.0000      -0.482212       -13.1216
  65   1.0000      -0.454211       -12.3597
  66   1.0000      -0.450523       -12.2594
  67   1.0000      -0.447640       -12.1809
  68   1.0000      -0.431462       -11.7407
  69   1.0000      -0.428658       -11.6644
  70   1.0000      -0.413120       -11.2416
  71   1.0000      -0.359349        -9.7784
  72   0.0000       0.012492         0.3399
  73   0.0000       0.023464         0.6385
  74   0.0000       0.024148         0.6571
  75   0.0000       0.030498         0.8299
  76   0.0000       0.039092         1.0637

E(0)                                       ...  -3028.466412414
E(0)                                       ...  -3028.466412414
E(CORR)(strong-pairs)                      ...     -2.866571964
E(CORR)(weak-pairs)                        ...     -0.035366471
E(CORR)(corrected)                         ...     -2.901938435
E(TOT)                                     ...  -3031.368350849
E(CCSD(T))                                 ...  -3031.486234657
FINAL SINGLE POINT ENERGY     -3031.486234656513

DIPOLE MOMENT
-------------
                                X             Y             Z
Electronic contribution:    -43.99004      -5.34315       1.36955
Nuclear contribution   :     47.32767       6.82464      -1.99912
                        -----------------------------------------
Total Dipole Moment    :      3.33763       1.48149      -0.62958
                        -----------------------------------------
Magnitude (a.u.)       :      3.70553
Magnitude (Debye)      :      9.41871

Rotational constants in cm-1:     0.018880     0.010564     0.009932
Rotational constants in MHz :   566.016939   316.686223   297.739118

                             ****ORCA TERMINATED NORMALLY****
TOTAL RUN TIME: 0 days 17 hours 2 minutes 4 seconds 137 msec
