                         Program Version 4.1.2  - RELEASE  -
|  1> ! aug-cc-pVTZ aug-cc-pVTZ/C DLPNO-CCSD(T1) TightSCF NormalPNO UNO MiniPrint AutoAux
|  2> %pal nproc 10 end
|  3> %maxcore 20000
|  4> %mdci
|  5>      density none
|  6> end
|  7>
|  8> * xyz 0 6
|  9>  O      0.25486900      0.29350900     -0.82797700
| 10>  C      1.06053500      1.24682500     -0.65728200
| 11>  C      3.04634800      0.10170200      0.45974000
| 12>  C      2.54656600     -0.97858600     -0.17998200
| 13>  C      2.92752100     -1.30566000     -1.59611300
| 14> Fe     -1.45911700     -0.13674300      0.02124800
| 15> Cl     -2.08666300     -1.99355000     -0.92677700
| 16>  C      1.63004100     -1.97962600      0.45548900
| 17> Cl     -2.63515800      1.63853700     -0.49139300
| 18> Cl     -1.13167900     -0.30235100      2.18888600
| 19>  H      3.77143800      0.70963800     -0.08058200
| 20>  H      2.16453500     -2.93141400      0.58002400
| 21>  H      1.25039000     -1.67551300      1.43009900
| 22>  H      0.77685100     -2.19217500     -0.19960100
| 23>  H      3.36799900     -2.31012400     -1.63727400
| 24>  H      2.03774200     -1.33274600     -2.23878700
| 25>  H      3.65424900     -0.60252500     -2.01179300
| 26>  C      2.93687700      0.38631000      1.93506700
| 27>  H      3.75477400     -0.11221400      2.47271600
| 28>  H      3.02859800      1.45574600      2.14692000
| 29>  H      1.99822300      0.03464700      2.37057800
| 30>  C      0.89111500      2.19270300      0.49195400
| 31>  H      1.77693500      2.80741600      0.65470800
| 32>  H      0.05597700      2.85233400      0.21181900
| 33>  H      0.60252100      1.67745400      1.40782900
| 34>  C      1.83010900      1.73092200     -1.85184200
| 35>  H      1.18519600      2.48117500     -2.33278300
| 36>  H      2.76477500      2.22125600     -1.57664600
| 37>  H      2.00271900      0.93194200     -2.57023400
| 38> *
| 39>
| 40>
| 41>                          ****END OF INPUT****

CARTESIAN COORDINATES (ANGSTROEM)
---------------------------------
  O      0.254869    0.293509   -0.827977
  C      1.060535    1.246825   -0.657282
  C      3.046348    0.101702    0.459740
  C      2.546566   -0.978586   -0.179982
  C      2.927521   -1.305660   -1.596113
  Fe    -1.459117   -0.136743    0.021248
  Cl    -2.086663   -1.993550   -0.926777
  C      1.630041   -1.979626    0.455489
  Cl    -2.635158    1.638537   -0.491393
  Cl    -1.131679   -0.302351    2.188886
  H      3.771438    0.709638   -0.080582
  H      2.164535   -2.931414    0.580024
  H      1.250390   -1.675513    1.430099
  H      0.776851   -2.192175   -0.199601
  H      3.367999   -2.310124   -1.637274
  H      2.037742   -1.332746   -2.238787
  H      3.654249   -0.602525   -2.011793
  C      2.936877    0.386310    1.935067
  H      3.754774   -0.112214    2.472716
  H      3.028598    1.455746    2.146920
  H      1.998223    0.034647    2.370578
  C      0.891115    2.192703    0.491954
  H      1.776935    2.807416    0.654708
  H      0.055977    2.852334    0.211819
  H      0.602521    1.677454    1.407829
  C      1.830109    1.730922   -1.851842
  H      1.185196    2.481175   -2.332783
  H      2.764775    2.221256   -1.576646
  H      2.002719    0.931942   -2.570234

ORBITAL ENERGIES
----------------
                 SPIN UP ORBITALS
  NO   OCC          E(Eh)            E(eV)
   0   1.0000    -261.574354     -7117.8000
   1   1.0000    -104.792685     -2851.5539
   2   1.0000    -104.789570     -2851.4692
   3   1.0000    -104.787906     -2851.4239
   4   1.0000     -32.242072      -877.3514
   5   1.0000     -27.718506      -754.2589
   6   1.0000     -27.717437      -754.2298
   7   1.0000     -27.717260      -754.2250
   8   1.0000     -20.613654      -560.9260
   9   1.0000     -11.421254      -310.7881
  10   1.0000     -11.276535      -306.8501
  11   1.0000     -11.273368      -306.7639
  12   1.0000     -11.270496      -306.6858
  13   1.0000     -11.246048      -306.0205
  14   1.0000     -11.244781      -305.9860
  15   1.0000     -11.239440      -305.8407
  16   1.0000     -11.231297      -305.6191
  17   1.0000     -10.519395      -286.2473
  18   1.0000     -10.516253      -286.1618
  19   1.0000     -10.514539      -286.1152
  20   1.0000      -7.986232      -217.3164
  21   1.0000      -7.985469      -217.2957
  22   1.0000      -7.985419      -217.2943
  23   1.0000      -7.983137      -217.2322
  24   1.0000      -7.982346      -217.2107
  25   1.0000      -7.982287      -217.2091
  26   1.0000      -7.981328      -217.1830
  27   1.0000      -7.980663      -217.1649
  28   1.0000      -7.980616      -217.1636
  29   1.0000      -4.596967      -125.0898
  30   1.0000      -3.210060       -87.3502
  31   1.0000      -3.208412       -87.3053
  32   1.0000      -3.208258       -87.3011
  33   1.0000      -1.459581       -39.7172
  34   1.0000      -1.130706       -30.7681
  35   1.0000      -1.099933       -29.9307
  36   1.0000      -1.065664       -28.9982
  37   1.0000      -1.059945       -28.8426
  38   1.0000      -1.057266       -28.7697
  39   1.0000      -1.023250       -27.8440
  40   1.0000      -1.008909       -27.4538
  41   1.0000      -0.961242       -26.1567
  42   1.0000      -0.941330       -25.6149
  43   1.0000      -0.925910       -25.1953
  44   1.0000      -0.925816       -25.1927
  45   1.0000      -0.915253       -24.9053
  46   1.0000      -0.914630       -24.8883
  47   1.0000      -0.899571       -24.4786
  48   1.0000      -0.811496       -22.0819
  49   1.0000      -0.732527       -19.9331
  50   1.0000      -0.709748       -19.3132
  51   1.0000      -0.700274       -19.0554
  52   1.0000      -0.686114       -18.6701
  53   1.0000      -0.657955       -17.9039
  54   1.0000      -0.624049       -16.9812
  55   1.0000      -0.621672       -16.9165
  56   1.0000      -0.604281       -16.4433
  57   1.0000      -0.599385       -16.3101
  58   1.0000      -0.585496       -15.9321
  59   1.0000      -0.577812       -15.7231
  60   1.0000      -0.560915       -15.2633
  61   1.0000      -0.552829       -15.0432
  62   1.0000      -0.549322       -14.9478
  63   1.0000      -0.542406       -14.7596
  64   1.0000      -0.535096       -14.5607
  65   1.0000      -0.527970       -14.3668
  66   1.0000      -0.501465       -13.6455
  67   1.0000      -0.495909       -13.4944
  68   1.0000      -0.476032       -12.9535
  69   1.0000      -0.474836       -12.9210
  70   1.0000      -0.445526       -12.1234
  71   1.0000      -0.439677       -11.9642
  72   1.0000      -0.437934       -11.9168
  73   1.0000      -0.429237       -11.6801
  74   1.0000      -0.428224       -11.6526
  75   1.0000      -0.427086       -11.6216
  76   1.0000      -0.361167        -9.8278
  77   0.0000       0.012630         0.3437
  78   0.0000       0.023445         0.6380
  79   0.0000       0.024063         0.6548
  80   0.0000       0.030560         0.8316
  81   0.0000       0.039249         1.0680

                 SPIN DOWN ORBITALS
  NO   OCC          E(Eh)            E(eV)
   0   1.0000    -261.570780     -7117.7028
   1   1.0000    -104.791211     -2851.5138
   2   1.0000    -104.788025     -2851.4271
   3   1.0000    -104.786359     -2851.3818
   4   1.0000     -32.080073      -872.9432
   5   1.0000     -27.557985      -749.8909
   6   1.0000     -27.557928      -749.8894
   7   1.0000     -27.557799      -749.8858
   8   1.0000     -20.610061      -560.8283
   9   1.0000     -11.421164      -310.7857
  10   1.0000     -11.276426      -306.8471
  11   1.0000     -11.273391      -306.7646
  12   1.0000     -11.270489      -306.6856
  13   1.0000     -11.245975      -306.0185
  14   1.0000     -11.244777      -305.9859
  15   1.0000     -11.239448      -305.8409
  16   1.0000     -11.231312      -305.6195
  17   1.0000     -10.517819      -286.2044
  18   1.0000     -10.514603      -286.1169
  19   1.0000     -10.512895      -286.0704
  20   1.0000      -7.983733      -217.2484
  21   1.0000      -7.983018      -217.2290
  22   1.0000      -7.982974      -217.2278
  23   1.0000      -7.980478      -217.1599
  24   1.0000      -7.979810      -217.1417
  25   1.0000      -7.979717      -217.1391
  26   1.0000      -7.978885      -217.1165
  27   1.0000      -7.978004      -217.0925
  28   1.0000      -7.977923      -217.0903
  29   1.0000      -4.154843      -113.0590
  30   1.0000      -2.676408       -72.8288
  31   1.0000      -2.676372       -72.8278
  32   1.0000      -2.675878       -72.8143
  33   1.0000      -1.450695       -39.4754
  34   1.0000      -1.130362       -30.7587
  35   1.0000      -1.097563       -29.8662
  36   1.0000      -1.050205       -28.5775
  37   1.0000      -1.037709       -28.2375
  38   1.0000      -1.034736       -28.1566
  39   1.0000      -1.022661       -27.8280
  40   1.0000      -1.008271       -27.4365
  41   1.0000      -0.961110       -26.1531
  42   1.0000      -0.899777       -24.4842
  43   1.0000      -0.824252       -22.4290
  44   1.0000      -0.732598       -19.9350
  45   1.0000      -0.711984       -19.3741
  46   1.0000      -0.699408       -19.0318
  47   1.0000      -0.685385       -18.6503
  48   1.0000      -0.657876       -17.9017
  49   1.0000      -0.623979       -16.9793
  50   1.0000      -0.621134       -16.9019
  51   1.0000      -0.603981       -16.4351
  52   1.0000      -0.599312       -16.3081
  53   1.0000      -0.585246       -15.9253
  54   1.0000      -0.576739       -15.6939
  55   1.0000      -0.560030       -15.2392
  56   1.0000      -0.552759       -15.0413
  57   1.0000      -0.547206       -14.8902
  58   1.0000      -0.542375       -14.7588
  59   1.0000      -0.529435       -14.4067
  60   1.0000      -0.522003       -14.2044
  61   1.0000      -0.502788       -13.6815
  62   1.0000      -0.495742       -13.4898
  63   1.0000      -0.484083       -13.1726
  64   1.0000      -0.481823       -13.1111
  65   1.0000      -0.452832       -12.3222
  66   1.0000      -0.449906       -12.2426
  67   1.0000      -0.447048       -12.1648
  68   1.0000      -0.430753       -11.7214
  69   1.0000      -0.428328       -11.6554
  70   1.0000      -0.412572       -11.2266
  71   1.0000      -0.360411        -9.8073
  72   0.0000       0.012615         0.3433
  73   0.0000       0.023421         0.6373
  74   0.0000       0.024031         0.6539
  75   0.0000       0.030492         0.8297
  76   0.0000       0.039128         1.0647

E(0)                                       ...  -3028.457916553
E(0)                                       ...  -3028.457916553
E(CORR)(strong-pairs)                      ...     -2.869289095
E(CORR)(weak-pairs)                        ...     -0.035987408
E(CORR)(corrected)                         ...     -2.905276504
E(TOT)                                     ...  -3031.363193057
E(CCSD(T))                                 ...  -3031.481567019
FINAL SINGLE POINT ENERGY     -3031.481567018812

DIPOLE MOMENT
-------------
                                X             Y             Z
Electronic contribution:    -42.96341      -4.02133       1.83916
Nuclear contribution   :     46.39769       5.28319      -2.47626
                        -----------------------------------------
Total Dipole Moment    :      3.43428       1.26186      -0.63710
                        -----------------------------------------
Magnitude (a.u.)       :      3.71382
Magnitude (Debye)      :      9.43979

Rotational constants in cm-1:     0.018930     0.010935     0.010303
Rotational constants in MHz :   567.498872   327.821599   308.864013

                             ****ORCA TERMINATED NORMALLY****
TOTAL RUN TIME: 0 days 17 hours 59 minutes 14 seconds 16 msec
