                         Program Version 4.1.2  - RELEASE  -
|  1> ! aug-cc-pVTZ aug-cc-pVTZ/C DLPNO-CCSD(T1) TightSCF NormalPNO UNO MiniPrint AutoAux
|  2> %pal nproc 10 end
|  3> %maxcore 20000
|  4> %mdci
|  5>      density none
|  6> end
|  7>
|  8> * xyz 0 6
|  9>  O     -0.30528500     -0.11927600     -0.42055800
| 10>  C     -1.20859000     -1.06124200     -0.19985100
| 11>  C     -2.56251500     -0.30947100      0.81218900
| 12>  C     -3.07321900      0.66849800     -0.06281000
| 13>  C     -4.22080600      0.39161600     -0.96683500
| 14> Fe      1.52883800      0.17123000     -0.09823100
| 15> Cl      1.86365200      2.15557600     -0.98185100
| 16>  C     -2.36512400      1.95126800     -0.20216100
| 17> Cl      2.52837000     -1.51879100     -1.09205400
| 18> Cl      1.85001500      0.16366800      2.08899800
| 19>  H     -3.22407100     -1.16950300      0.92643300
| 20>  H     -2.83779500      2.64194100     -0.90232600
| 21>  H     -2.18719800      2.44128500      0.76065100
| 22>  H     -1.35017600      1.67647900     -0.56798000
| 23>  H     -5.05212000      1.04545300     -0.66217100
| 24>  H     -3.98596500      0.66732100     -2.00241400
| 25>  H     -4.56299500     -0.64362200     -0.92368900
| 26>  C     -1.90896200      0.15660900      2.11168500
| 27>  H     -2.55715300      0.87514400      2.62452100
| 28>  H     -1.75405500     -0.68683300      2.78561400
| 29>  H     -0.93920100      0.62595200      1.93652500
| 30>  C     -0.74228400     -2.18639700      0.72928500
| 31>  H     -1.55715500     -2.86080400      1.00543800
| 32>  H      0.00736900     -2.75358500      0.16491100
| 33>  H     -0.25402700     -1.79925700      1.62327900
| 34>  C     -1.81310100     -1.60010200     -1.49341800
| 35>  H     -1.03862700     -2.20002300     -1.98311700
| 36>  H     -2.68320900     -2.23922500     -1.31561600
| 37>  H     -2.07815600     -0.79087000     -2.17666600
| 38> *
| 39>
| 40>
| 41>                          ****END OF INPUT****

CARTESIAN COORDINATES (ANGSTROEM)
---------------------------------
  O     -0.305285   -0.119276   -0.420558
  C     -1.208590   -1.061242   -0.199851
  C     -2.562515   -0.309471    0.812189
  C     -3.073219    0.668498   -0.062810
  C     -4.220806    0.391616   -0.966835
  Fe     1.528838    0.171230   -0.098231
  Cl     1.863652    2.155576   -0.981851
  C     -2.365124    1.951268   -0.202161
  Cl     2.528370   -1.518791   -1.092054
  Cl     1.850015    0.163668    2.088998
  H     -3.224071   -1.169503    0.926433
  H     -2.837795    2.641941   -0.902326
  H     -2.187198    2.441285    0.760651
  H     -1.350176    1.676479   -0.567980
  H     -5.052120    1.045453   -0.662171
  H     -3.985965    0.667321   -2.002414
  H     -4.562995   -0.643622   -0.923689
  C     -1.908962    0.156609    2.111685
  H     -2.557153    0.875144    2.624521
  H     -1.754055   -0.686833    2.785614
  H     -0.939201    0.625952    1.936525
  C     -0.742284   -2.186397    0.729285
  H     -1.557155   -2.860804    1.005438
  H      0.007369   -2.753585    0.164911
  H     -0.254027   -1.799257    1.623279
  C     -1.813101   -1.600102   -1.493418
  H     -1.038627   -2.200023   -1.983117
  H     -2.683209   -2.239225   -1.315616
  H     -2.078156   -0.790870   -2.176666

ORBITAL ENERGIES
----------------
                 SPIN UP ORBITALS
  NO   OCC          E(Eh)            E(eV)
   0   1.0000    -261.544723     -7116.9937
   1   1.0000    -104.770661     -2850.9546
   2   1.0000    -104.768516     -2850.8963
   3   1.0000    -104.767670     -2850.8732
   4   1.0000     -32.212625      -876.5501
   5   1.0000     -27.688648      -753.4464
   6   1.0000     -27.688225      -753.4349
   7   1.0000     -27.688060      -753.4304
   8   1.0000     -20.551125      -559.2246
   9   1.0000     -11.377712      -309.6033
  10   1.0000     -11.371365      -309.4306
  11   1.0000     -11.298237      -307.4407
  12   1.0000     -11.285217      -307.0864
  13   1.0000     -11.273838      -306.7767
  14   1.0000     -11.251855      -306.1785
  15   1.0000     -11.251693      -306.1741
  16   1.0000     -11.242874      -305.9342
  17   1.0000     -10.497302      -285.6461
  18   1.0000     -10.495111      -285.5865
  19   1.0000     -10.494297      -285.5643
  20   1.0000      -7.964169      -216.7160
  21   1.0000      -7.963357      -216.6940
  22   1.0000      -7.963310      -216.6927
  23   1.0000      -7.961930      -216.6551
  24   1.0000      -7.961227      -216.6360
  25   1.0000      -7.961157      -216.6341
  26   1.0000      -7.961128      -216.6333
  27   1.0000      -7.960393      -216.6133
  28   1.0000      -7.960310      -216.6111
  29   1.0000      -4.568010      -124.3019
  30   1.0000      -3.180683       -86.5508
  31   1.0000      -3.180001       -86.5322
  32   1.0000      -3.179562       -86.5203
  33   1.0000      -1.387198       -37.7476
  34   1.0000      -1.191343       -32.4181
  35   1.0000      -1.080933       -29.4137
  36   1.0000      -1.046492       -28.4765
  37   1.0000      -1.041855       -28.3503
  38   1.0000      -1.036532       -28.2055
  39   1.0000      -1.034554       -28.1516
  40   1.0000      -1.014691       -27.6112
  41   1.0000      -0.975777       -26.5522
  42   1.0000      -0.929332       -25.2884
  43   1.0000      -0.911628       -24.8067
  44   1.0000      -0.897443       -24.4207
  45   1.0000      -0.897429       -24.4203
  46   1.0000      -0.888437       -24.1756
  47   1.0000      -0.888041       -24.1648
  48   1.0000      -0.792790       -21.5729
  49   1.0000      -0.769584       -20.9414
  50   1.0000      -0.704920       -19.1819
  51   1.0000      -0.693171       -18.8621
  52   1.0000      -0.669794       -18.2260
  53   1.0000      -0.658815       -17.9273
  54   1.0000      -0.653185       -17.7741
  55   1.0000      -0.633638       -17.2422
  56   1.0000      -0.605095       -16.4655
  57   1.0000      -0.600231       -16.3331
  58   1.0000      -0.590897       -16.0791
  59   1.0000      -0.581792       -15.8314
  60   1.0000      -0.576952       -15.6997
  61   1.0000      -0.563228       -15.3262
  62   1.0000      -0.557971       -15.1832
  63   1.0000      -0.540074       -14.6962
  64   1.0000      -0.535538       -14.5727
  65   1.0000      -0.521984       -14.2039
  66   1.0000      -0.505742       -13.7620
  67   1.0000      -0.468619       -12.7518
  68   1.0000      -0.457768       -12.4565
  69   1.0000      -0.444851       -12.1050
  70   1.0000      -0.425207       -11.5705
  71   1.0000      -0.421411       -11.4672
  72   1.0000      -0.417416       -11.3585
  73   1.0000      -0.409470       -11.1423
  74   1.0000      -0.407561       -11.0903
  75   1.0000      -0.407025       -11.0757
  76   1.0000      -0.400218       -10.8905
  77   0.0000       0.003206         0.0872
  78   0.0000       0.005255         0.1430
  79   0.0000       0.017806         0.4845
  80   0.0000       0.018852         0.5130
  81   0.0000       0.027660         0.7527

                 SPIN DOWN ORBITALS
  NO   OCC          E(Eh)            E(eV)
   0   1.0000    -261.541169     -7116.8970
   1   1.0000    -104.769269     -2850.9168
   2   1.0000    -104.767122     -2850.8583
   3   1.0000    -104.766233     -2850.8341
   4   1.0000     -32.050535      -872.1394
   5   1.0000     -27.528563      -749.0903
   6   1.0000     -27.528451      -749.0872
   7   1.0000     -27.528028      -749.0757
   8   1.0000     -20.546024      -559.0857
   9   1.0000     -11.377526      -309.5982
  10   1.0000     -11.371320      -309.4293
  11   1.0000     -11.298264      -307.4414
  12   1.0000     -11.285116      -307.0836
  13   1.0000     -11.273863      -306.7774
  14   1.0000     -11.251751      -306.1757
  15   1.0000     -11.251724      -306.1750
  16   1.0000     -11.242857      -305.9337
  17   1.0000     -10.495807      -285.6054
  18   1.0000     -10.493619      -285.5459
  19   1.0000     -10.492756      -285.5224
  20   1.0000      -7.961705      -216.6490
  21   1.0000      -7.961119      -216.6331
  22   1.0000      -7.961050      -216.6312
  23   1.0000      -7.959592      -216.5915
  24   1.0000      -7.958902      -216.5727
  25   1.0000      -7.958798      -216.5699
  26   1.0000      -7.958678      -216.5666
  27   1.0000      -7.958034      -216.5491
  28   1.0000      -7.957948      -216.5468
  29   1.0000      -4.125680      -112.2655
  30   1.0000      -2.647483       -72.0417
  31   1.0000      -2.647428       -72.0402
  32   1.0000      -2.646595       -72.0175
  33   1.0000      -1.374119       -37.3917
  34   1.0000      -1.190342       -32.3908
  35   1.0000      -1.078415       -29.3452
  36   1.0000      -1.045655       -28.4537
  37   1.0000      -1.027356       -27.9558
  38   1.0000      -1.015940       -27.6451
  39   1.0000      -1.014212       -27.5981
  40   1.0000      -1.014067       -27.5942
  41   1.0000      -0.975147       -26.5351
  42   1.0000      -0.928825       -25.2746
  43   1.0000      -0.801947       -21.8221
  44   1.0000      -0.774236       -21.0680
  45   1.0000      -0.705453       -19.1964
  46   1.0000      -0.692433       -18.8421
  47   1.0000      -0.669864       -18.2279
  48   1.0000      -0.661587       -18.0027
  49   1.0000      -0.651505       -17.7284
  50   1.0000      -0.633127       -17.2283
  51   1.0000      -0.605062       -16.4646
  52   1.0000      -0.600059       -16.3284
  53   1.0000      -0.590034       -16.0556
  54   1.0000      -0.581526       -15.8241
  55   1.0000      -0.576467       -15.6865
  56   1.0000      -0.562829       -15.3154
  57   1.0000      -0.558037       -15.1850
  58   1.0000      -0.539177       -14.6718
  59   1.0000      -0.535272       -14.5655
  60   1.0000      -0.517389       -14.0789
  61   1.0000      -0.498349       -13.5608
  62   1.0000      -0.466381       -12.6909
  63   1.0000      -0.460985       -12.5440
  64   1.0000      -0.454009       -12.3542
  65   1.0000      -0.431963       -11.7543
  66   1.0000      -0.429560       -11.6889
  67   1.0000      -0.427360       -11.6290
  68   1.0000      -0.423567       -11.5258
  69   1.0000      -0.406700       -11.0669
  70   1.0000      -0.393407       -10.7051
  71   1.0000      -0.392782       -10.6881
  72   0.0000       0.003210         0.0874
  73   0.0000       0.005231         0.1423
  74   0.0000       0.017803         0.4844
  75   0.0000       0.018827         0.5123
  76   0.0000       0.027660         0.7527

E(0)                                       ...  -3028.426984519
E(0)                                       ...  -3028.426984519
E(CORR)(strong-pairs)                      ...     -2.874453129
E(CORR)(weak-pairs)                        ...     -0.035692240
E(CORR)(corrected)                         ...     -2.910145369
E(TOT)                                     ...  -3031.337129888
E(CCSD(T))                                 ...  -3031.457331906
FINAL SINGLE POINT ENERGY     -3031.457331905915

DIPOLE MOMENT
-------------
                                X             Y             Z
Electronic contribution:     43.29761       6.39394      -1.61967
Nuclear contribution   :    -48.98479      -6.71805       1.58115
                        -----------------------------------------
Total Dipole Moment    :     -5.68718      -0.32411      -0.03852
                        -----------------------------------------
Magnitude (a.u.)       :      5.69654
Magnitude (Debye)      :     14.47945

Rotational constants in cm-1:     0.020121     0.010088     0.009661
Rotational constants in MHz :   603.218375   302.415952   289.620748

                             ****ORCA TERMINATED NORMALLY****
TOTAL RUN TIME: 0 days 21 hours 2 minutes 26 seconds 801 msec
