                         Program Version 4.1.2  - RELEASE  -
|  1> ! aug-cc-pVTZ aug-cc-pVTZ/C DLPNO-CCSD(T1) TightSCF NormalPNO UNO MiniPrint AutoAux
|  2> %pal nproc 10 end
|  3> %maxcore 20000
|  4> %mdci
|  5>      density none
|  6> end
|  7>
|  8> * xyz 0 6
|  9>  O      0.21915100      0.38219500     -0.84952200
| 10>  C      0.96840900      1.36453300     -0.65047900
| 11>  C      3.14934300      0.03201600      0.49316300
| 12>  C      2.59822100     -0.95964200     -0.23345100
| 13>  C      2.96790200     -1.17371600     -1.67681300
| 14> Fe     -1.47228300     -0.15863300      0.02747400
| 15> Cl     -2.08442100     -1.96119400     -1.02030600
| 16>  C      1.65854300     -1.99265300      0.31790800
| 17> Cl     -2.68605600      1.62152100     -0.36075500
| 18> Cl     -1.09150000     -0.43217100      2.17003800
| 19>  H      3.87889700      0.67098600     -0.00617300
| 20>  H      2.16649200     -2.96612500      0.35566800
| 21>  H      1.29220400     -1.76624600      1.31884000
| 22>  H      0.79540000     -2.12722900     -0.34470800
| 23>  H      3.41589200     -2.16765900     -1.80625700
| 24>  H      2.07473200     -1.15366600     -2.31490400
| 25>  H      3.68564600     -0.43248400     -2.04043300
| 26>  C      3.00691300      0.25606800      1.97394600
| 27>  H      3.84844800     -0.20202700      2.51169300
| 28>  H      3.02462300      1.32313300      2.22135900
| 29>  H      2.08670600     -0.16893500      2.38285300
| 30>  C      0.83473100      2.20680000      0.57772700
| 31>  H      1.71876000      2.82222000      0.74913400
| 32>  H     -0.02630200      2.87010200      0.40614400
| 33>  H      0.60750200      1.60204000      1.45629800
| 34>  C      1.77665100      1.88957700     -1.79593000
| 35>  H      1.20515300      2.73122700     -2.21474500
| 36>  H      2.74268300      2.27758900     -1.46871700
| 37>  H      1.89865900      1.13740800     -2.57324800
| 38> *
| 39>
| 40>
| 41>                          ****END OF INPUT****

CARTESIAN COORDINATES (ANGSTROEM)
---------------------------------
  O      0.219151    0.382195   -0.849522
  C      0.968409    1.364533   -0.650479
  C      3.149343    0.032016    0.493163
  C      2.598221   -0.959642   -0.233451
  C      2.967902   -1.173716   -1.676813
  Fe    -1.472283   -0.158633    0.027474
  Cl    -2.084421   -1.961194   -1.020306
  C      1.658543   -1.992653    0.317908
  Cl    -2.686056    1.621521   -0.360755
  Cl    -1.091500   -0.432171    2.170038
  H      3.878897    0.670986   -0.006173
  H      2.166492   -2.966125    0.355668
  H      1.292204   -1.766246    1.318840
  H      0.795400   -2.127229   -0.344708
  H      3.415892   -2.167659   -1.806257
  H      2.074732   -1.153666   -2.314904
  H      3.685646   -0.432484   -2.040433
  C      3.006913    0.256068    1.973946
  H      3.848448   -0.202027    2.511693
  H      3.024623    1.323133    2.221359
  H      2.086706   -0.168935    2.382853
  C      0.834731    2.206800    0.577727
  H      1.718760    2.822220    0.749134
  H     -0.026302    2.870102    0.406144
  H      0.607502    1.602040    1.456298
  C      1.776651    1.889577   -1.795930
  H      1.205153    2.731227   -2.214745
  H      2.742683    2.277589   -1.468717
  H      1.898659    1.137408   -2.573248

ORBITAL ENERGIES
----------------
                 SPIN UP ORBITALS
  NO   OCC          E(Eh)            E(eV)
   0   1.0000    -261.578255     -7117.9062
   1   1.0000    -104.795209     -2851.6226
   2   1.0000    -104.792291     -2851.5432
   3   1.0000    -104.790485     -2851.4941
   4   1.0000     -32.245915      -877.4559
   5   1.0000     -27.722440      -754.3660
   6   1.0000     -27.721229      -754.3330
   7   1.0000     -27.721042      -754.3279
   8   1.0000     -20.624506      -561.2213
   9   1.0000     -11.422387      -310.8190
  10   1.0000     -11.279121      -306.9205
  11   1.0000     -11.273189      -306.7591
  12   1.0000     -11.261194      -306.4327
  13   1.0000     -11.240498      -305.8695
  14   1.0000     -11.239340      -305.8380
  15   1.0000     -11.236019      -305.7476
  16   1.0000     -11.226735      -305.4950
  17   1.0000     -10.521937      -286.3165
  18   1.0000     -10.518992      -286.2363
  19   1.0000     -10.517134      -286.1858
  20   1.0000      -7.988760      -217.3852
  21   1.0000      -7.988025      -217.3652
  22   1.0000      -7.987966      -217.3636
  23   1.0000      -7.985886      -217.3070
  24   1.0000      -7.985083      -217.2852
  25   1.0000      -7.985027      -217.2836
  26   1.0000      -7.983915      -217.2534
  27   1.0000      -7.983262      -217.2356
  28   1.0000      -7.983220      -217.2345
  29   1.0000      -4.600690      -125.1911
  30   1.0000      -3.213846       -87.4532
  31   1.0000      -3.212037       -87.4040
  32   1.0000      -3.211925       -87.4009
  33   1.0000      -1.469203       -39.9790
  34   1.0000      -1.121669       -30.5222
  35   1.0000      -1.103107       -30.0171
  36   1.0000      -1.068667       -29.0799
  37   1.0000      -1.062912       -28.9233
  38   1.0000      -1.060271       -28.8515
  39   1.0000      -1.021038       -27.7839
  40   1.0000      -1.009406       -27.4673
  41   1.0000      -0.955286       -25.9947
  42   1.0000      -0.944416       -25.6989
  43   1.0000      -0.929544       -25.2942
  44   1.0000      -0.929419       -25.2908
  45   1.0000      -0.918526       -24.9944
  46   1.0000      -0.917928       -24.9781
  47   1.0000      -0.893172       -24.3044
  48   1.0000      -0.816306       -22.2128
  49   1.0000      -0.725603       -19.7447
  50   1.0000      -0.715145       -19.4601
  51   1.0000      -0.705314       -19.1926
  52   1.0000      -0.685765       -18.6606
  53   1.0000      -0.651722       -17.7343
  54   1.0000      -0.621901       -16.9228
  55   1.0000      -0.618119       -16.8199
  56   1.0000      -0.603707       -16.4277
  57   1.0000      -0.599920       -16.3247
  58   1.0000      -0.586419       -15.9573
  59   1.0000      -0.579838       -15.7782
  60   1.0000      -0.560957       -15.2644
  61   1.0000      -0.548832       -14.9345
  62   1.0000      -0.548402       -14.9228
  63   1.0000      -0.537349       -14.6220
  64   1.0000      -0.536748       -14.6056
  65   1.0000      -0.523879       -14.2555
  66   1.0000      -0.505619       -13.7586
  67   1.0000      -0.489754       -13.3269
  68   1.0000      -0.478241       -13.0136
  69   1.0000      -0.477993       -13.0068
  70   1.0000      -0.448450       -12.2029
  71   1.0000      -0.442084       -12.0297
  72   1.0000      -0.440319       -11.9817
  73   1.0000      -0.431718       -11.7476
  74   1.0000      -0.430655       -11.7187
  75   1.0000      -0.429515       -11.6877
  76   1.0000      -0.356482        -9.7004
  77   0.0000       0.012794         0.3481
  78   0.0000       0.023867         0.6495
  79   0.0000       0.024689         0.6718
  80   0.0000       0.030804         0.8382
  81   0.0000       0.039506         1.0750

                 SPIN DOWN ORBITALS
  NO   OCC          E(Eh)            E(eV)
   0   1.0000    -261.574671     -7117.8087
   1   1.0000    -104.793711     -2851.5818
   2   1.0000    -104.790730     -2851.5007
   3   1.0000    -104.788911     -2851.4512
   4   1.0000     -32.083943      -873.0485
   5   1.0000     -27.561891      -749.9972
   6   1.0000     -27.561767      -749.9938
   7   1.0000     -27.561687      -749.9916
   8   1.0000     -20.621151      -561.1300
   9   1.0000     -11.422310      -310.8169
  10   1.0000     -11.279017      -306.9176
  11   1.0000     -11.273184      -306.7589
  12   1.0000     -11.261246      -306.4341
  13   1.0000     -11.240422      -305.8674
  14   1.0000     -11.239333      -305.8378
  15   1.0000     -11.236027      -305.7478
  16   1.0000     -11.226742      -305.4952
  17   1.0000     -10.520337      -286.2729
  18   1.0000     -10.517326      -286.1910
  19   1.0000     -10.515463      -286.1403
  20   1.0000      -7.986266      -217.3173
  21   1.0000      -7.985501      -217.2965
  22   1.0000      -7.985462      -217.2955
  23   1.0000      -7.983189      -217.2336
  24   1.0000      -7.982527      -217.2156
  25   1.0000      -7.982431      -217.2130
  26   1.0000      -7.981460      -217.1866
  27   1.0000      -7.980540      -217.1615
  28   1.0000      -7.980461      -217.1594
  29   1.0000      -4.158653      -113.1627
  30   1.0000      -2.680197       -72.9319
  31   1.0000      -2.680139       -72.9303
  32   1.0000      -2.679725       -72.9190
  33   1.0000      -1.461016       -39.7563
  34   1.0000      -1.121373       -30.5141
  35   1.0000      -1.100915       -29.9574
  36   1.0000      -1.052943       -28.6520
  37   1.0000      -1.040340       -28.3091
  38   1.0000      -1.037376       -28.2284
  39   1.0000      -1.020139       -27.7594
  40   1.0000      -1.009103       -27.4591
  41   1.0000      -0.955114       -25.9900
  42   1.0000      -0.893270       -24.3071
  43   1.0000      -0.828487       -22.5443
  44   1.0000      -0.725682       -19.7468
  45   1.0000      -0.716837       -19.5061
  46   1.0000      -0.704546       -19.1717
  47   1.0000      -0.685189       -18.6450
  48   1.0000      -0.651672       -17.7329
  49   1.0000      -0.621339       -16.9075
  50   1.0000      -0.618037       -16.8176
  51   1.0000      -0.603533       -16.4230
  52   1.0000      -0.599841       -16.3225
  53   1.0000      -0.586165       -15.9504
  54   1.0000      -0.578605       -15.7446
  55   1.0000      -0.559973       -15.2376
  56   1.0000      -0.548712       -14.9312
  57   1.0000      -0.546036       -14.8584
  58   1.0000      -0.537350       -14.6220
  59   1.0000      -0.526661       -14.3312
  60   1.0000      -0.523032       -14.2324
  61   1.0000      -0.507285       -13.8039
  62   1.0000      -0.489522       -13.3206
  63   1.0000      -0.486763       -13.2455
  64   1.0000      -0.484556       -13.1854
  65   1.0000      -0.455372       -12.3913
  66   1.0000      -0.452454       -12.3119
  67   1.0000      -0.449378       -12.2282
  68   1.0000      -0.432820       -11.7776
  69   1.0000      -0.431001       -11.7281
  70   1.0000      -0.414744       -11.2858
  71   1.0000      -0.356032        -9.6881
  72   0.0000       0.012778         0.3477
  73   0.0000       0.023844         0.6488
  74   0.0000       0.024649         0.6707
  75   0.0000       0.030747         0.8367
  76   0.0000       0.039415         1.0725

E(0)                                       ...  -3028.468970111
E(0)                                       ...  -3028.468970111
E(CORR)(strong-pairs)                      ...     -2.866612808
E(CORR)(weak-pairs)                        ...     -0.035300132
E(CORR)(corrected)                         ...     -2.901912940
E(TOT)                                     ...  -3031.370883051
E(CCSD(T))                                 ...  -3031.488652068
FINAL SINGLE POINT ENERGY     -3031.488652068459

DIPOLE MOMENT
-------------
                                X             Y             Z
Electronic contribution:    -43.50262      -4.42798       1.89731
Nuclear contribution   :     46.67183       5.94260      -2.51911
                        -----------------------------------------
Total Dipole Moment    :      3.16921       1.51463      -0.62180
                        -----------------------------------------
Magnitude (a.u.)       :      3.56716
Magnitude (Debye)      :      9.06699

Rotational constants in cm-1:     0.018740     0.010741     0.010122
Rotational constants in MHz :   561.814054   321.995284   303.441480

                             ****ORCA TERMINATED NORMALLY****
TOTAL RUN TIME: 0 days 17 hours 22 minutes 38 seconds 232 msec
