                         Program Version 4.1.2  - RELEASE  -
|  1> ! aug-cc-pVTZ aug-cc-pVTZ/C DLPNO-CCSD(T1) TightSCF NormalPNO UNO MiniPrint AutoAux
|  2> %pal nproc 10 end
|  3> %maxcore 20000
|  4> %mdci
|  5>      density none
|  6> end
|  7>
|  8> * xyz 0 6
|  9>  O     -0.29422400     -0.22291200     -0.50109100
| 10>  C     -1.11347800     -1.17150600     -0.24668400
| 11>  C     -2.70760100     -0.18902800      0.90809500
| 12>  C     -3.07223200      0.67883500     -0.08637900
| 13>  C     -4.15351300      0.35455400     -1.06934000
| 14> Fe      1.54619900      0.17937400     -0.09939400
| 15> Cl      1.86789900      2.09167400     -1.10560100
| 16>  C     -2.35877400      1.97693900     -0.26790000
| 17> Cl      2.57186600     -1.56503700     -0.94858900
| 18> Cl      1.79865800      0.30278900      2.08147600
| 19>  H     -3.31689400     -1.08483000      1.02019800
| 20>  H     -2.85824400      2.62798400     -0.98938900
| 21>  H     -2.22968300      2.51570100      0.67608000
| 22>  H     -1.34426200      1.76127300     -0.64296600
| 23>  H     -4.98140800      1.06271500     -0.92554200
| 24>  H     -3.81257300      0.49160900     -2.10331800
| 25>  H     -4.54830900     -0.65703400     -0.94960800
| 26>  C     -1.94995500      0.27376300      2.13266700
| 27>  H     -2.51066600      1.06695900      2.64209200
| 28>  H     -1.81360500     -0.53904100      2.84806000
| 29>  H     -0.96298800      0.67509800      1.88996000
| 30>  C     -0.74806000     -2.15862100      0.84006200
| 31>  H     -1.59510200     -2.77001800      1.15685100
| 32>  H      0.00543400     -2.81898100      0.38756700
| 33>  H     -0.28018200     -1.67325700      1.69547800
| 34>  C     -1.84376800     -1.74913200     -1.43536400
| 35>  H     -1.14460500     -2.45300100     -1.90657400
| 36>  H     -2.74202500     -2.30124900     -1.15171500
| 37>  H     -2.08117900     -0.97941500     -2.16900800
| 38> *
| 39>
| 40>
| 41>                          ****END OF INPUT****

CARTESIAN COORDINATES (ANGSTROEM)
---------------------------------
  O     -0.294224   -0.222912   -0.501091
  C     -1.113478   -1.171506   -0.246684
  C     -2.707601   -0.189028    0.908095
  C     -3.072232    0.678835   -0.086379
  C     -4.153513    0.354554   -1.069340
  Fe     1.546199    0.179374   -0.099394
  Cl     1.867899    2.091674   -1.105601
  C     -2.358774    1.976939   -0.267900
  Cl     2.571866   -1.565037   -0.948589
  Cl     1.798658    0.302789    2.081476
  H     -3.316894   -1.084830    1.020198
  H     -2.858244    2.627984   -0.989389
  H     -2.229683    2.515701    0.676080
  H     -1.344262    1.761273   -0.642966
  H     -4.981408    1.062715   -0.925542
  H     -3.812573    0.491609   -2.103318
  H     -4.548309   -0.657034   -0.949608
  C     -1.949955    0.273763    2.132667
  H     -2.510666    1.066959    2.642092
  H     -1.813605   -0.539041    2.848060
  H     -0.962988    0.675098    1.889960
  C     -0.748060   -2.158621    0.840062
  H     -1.595102   -2.770018    1.156851
  H      0.005434   -2.818981    0.387567
  H     -0.280182   -1.673257    1.695478
  C     -1.843768   -1.749132   -1.435364
  H     -1.144605   -2.453001   -1.906574
  H     -2.742025   -2.301249   -1.151715
  H     -2.081179   -0.979415   -2.169008

ORBITAL ENERGIES
----------------
                 SPIN UP ORBITALS
  NO   OCC          E(Eh)            E(eV)
   0   1.0000    -261.563441     -7117.5031
   1   1.0000    -104.783945     -2851.3161
   2   1.0000    -104.781577     -2851.2517
   3   1.0000    -104.780178     -2851.2136
   4   1.0000     -32.231233      -877.0564
   5   1.0000     -27.707568      -753.9613
   6   1.0000     -27.706655      -753.9364
   7   1.0000     -27.706506      -753.9324
   8   1.0000     -20.592945      -560.3625
   9   1.0000     -11.410039      -310.4830
  10   1.0000     -11.309732      -307.7534
  11   1.0000     -11.268671      -306.6361
  12   1.0000     -11.267214      -306.5965
  13   1.0000     -11.264225      -306.5151
  14   1.0000     -11.262203      -306.4601
  15   1.0000     -11.248551      -306.0886
  16   1.0000     -11.242269      -305.9177
  17   1.0000     -10.510610      -286.0082
  18   1.0000     -10.508218      -285.9432
  19   1.0000     -10.506780      -285.9040
  20   1.0000      -7.977454      -217.0776
  21   1.0000      -7.976665      -217.0561
  22   1.0000      -7.976654      -217.0558
  23   1.0000      -7.975091      -217.0133
  24   1.0000      -7.974318      -216.9922
  25   1.0000      -7.974237      -216.9900
  26   1.0000      -7.973588      -216.9723
  27   1.0000      -7.972915      -216.9541
  28   1.0000      -7.972828      -216.9517
  29   1.0000      -4.586375      -124.8016
  30   1.0000      -3.199471       -87.0620
  31   1.0000      -3.197937       -87.0203
  32   1.0000      -3.197724       -87.0145
  33   1.0000      -1.435697       -39.0673
  34   1.0000      -1.154027       -31.4027
  35   1.0000      -1.089459       -29.6457
  36   1.0000      -1.056326       -28.7441
  37   1.0000      -1.050996       -28.5991
  38   1.0000      -1.048394       -28.5283
  39   1.0000      -1.033365       -28.1193
  40   1.0000      -0.998057       -27.1585
  41   1.0000      -0.982534       -26.7361
  42   1.0000      -0.932412       -25.3722
  43   1.0000      -0.915601       -24.9148
  44   1.0000      -0.915546       -24.9133
  45   1.0000      -0.910927       -24.7876
  46   1.0000      -0.905170       -24.6309
  47   1.0000      -0.904826       -24.6216
  48   1.0000      -0.801270       -21.8037
  49   1.0000      -0.751313       -20.4443
  50   1.0000      -0.695670       -18.9301
  51   1.0000      -0.685445       -18.6519
  52   1.0000      -0.683063       -18.5871
  53   1.0000      -0.673929       -18.3385
  54   1.0000      -0.640992       -17.4423
  55   1.0000      -0.623025       -16.9534
  56   1.0000      -0.604771       -16.4566
  57   1.0000      -0.596871       -16.2417
  58   1.0000      -0.581696       -15.8287
  59   1.0000      -0.577465       -15.7136
  60   1.0000      -0.570683       -15.5291
  61   1.0000      -0.560761       -15.2591
  62   1.0000      -0.558150       -15.1880
  63   1.0000      -0.543488       -14.7891
  64   1.0000      -0.536237       -14.5917
  65   1.0000      -0.522889       -14.2285
  66   1.0000      -0.514782       -14.0079
  67   1.0000      -0.489636       -13.3237
  68   1.0000      -0.469510       -12.7760
  69   1.0000      -0.463485       -12.6121
  70   1.0000      -0.437459       -11.9039
  71   1.0000      -0.432175       -11.7601
  72   1.0000      -0.429833       -11.6964
  73   1.0000      -0.421624       -11.4730
  74   1.0000      -0.420070       -11.4307
  75   1.0000      -0.419147       -11.4056
  76   1.0000      -0.374679       -10.1955
  77   0.0000       0.010242         0.2787
  78   0.0000       0.021252         0.5783
  79   0.0000       0.022175         0.6034
  80   0.0000       0.028405         0.7729
  81   0.0000       0.036948         1.0054

                 SPIN DOWN ORBITALS
  NO   OCC          E(Eh)            E(eV)
   0   1.0000    -261.559873     -7117.4060
   1   1.0000    -104.782472     -2851.2760
   2   1.0000    -104.780079     -2851.2109
   3   1.0000    -104.778675     -2851.1727
   4   1.0000     -32.069190      -872.6470
   5   1.0000     -27.547137      -749.5957
   6   1.0000     -27.547068      -749.5938
   7   1.0000     -27.546837      -749.5876
   8   1.0000     -20.589073      -560.2572
   9   1.0000     -11.409893      -310.4790
  10   1.0000     -11.309132      -307.7371
  11   1.0000     -11.268571      -306.6334
  12   1.0000     -11.267291      -306.5986
  13   1.0000     -11.264230      -306.5153
  14   1.0000     -11.262563      -306.4699
  15   1.0000     -11.248625      -306.0906
  16   1.0000     -11.242243      -305.9170
  17   1.0000     -10.509033      -285.9653
  18   1.0000     -10.506616      -285.8995
  19   1.0000     -10.505180      -285.8605
  20   1.0000      -7.974936      -217.0090
  21   1.0000      -7.974251      -216.9904
  22   1.0000      -7.974195      -216.9889
  23   1.0000      -7.972512      -216.9431
  24   1.0000      -7.971856      -216.9252
  25   1.0000      -7.971758      -216.9226
  26   1.0000      -7.971157      -216.9062
  27   1.0000      -7.970355      -216.8844
  28   1.0000      -7.970260      -216.8818
  29   1.0000      -4.144122      -112.7673
  30   1.0000      -2.665752       -72.5388
  31   1.0000      -2.665674       -72.5367
  32   1.0000      -2.665220       -72.5243
  33   1.0000      -1.425827       -38.7987
  34   1.0000      -1.152971       -31.3739
  35   1.0000      -1.086842       -29.5745
  36   1.0000      -1.041288       -28.3349
  37   1.0000      -1.033670       -28.1276
  38   1.0000      -1.028486       -27.9865
  39   1.0000      -1.026582       -27.9347
  40   1.0000      -0.997469       -27.1425
  41   1.0000      -0.982445       -26.7337
  42   1.0000      -0.911255       -24.7965
  43   1.0000      -0.816049       -22.2058
  44   1.0000      -0.751329       -20.4447
  45   1.0000      -0.698868       -19.0172
  46   1.0000      -0.683720       -18.6050
  47   1.0000      -0.683086       -18.5877
  48   1.0000      -0.673775       -18.3344
  49   1.0000      -0.640957       -17.4413
  50   1.0000      -0.622191       -16.9307
  51   1.0000      -0.604436       -16.4475
  52   1.0000      -0.596549       -16.2329
  53   1.0000      -0.581576       -15.8255
  54   1.0000      -0.577196       -15.7063
  55   1.0000      -0.570015       -15.5109
  56   1.0000      -0.560747       -15.2587
  57   1.0000      -0.558127       -15.1874
  58   1.0000      -0.541587       -14.7373
  59   1.0000      -0.535396       -14.5689
  60   1.0000      -0.514881       -14.0106
  61   1.0000      -0.512753       -13.9527
  62   1.0000      -0.488711       -13.2985
  63   1.0000      -0.474690       -12.9170
  64   1.0000      -0.473162       -12.8754
  65   1.0000      -0.445153       -12.1132
  66   1.0000      -0.441720       -12.0198
  67   1.0000      -0.439552       -11.9608
  68   1.0000      -0.424768       -11.5585
  69   1.0000      -0.419887       -11.4257
  70   1.0000      -0.404736       -11.0134
  71   1.0000      -0.373429       -10.1615
  72   0.0000       0.010238         0.2786
  73   0.0000       0.021240         0.5780
  74   0.0000       0.022171         0.6033
  75   0.0000       0.028239         0.7684
  76   0.0000       0.036108         0.9826

E(0)                                       ...  -3028.441112340
E(0)                                       ...  -3028.441112340
E(CORR)(strong-pairs)                      ...     -2.873068924
E(CORR)(weak-pairs)                        ...     -0.035134837
E(CORR)(corrected)                         ...     -2.908203761
E(TOT)                                     ...  -3031.349316101
E(CCSD(T))                                 ...  -3031.469179235
FINAL SINGLE POINT ENERGY     -3031.469179235024

DIPOLE MOMENT
-------------
                                X             Y             Z
Electronic contribution:     44.83450       5.64912      -1.83209
Nuclear contribution   :    -49.19950      -6.69838       1.74544
                        -----------------------------------------
Total Dipole Moment    :     -4.36500      -1.04926      -0.08665
                        -----------------------------------------
Magnitude (a.u.)       :      4.49017
Magnitude (Debye)      :     11.41311

Rotational constants in cm-1:     0.019763     0.010008     0.009577
Rotational constants in MHz :   592.489801   300.040276   287.101247

                             ****ORCA TERMINATED NORMALLY****
TOTAL RUN TIME: 0 days 17 hours 35 minutes 32 seconds 374 msec
