                         Program Version 4.1.2  - RELEASE  -
|  1> ! aug-cc-pVTZ aug-cc-pVTZ/C DLPNO-CCSD(T1) TightSCF NormalPNO UNO MiniPrint AutoAux
|  2> %pal nproc 10 end
|  3> %maxcore 20000
|  4> %mdci
|  5>      density none
|  6> end
|  7>
|  8> * xyz 0 6
|  9>  O      0.23782300      0.33072900     -0.84146900
| 10>  C      1.02216000      1.29443700     -0.65957100
| 11>  C      3.08353800      0.07956500      0.47942300
| 12>  C      2.57315600     -0.97055400     -0.19692100
| 13>  C      2.95864200     -1.25255800     -1.62280900
| 14> Fe     -1.46613400     -0.14621500      0.02300900
| 15> Cl     -2.08557700     -1.98262200     -0.96474100
| 16>  C      1.64790100     -1.98837000      0.40093200
| 17> Cl     -2.65914000      1.63108100     -0.43817200
| 18> Cl     -1.11366200     -0.35545500      2.18055200
| 19>  H      3.80880300      0.70421000     -0.04236300
| 20>  H      2.17126300     -2.95047300      0.48715200
| 21>  H      1.27318900     -1.71879000      1.38772800
| 22>  H      0.79052700     -2.16674300     -0.25908400
| 23>  H      3.40934300     -2.25080800     -1.69576900
| 24>  H      2.07116600     -1.26754800     -2.26910900
| 25>  H      3.67912100     -0.52954400     -2.01540600
| 26>  C      2.95141900      0.34155000      1.95620400
| 27>  H      3.77563300     -0.14090700      2.49913400
| 28>  H      3.01263800      1.41080500      2.18216700
| 29>  H      2.01684500     -0.03911700      2.37598300
| 30>  C      0.86727500      2.20078900      0.52124300
| 31>  H      1.75505200      2.81113400      0.69004000
| 32>  H      0.02567300      2.86771300      0.28040400
| 33>  H      0.59668700      1.65173800      1.42321000
| 34>  C      1.81249100      1.79015100     -1.83314500
| 35>  H      1.19648900      2.57406000     -2.29837100
| 36>  H      2.75819700      2.24430300     -1.53430900
| 37>  H      1.96922300      1.00461400     -2.56990000
| 38> *
| 39>
| 40>
| 41>                          ****END OF INPUT****

CARTESIAN COORDINATES (ANGSTROEM)
---------------------------------
  O      0.237823    0.330729   -0.841469
  C      1.022160    1.294437   -0.659571
  C      3.083538    0.079565    0.479423
  C      2.573156   -0.970554   -0.196921
  C      2.958642   -1.252558   -1.622809
  Fe    -1.466134   -0.146215    0.023009
  Cl    -2.085577   -1.982622   -0.964741
  C      1.647901   -1.988370    0.400932
  Cl    -2.659140    1.631081   -0.438172
  Cl    -1.113662   -0.355455    2.180552
  H      3.808803    0.704210   -0.042363
  H      2.171263   -2.950473    0.487152
  H      1.273189   -1.718790    1.387728
  H      0.790527   -2.166743   -0.259084
  H      3.409343   -2.250808   -1.695769
  H      2.071166   -1.267548   -2.269109
  H      3.679121   -0.529544   -2.015406
  C      2.951419    0.341550    1.956204
  H      3.775633   -0.140907    2.499134
  H      3.012638    1.410805    2.182167
  H      2.016845   -0.039117    2.375983
  C      0.867275    2.200789    0.521243
  H      1.755052    2.811134    0.690040
  H      0.025673    2.867713    0.280404
  H      0.596687    1.651738    1.423210
  C      1.812491    1.790151   -1.833145
  H      1.196489    2.574060   -2.298371
  H      2.758197    2.244303   -1.534309
  H      1.969223    1.004614   -2.569900

ORBITAL ENERGIES
----------------
                 SPIN UP ORBITALS
  NO   OCC          E(Eh)            E(eV)
   0   1.0000    -261.576142     -7117.8487
   1   1.0000    -104.793878     -2851.5864
   2   1.0000    -104.790836     -2851.5036
   3   1.0000    -104.789067     -2851.4555
   4   1.0000     -32.243835      -877.3994
   5   1.0000     -27.720312      -754.3080
   6   1.0000     -27.719177      -754.2771
   7   1.0000     -27.718995      -754.2722
   8   1.0000     -20.618853      -561.0675
   9   1.0000     -11.421917      -310.8062
  10   1.0000     -11.277733      -306.8827
  11   1.0000     -11.271816      -306.7217
  12   1.0000     -11.267532      -306.6051
  13   1.0000     -11.243469      -305.9504
  14   1.0000     -11.242354      -305.9200
  15   1.0000     -11.237802      -305.7961
  16   1.0000     -11.229178      -305.5615
  17   1.0000     -10.520596      -286.2800
  18   1.0000     -10.517526      -286.1964
  19   1.0000     -10.515707      -286.1469
  20   1.0000      -7.987426      -217.3489
  21   1.0000      -7.986675      -217.3285
  22   1.0000      -7.986622      -217.3270
  23   1.0000      -7.984414      -217.2669
  24   1.0000      -7.983619      -217.2453
  25   1.0000      -7.983562      -217.2438
  26   1.0000      -7.982492      -217.2147
  27   1.0000      -7.981833      -217.1967
  28   1.0000      -7.981788      -217.1955
  29   1.0000      -4.598679      -125.1364
  30   1.0000      -3.211805       -87.3977
  31   1.0000      -3.210079       -87.3507
  32   1.0000      -3.209943       -87.3470
  33   1.0000      -1.464141       -39.8413
  34   1.0000      -1.126580       -30.6558
  35   1.0000      -1.101386       -29.9702
  36   1.0000      -1.067062       -29.0362
  37   1.0000      -1.061323       -28.8801
  38   1.0000      -1.058628       -28.8067
  39   1.0000      -1.021963       -27.8090
  40   1.0000      -1.009529       -27.4707
  41   1.0000      -0.958486       -26.0817
  42   1.0000      -0.942811       -25.6552
  43   1.0000      -0.927581       -25.2408
  44   1.0000      -0.927475       -25.2379
  45   1.0000      -0.916761       -24.9463
  46   1.0000      -0.916147       -24.9296
  47   1.0000      -0.896641       -24.3988
  48   1.0000      -0.813769       -22.1438
  49   1.0000      -0.729350       -19.8466
  50   1.0000      -0.712341       -19.3838
  51   1.0000      -0.702639       -19.1198
  52   1.0000      -0.685917       -18.6647
  53   1.0000      -0.655196       -17.8288
  54   1.0000      -0.621766       -16.9191
  55   1.0000      -0.621354       -16.9079
  56   1.0000      -0.604051       -16.4371
  57   1.0000      -0.599690       -16.3184
  58   1.0000      -0.585989       -15.9456
  59   1.0000      -0.578809       -15.7502
  60   1.0000      -0.560782       -15.2597
  61   1.0000      -0.551080       -14.9956
  62   1.0000      -0.548768       -14.9327
  63   1.0000      -0.540120       -14.6974
  64   1.0000      -0.535956       -14.5841
  65   1.0000      -0.526172       -14.3179
  66   1.0000      -0.503430       -13.6990
  67   1.0000      -0.493049       -13.4166
  68   1.0000      -0.477044       -12.9810
  69   1.0000      -0.476413       -12.9639
  70   1.0000      -0.446892       -12.1606
  71   1.0000      -0.440795       -11.9946
  72   1.0000      -0.439033       -11.9467
  73   1.0000      -0.430377       -11.7111
  74   1.0000      -0.429363       -11.6836
  75   1.0000      -0.428201       -11.6520
  76   1.0000      -0.359107        -9.7718
  77   0.0000       0.012723         0.3462
  78   0.0000       0.023659         0.6438
  79   0.0000       0.024333         0.6621
  80   0.0000       0.030661         0.8343
  81   0.0000       0.039374         1.0714

                 SPIN DOWN ORBITALS
  NO   OCC          E(Eh)            E(eV)
   0   1.0000    -261.572563     -7117.7513
   1   1.0000    -104.792393     -2851.5460
   2   1.0000    -104.789283     -2851.4614
   3   1.0000    -104.787507     -2851.4130
   4   1.0000     -32.081848      -872.9915
   5   1.0000     -27.559773      -749.9395
   6   1.0000     -27.559689      -749.9373
   7   1.0000     -27.559585      -749.9344
   8   1.0000     -20.615369      -560.9727
   9   1.0000     -11.421833      -310.8039
  10   1.0000     -11.277626      -306.8798
  11   1.0000     -11.271810      -306.7215
  12   1.0000     -11.267572      -306.6062
  13   1.0000     -11.243394      -305.9483
  14   1.0000     -11.242348      -305.9198
  15   1.0000     -11.237809      -305.7963
  16   1.0000     -11.229189      -305.5618
  17   1.0000     -10.519009      -286.2368
  18   1.0000     -10.515868      -286.1513
  19   1.0000     -10.514050      -286.1018
  20   1.0000      -7.984929      -217.2810
  21   1.0000      -7.984192      -217.2609
  22   1.0000      -7.984150      -217.2598
  23   1.0000      -7.981739      -217.1942
  24   1.0000      -7.981071      -217.1760
  25   1.0000      -7.980977      -217.1734
  26   1.0000      -7.980043      -217.1480
  27   1.0000      -7.979144      -217.1235
  28   1.0000      -7.979064      -217.1214
  29   1.0000      -4.156593      -113.1067
  30   1.0000      -2.678145       -72.8760
  31   1.0000      -2.678104       -72.8749
  32   1.0000      -2.677647       -72.8625
  33   1.0000      -1.455577       -39.6083
  34   1.0000      -1.126264       -30.6472
  35   1.0000      -1.099092       -29.9078
  36   1.0000      -1.051476       -28.6121
  37   1.0000      -1.038931       -28.2707
  38   1.0000      -1.035928       -28.1890
  39   1.0000      -1.021243       -27.7894
  40   1.0000      -1.009032       -27.4572
  41   1.0000      -0.958343       -26.0778
  42   1.0000      -0.896789       -24.4029
  43   1.0000      -0.826327       -22.4855
  44   1.0000      -0.729419       -19.8485
  45   1.0000      -0.714346       -19.4383
  46   1.0000      -0.701803       -19.0970
  47   1.0000      -0.685266       -18.6470
  48   1.0000      -0.655130       -17.8270
  49   1.0000      -0.621367       -16.9083
  50   1.0000      -0.621133       -16.9019
  51   1.0000      -0.603803       -16.4303
  52   1.0000      -0.599613       -16.3163
  53   1.0000      -0.585741       -15.9388
  54   1.0000      -0.577644       -15.7185
  55   1.0000      -0.559830       -15.2338
  56   1.0000      -0.550984       -14.9930
  57   1.0000      -0.546677       -14.8759
  58   1.0000      -0.540110       -14.6971
  59   1.0000      -0.527619       -14.3572
  60   1.0000      -0.523069       -14.2334
  61   1.0000      -0.504991       -13.7415
  62   1.0000      -0.492810       -13.4101
  63   1.0000      -0.485418       -13.2089
  64   1.0000      -0.483091       -13.1456
  65   1.0000      -0.454032       -12.3548
  66   1.0000      -0.451080       -12.2745
  67   1.0000      -0.448126       -12.1941
  68   1.0000      -0.431714       -11.7475
  69   1.0000      -0.429552       -11.6887
  70   1.0000      -0.413579       -11.2541
  71   1.0000      -0.358502        -9.7553
  72   0.0000       0.012707         0.3458
  73   0.0000       0.023635         0.6432
  74   0.0000       0.024297         0.6612
  75   0.0000       0.030596         0.8326
  76   0.0000       0.039268         1.0685

E(0)                                       ...  -3028.463151836
E(0)                                       ...  -3028.463151836
E(CORR)(strong-pairs)                      ...     -2.868183977
E(CORR)(weak-pairs)                        ...     -0.035645565
E(CORR)(corrected)                         ...     -2.903829542
E(TOT)                                     ...  -3031.366981379
E(CCSD(T))                                 ...  -3031.485089504
FINAL SINGLE POINT ENERGY     -3031.485089503758

DIPOLE MOMENT
-------------
                                X             Y             Z
Electronic contribution:    -43.22726      -4.19473       1.84239
Nuclear contribution   :     46.54269       5.56992      -2.47851
                        -----------------------------------------
Total Dipole Moment    :      3.31543       1.37519      -0.63613
                        -----------------------------------------
Magnitude (a.u.)       :      3.64526
Magnitude (Debye)      :      9.26550

Rotational constants in cm-1:     0.018853     0.010848     0.010222
Rotational constants in MHz :   565.211746   325.221246   306.435686

                             ****ORCA TERMINATED NORMALLY****
TOTAL RUN TIME: 0 days 17 hours 45 minutes 2 seconds 314 msec
