                         Program Version 4.1.2  - RELEASE  -
|  1> ! aug-cc-pVTZ aug-cc-pVTZ/C DLPNO-CCSD(T1) TightSCF NormalPNO UNO MiniPrint AutoAux
|  2> %pal nproc 10 end
|  3> %maxcore 20000
|  4> %mdci
|  5>      density none
|  6> end
|  7>
|  8> * xyz 0 6
|  9>  O     -0.30392900     -0.11026700     -0.41517300
| 10>  C     -1.22187500     -1.05100300     -0.19665500
| 11>  C     -2.53987000     -0.32866300      0.79385700
| 12>  C     -3.07460000      0.66838000     -0.05874100
| 13>  C     -4.23897800      0.40261300     -0.94154200
| 14> Fe      1.52695200      0.17085600     -0.09765100
| 15> Cl      1.85878300      2.16818900     -0.95785700
| 16>  C     -2.36107400      1.94370200     -0.19641300
| 17> Cl      2.53187600     -1.50507700     -1.11135200
| 18> Cl      1.85286000      0.14110000      2.09053700
| 19>  H     -3.21215800     -1.18085700      0.91005800
| 20>  H     -2.83051200      2.64548200     -0.88727400
| 21>  H     -2.15925300      2.42266200      0.76727400
| 22>  H     -1.35094600      1.65044400     -0.57023300
| 23>  H     -5.06698600      1.04402200     -0.60203200
| 24>  H     -4.03010900      0.70530500     -1.97511500
| 25>  H     -4.57294100     -0.63569600     -0.91357100
| 26>  C     -1.90438900      0.13508500      2.10684700
| 27>  H     -2.56681900      0.83833400      2.62215600
| 28>  H     -1.74422200     -0.71477500      2.77136400
| 29>  H     -0.93880800      0.61679400      1.94376900
| 30>  C     -0.73913100     -2.19530300      0.70483300
| 31>  H     -1.54983100     -2.87738500      0.97553800
| 32>  H      0.00773800     -2.74857000      0.12417200
| 33>  H     -0.24599000     -1.82347900      1.60282900
| 34>  C     -1.81259100     -1.57844800     -1.50434300
| 35>  H     -1.03081200     -2.16194200     -2.00113400
| 36>  H     -2.67774200     -2.22870100     -1.34073200
| 37>  H     -2.08470100     -0.76154300     -2.17638200
| 38> *
| 39>
| 40>
| 41>                          ****END OF INPUT****

CARTESIAN COORDINATES (ANGSTROEM)
---------------------------------
  O     -0.303929   -0.110267   -0.415173
  C     -1.221875   -1.051003   -0.196655
  C     -2.539870   -0.328663    0.793857
  C     -3.074600    0.668380   -0.058741
  C     -4.238978    0.402613   -0.941542
  Fe     1.526952    0.170856   -0.097651
  Cl     1.858783    2.168189   -0.957857
  C     -2.361074    1.943702   -0.196413
  Cl     2.531876   -1.505077   -1.111352
  Cl     1.852860    0.141100    2.090537
  H     -3.212158   -1.180857    0.910058
  H     -2.830512    2.645482   -0.887274
  H     -2.159253    2.422662    0.767274
  H     -1.350946    1.650444   -0.570233
  H     -5.066986    1.044022   -0.602032
  H     -4.030109    0.705305   -1.975115
  H     -4.572941   -0.635696   -0.913571
  C     -1.904389    0.135085    2.106847
  H     -2.566819    0.838334    2.622156
  H     -1.744222   -0.714775    2.771364
  H     -0.938808    0.616794    1.943769
  C     -0.739131   -2.195303    0.704833
  H     -1.549831   -2.877385    0.975538
  H      0.007738   -2.748570    0.124172
  H     -0.245990   -1.823479    1.602829
  C     -1.812591   -1.578448   -1.504343
  H     -1.030812   -2.161942   -2.001134
  H     -2.677742   -2.228701   -1.340732
  H     -2.084701   -0.761543   -2.176382

ORBITAL ENERGIES
----------------
                 SPIN UP ORBITALS
  NO   OCC          E(Eh)            E(eV)
   0   1.0000    -261.541953     -7116.9184
   1   1.0000    -104.768729     -2850.9020
   2   1.0000    -104.766851     -2850.8509
   3   1.0000    -104.765593     -2850.8167
   4   1.0000     -32.209863      -876.4749
   5   1.0000     -27.685840      -753.3700
   6   1.0000     -27.685495      -753.3606
   7   1.0000     -27.685316      -753.3558
   8   1.0000     -20.545573      -559.0735
   9   1.0000     -11.387550      -309.8710
  10   1.0000     -11.363736      -309.2230
  11   1.0000     -11.302982      -307.5698
  12   1.0000     -11.287954      -307.1609
  13   1.0000     -11.277509      -306.8766
  14   1.0000     -11.252998      -306.2096
  15   1.0000     -11.249455      -306.1132
  16   1.0000     -11.239474      -305.8416
  17   1.0000     -10.495365      -285.5934
  18   1.0000     -10.493444      -285.5411
  19   1.0000     -10.492218      -285.5078
  20   1.0000      -7.962234      -216.6634
  21   1.0000      -7.961419      -216.6412
  22   1.0000      -7.961368      -216.6398
  23   1.0000      -7.960264      -216.6098
  24   1.0000      -7.959557      -216.5906
  25   1.0000      -7.959457      -216.5878
  26   1.0000      -7.959076      -216.5775
  27   1.0000      -7.958314      -216.5567
  28   1.0000      -7.958231      -216.5545
  29   1.0000      -4.565278      -124.2275
  30   1.0000      -3.177892       -86.4748
  31   1.0000      -3.177326       -86.4594
  32   1.0000      -3.176859       -86.4467
  33   1.0000      -1.379787       -37.5459
  34   1.0000      -1.196627       -32.5619
  35   1.0000      -1.082608       -29.4593
  36   1.0000      -1.046823       -28.4855
  37   1.0000      -1.039791       -28.2942
  38   1.0000      -1.034517       -28.1506
  39   1.0000      -1.032482       -28.0953
  40   1.0000      -1.018860       -27.7246
  41   1.0000      -0.972655       -26.4673
  42   1.0000      -0.930846       -25.3296
  43   1.0000      -0.908660       -24.7259
  44   1.0000      -0.894752       -24.3474
  45   1.0000      -0.894731       -24.3469
  46   1.0000      -0.885932       -24.1074
  47   1.0000      -0.885552       -24.0971
  48   1.0000      -0.796095       -21.6628
  49   1.0000      -0.769323       -20.9344
  50   1.0000      -0.708950       -19.2915
  51   1.0000      -0.694826       -18.9072
  52   1.0000      -0.672705       -18.3052
  53   1.0000      -0.654792       -17.8178
  54   1.0000      -0.650635       -17.7047
  55   1.0000      -0.635724       -17.2989
  56   1.0000      -0.606746       -16.5104
  57   1.0000      -0.602391       -16.3919
  58   1.0000      -0.590739       -16.0748
  59   1.0000      -0.583629       -15.8814
  60   1.0000      -0.576746       -15.6941
  61   1.0000      -0.562955       -15.3188
  62   1.0000      -0.556435       -15.1414
  63   1.0000      -0.538912       -14.6645
  64   1.0000      -0.535380       -14.5684
  65   1.0000      -0.519862       -14.1462
  66   1.0000      -0.503292       -13.6953
  67   1.0000      -0.465823       -12.6757
  68   1.0000      -0.456739       -12.4285
  69   1.0000      -0.442067       -12.0292
  70   1.0000      -0.425096       -11.5674
  71   1.0000      -0.419694       -11.4205
  72   1.0000      -0.415519       -11.3069
  73   1.0000      -0.407862       -11.0985
  74   1.0000      -0.405821       -11.0429
  75   1.0000      -0.405133       -11.0242
  76   1.0000      -0.402757       -10.9596
  77   0.0000       0.000233         0.0063
  78   0.0000       0.001916         0.0521
  79   0.0000       0.017181         0.4675
  80   0.0000       0.018085         0.4921
  81   0.0000       0.027099         0.7374

                 SPIN DOWN ORBITALS
  NO   OCC          E(Eh)            E(eV)
   0   1.0000    -261.538400     -7116.8217
   1   1.0000    -104.767348     -2850.8645
   2   1.0000    -104.765472     -2850.8134
   3   1.0000    -104.764164     -2850.7778
   4   1.0000     -32.047773      -872.0642
   5   1.0000     -27.525816      -749.0155
   6   1.0000     -27.525692      -749.0122
   7   1.0000     -27.525242      -748.9999
   8   1.0000     -20.540262      -558.9290
   9   1.0000     -11.387435      -309.8679
  10   1.0000     -11.363661      -309.2209
  11   1.0000     -11.302999      -307.5703
  12   1.0000     -11.287829      -307.1574
  13   1.0000     -11.277525      -306.8770
  14   1.0000     -11.253030      -306.2105
  15   1.0000     -11.249353      -306.1104
  16   1.0000     -11.239450      -305.8410
  17   1.0000     -10.493880      -285.5530
  18   1.0000     -10.491967      -285.5009
  19   1.0000     -10.490686      -285.4661
  20   1.0000      -7.959777      -216.5966
  21   1.0000      -7.959205      -216.5810
  22   1.0000      -7.959136      -216.5791
  23   1.0000      -7.957940      -216.5466
  24   1.0000      -7.957266      -216.5282
  25   1.0000      -7.957161      -216.5254
  26   1.0000      -7.956612      -216.5104
  27   1.0000      -7.955968      -216.4929
  28   1.0000      -7.955884      -216.4906
  29   1.0000      -4.122958      -112.1914
  30   1.0000      -2.644793       -71.9685
  31   1.0000      -2.644730       -71.9668
  32   1.0000      -2.643855       -71.9429
  33   1.0000      -1.366173       -37.1755
  34   1.0000      -1.195703       -32.5367
  35   1.0000      -1.080151       -29.3924
  36   1.0000      -1.045845       -28.4589
  37   1.0000      -1.025444       -27.9037
  38   1.0000      -1.018386       -27.7117
  39   1.0000      -1.013903       -27.5897
  40   1.0000      -1.012149       -27.5420
  41   1.0000      -0.972023       -26.4501
  42   1.0000      -0.930484       -25.3198
  43   1.0000      -0.803302       -21.8589
  44   1.0000      -0.775527       -21.1032
  45   1.0000      -0.709506       -19.3066
  46   1.0000      -0.694092       -18.8872
  47   1.0000      -0.672765       -18.3069
  48   1.0000      -0.657622       -17.8948
  49   1.0000      -0.649095       -17.6628
  50   1.0000      -0.635049       -17.2806
  51   1.0000      -0.606766       -16.5109
  52   1.0000      -0.602213       -16.3870
  53   1.0000      -0.590134       -16.0584
  54   1.0000      -0.583045       -15.8655
  55   1.0000      -0.576032       -15.6746
  56   1.0000      -0.562609       -15.3094
  57   1.0000      -0.556505       -15.1433
  58   1.0000      -0.538517       -14.6538
  59   1.0000      -0.534487       -14.5441
  60   1.0000      -0.515000       -14.0139
  61   1.0000      -0.496242       -13.5034
  62   1.0000      -0.463884       -12.6229
  63   1.0000      -0.459243       -12.4966
  64   1.0000      -0.450477       -12.2581
  65   1.0000      -0.430362       -11.7107
  66   1.0000      -0.428712       -11.6658
  67   1.0000      -0.425661       -11.5828
  68   1.0000      -0.424827       -11.5601
  69   1.0000      -0.404738       -11.0135
  70   1.0000      -0.393710       -10.7134
  71   1.0000      -0.391594       -10.6558
  72   0.0000       0.000159         0.0043
  73   0.0000       0.001915         0.0521
  74   0.0000       0.017177         0.4674
  75   0.0000       0.018067         0.4916
  76   0.0000       0.027107         0.7376

E(0)                                       ...  -3028.426426444
E(0)                                       ...  -3028.426426444
E(CORR)(strong-pairs)                      ...     -2.874045648
E(CORR)(weak-pairs)                        ...     -0.035486547
E(CORR)(corrected)                         ...     -2.909532194
E(TOT)                                     ...  -3031.335958639
E(CCSD(T))                                 ...  -3031.455823919
FINAL SINGLE POINT ENERGY     -3031.455823919295

DIPOLE MOMENT
-------------
                                X             Y             Z
Electronic contribution:     43.09630       6.53749      -1.55861
Nuclear contribution   :    -48.97944      -6.76002       1.52935
                        -----------------------------------------
Total Dipole Moment    :     -5.88314      -0.22253      -0.02925
                        -----------------------------------------
Magnitude (a.u.)       :      5.88742
Magnitude (Debye)      :     14.96462

Rotational constants in cm-1:     0.020179     0.010092     0.009661
Rotational constants in MHz :   604.959392   302.555827   289.632188

                             ****ORCA TERMINATED NORMALLY****
TOTAL RUN TIME: 0 days 22 hours 47 minutes 47 seconds 594 msec
