                         Program Version 4.1.2  - RELEASE  -
|  1> ! aug-cc-pVTZ aug-cc-pVTZ/C DLPNO-CCSD(T1) TightSCF NormalPNO UNO MiniPrint AutoAux
|  2> %pal nproc 10 end
|  3> %maxcore 20000
|  4> %mdci
|  5>      density none
|  6> end
|  7>
|  8> * xyz 0 6
|  9>  O     -0.24175900     -0.28688500     -0.81788000
| 10>  C     -1.09842500     -1.20767700     -0.63978400
| 11>  C     -2.87547900     -0.25277900      0.56551900
| 12>  C     -2.66086200      0.91962200     -0.08831400
| 13>  C     -3.29179900      1.21166900     -1.41772400
| 14> Fe      1.46797700      0.15250900     -0.01360800
| 15> Cl      2.02516800      2.04286500     -0.94986300
| 16>  C     -1.75137300      1.99057600      0.42227600
| 17> Cl      2.69663700     -1.58100500     -0.54368700
| 18> Cl      1.15972900      0.32016600      2.16077200
| 19>  H     -3.60737200     -0.93074900      0.12880200
| 20>  H     -2.28272600      2.94992200      0.46170200
| 21>  H     -1.33202500      1.78159200      1.40557000
| 22>  H     -0.91912900      2.12916000     -0.28191500
| 23>  H     -3.88561200      2.13196900     -1.34509800
| 24>  H     -2.52399500      1.40119400     -2.17985900
| 25>  H     -3.95121600      0.41024300     -1.75920200
| 26>  C     -2.57981100     -0.48008600      2.02986000
| 27>  H     -3.32317300      0.05146700      2.63793000
| 28>  H     -2.65339100     -1.53798400      2.29234300
| 29>  H     -1.59262500     -0.12427500      2.33191200
| 30>  C     -0.83764300     -2.26308000      0.40015600
| 31>  H     -1.71271400     -2.88447600      0.59459200
| 32>  H     -0.04767300     -2.89756100     -0.02758000
| 33>  H     -0.44835300     -1.84380300      1.32729200
| 34>  C     -1.87793300     -1.63585000     -1.85686500
| 35>  H     -1.22061400     -2.33224100     -2.39627200
| 36>  H     -2.79776100     -2.16663200     -1.60723800
| 37>  H     -2.08107500     -0.79677100     -2.51966200
| 38> *
| 39>
| 40>
| 41>                          ****END OF INPUT****

CARTESIAN COORDINATES (ANGSTROEM)
---------------------------------
  O     -0.241759   -0.286885   -0.817880
  C     -1.098425   -1.207677   -0.639784
  C     -2.875479   -0.252779    0.565519
  C     -2.660862    0.919622   -0.088314
  C     -3.291799    1.211669   -1.417724
  Fe     1.467977    0.152509   -0.013608
  Cl     2.025168    2.042865   -0.949863
  C     -1.751373    1.990576    0.422276
  Cl     2.696637   -1.581005   -0.543687
  Cl     1.159729    0.320166    2.160772
  H     -3.607372   -0.930749    0.128802
  H     -2.282726    2.949922    0.461702
  H     -1.332025    1.781592    1.405570
  H     -0.919129    2.129160   -0.281915
  H     -3.885612    2.131969   -1.345098
  H     -2.523995    1.401194   -2.179859
  H     -3.951216    0.410243   -1.759202
  C     -2.579811   -0.480086    2.029860
  H     -3.323173    0.051467    2.637930
  H     -2.653391   -1.537984    2.292343
  H     -1.592625   -0.124275    2.331912
  C     -0.837643   -2.263080    0.400156
  H     -1.712714   -2.884476    0.594592
  H     -0.047673   -2.897561   -0.027580
  H     -0.448353   -1.843803    1.327292
  C     -1.877933   -1.635850   -1.856865
  H     -1.220614   -2.332241   -2.396272
  H     -2.797761   -2.166632   -1.607238
  H     -2.081075   -0.796771   -2.519662

ORBITAL ENERGIES
----------------
                 SPIN UP ORBITALS
  NO   OCC          E(Eh)            E(eV)
   0   1.0000    -261.568810     -7117.6492
   1   1.0000    -104.789577     -2851.4693
   2   1.0000    -104.785752     -2851.3653
   3   1.0000    -104.783922     -2851.3155
   4   1.0000     -32.236600      -877.2025
   5   1.0000     -27.712938      -754.1074
   6   1.0000     -27.712026      -754.0826
   7   1.0000     -27.711834      -754.0773
   8   1.0000     -20.602620      -560.6258
   9   1.0000     -11.416884      -310.6692
  10   1.0000     -11.290542      -307.2313
  11   1.0000     -11.272713      -306.7461
  12   1.0000     -11.267653      -306.6084
  13   1.0000     -11.254507      -306.2507
  14   1.0000     -11.254294      -306.2449
  15   1.0000     -11.240131      -305.8595
  16   1.0000     -11.238172      -305.8062
  17   1.0000     -10.516275      -286.1624
  18   1.0000     -10.512426      -286.0576
  19   1.0000     -10.510546      -286.0065
  20   1.0000      -7.983125      -217.2319
  21   1.0000      -7.982333      -217.2103
  22   1.0000      -7.982298      -217.2094
  23   1.0000      -7.979288      -217.1275
  24   1.0000      -7.978525      -217.1067
  25   1.0000      -7.978470      -217.1052
  26   1.0000      -7.977350      -217.0747
  27   1.0000      -7.976669      -217.0562
  28   1.0000      -7.976609      -217.0546
  29   1.0000      -4.591647      -124.9451
  30   1.0000      -3.204684       -87.2039
  31   1.0000      -3.203194       -87.1633
  32   1.0000      -3.202995       -87.1579
  33   1.0000      -1.446586       -39.3636
  34   1.0000      -1.141314       -31.0567
  35   1.0000      -1.094601       -29.7856
  36   1.0000      -1.061873       -28.8950
  37   1.0000      -1.055983       -28.7347
  38   1.0000      -1.052888       -28.6505
  39   1.0000      -1.027357       -27.9558
  40   1.0000      -1.004459       -27.3327
  41   1.0000      -0.969794       -26.3894
  42   1.0000      -0.936888       -25.4940
  43   1.0000      -0.920709       -25.0538
  44   1.0000      -0.920611       -25.0511
  45   1.0000      -0.910560       -24.7776
  46   1.0000      -0.909749       -24.7555
  47   1.0000      -0.905561       -24.6416
  48   1.0000      -0.805862       -21.9286
  49   1.0000      -0.741725       -20.1834
  50   1.0000      -0.702007       -19.1026
  51   1.0000      -0.692671       -18.8485
  52   1.0000      -0.683215       -18.5912
  53   1.0000      -0.664436       -18.0802
  54   1.0000      -0.630977       -17.1698
  55   1.0000      -0.621901       -16.9228
  56   1.0000      -0.605430       -16.4746
  57   1.0000      -0.597002       -16.2452
  58   1.0000      -0.583523       -15.8785
  59   1.0000      -0.575666       -15.6647
  60   1.0000      -0.562012       -15.2931
  61   1.0000      -0.558698       -15.2029
  62   1.0000      -0.549627       -14.9561
  63   1.0000      -0.545623       -14.8472
  64   1.0000      -0.535355       -14.5678
  65   1.0000      -0.529463       -14.4074
  66   1.0000      -0.504487       -13.7278
  67   1.0000      -0.495295       -13.4777
  68   1.0000      -0.472863       -12.8673
  69   1.0000      -0.470283       -12.7971
  70   1.0000      -0.441649       -12.0179
  71   1.0000      -0.436432       -11.8759
  72   1.0000      -0.434482       -11.8229
  73   1.0000      -0.425910       -11.5896
  74   1.0000      -0.424665       -11.5557
  75   1.0000      -0.423444       -11.5225
  76   1.0000      -0.367816       -10.0088
  77   0.0000       0.011977         0.3259
  78   0.0000       0.022352         0.6082
  79   0.0000       0.023488         0.6391
  80   0.0000       0.029954         0.8151
  81   0.0000       0.038538         1.0487

                 SPIN DOWN ORBITALS
  NO   OCC          E(Eh)            E(eV)
   0   1.0000    -261.565241     -7117.5521
   1   1.0000    -104.788124     -2851.4298
   2   1.0000    -104.784222     -2851.3236
   3   1.0000    -104.782402     -2851.2741
   4   1.0000     -32.074571      -872.7934
   5   1.0000     -27.552488      -749.7413
   6   1.0000     -27.552438      -749.7399
   7   1.0000     -27.552259      -749.7351
   8   1.0000     -20.598732      -560.5200
   9   1.0000     -11.416792      -310.6667
  10   1.0000     -11.290446      -307.2287
  11   1.0000     -11.272601      -306.7431
  12   1.0000     -11.267639      -306.6080
  13   1.0000     -11.254523      -306.2511
  14   1.0000     -11.254307      -306.2453
  15   1.0000     -11.240127      -305.8594
  16   1.0000     -11.238200      -305.8070
  17   1.0000     -10.514720      -286.1201
  18   1.0000     -10.510792      -286.0132
  19   1.0000     -10.508928      -285.9625
  20   1.0000      -7.980621      -217.1637
  21   1.0000      -7.979953      -217.1456
  22   1.0000      -7.979906      -217.1443
  23   1.0000      -7.976694      -217.0569
  24   1.0000      -7.975994      -217.0378
  25   1.0000      -7.975907      -217.0355
  26   1.0000      -7.974907      -217.0082
  27   1.0000      -7.974076      -216.9856
  28   1.0000      -7.973989      -216.9833
  29   1.0000      -4.149447      -112.9122
  30   1.0000      -2.671062       -72.6833
  31   1.0000      -2.671028       -72.6824
  32   1.0000      -2.670449       -72.6666
  33   1.0000      -1.436872       -39.0993
  34   1.0000      -1.140871       -31.0447
  35   1.0000      -1.091960       -29.7137
  36   1.0000      -1.046592       -28.4792
  37   1.0000      -1.034226       -28.1427
  38   1.0000      -1.030774       -28.0488
  39   1.0000      -1.026775       -27.9400
  40   1.0000      -1.003737       -27.3131
  41   1.0000      -0.969708       -26.3871
  42   1.0000      -0.905945       -24.6520
  43   1.0000      -0.819633       -22.3034
  44   1.0000      -0.741822       -20.1860
  45   1.0000      -0.704623       -19.1738
  46   1.0000      -0.691709       -18.8224
  47   1.0000      -0.682474       -18.5711
  48   1.0000      -0.664311       -18.0768
  49   1.0000      -0.630932       -17.1685
  50   1.0000      -0.621413       -16.9095
  51   1.0000      -0.604969       -16.4621
  52   1.0000      -0.596896       -16.2424
  53   1.0000      -0.583262       -15.8714
  54   1.0000      -0.574226       -15.6255
  55   1.0000      -0.561783       -15.2869
  56   1.0000      -0.558471       -15.1968
  57   1.0000      -0.549422       -14.9505
  58   1.0000      -0.543703       -14.7949
  59   1.0000      -0.533814       -14.5258
  60   1.0000      -0.518968       -14.1218
  61   1.0000      -0.504337       -13.7237
  62   1.0000      -0.496237       -13.5033
  63   1.0000      -0.480269       -13.0688
  64   1.0000      -0.477596       -12.9961
  65   1.0000      -0.449860       -12.2413
  66   1.0000      -0.446358       -12.1460
  67   1.0000      -0.443680       -12.0731
  68   1.0000      -0.428042       -11.6476
  69   1.0000      -0.424227       -11.5438
  70   1.0000      -0.409440       -11.1414
  71   1.0000      -0.366626        -9.9764
  72   0.0000       0.011962         0.3255
  73   0.0000       0.022326         0.6075
  74   0.0000       0.023462         0.6384
  75   0.0000       0.029816         0.8113
  76   0.0000       0.038251         1.0409

E(0)                                       ...  -3028.449045384
E(0)                                       ...  -3028.449045384
E(CORR)(strong-pairs)                      ...     -2.871646906
E(CORR)(weak-pairs)                        ...     -0.035636859
E(CORR)(corrected)                         ...     -2.907283765
E(TOT)                                     ...  -3031.356329148
E(CCSD(T))                                 ...  -3031.475499289
FINAL SINGLE POINT ENERGY     -3031.475499288675

DIPOLE MOMENT
-------------
                                X             Y             Z
Electronic contribution:     42.86751       5.01622       1.21240
Nuclear contribution   :    -46.64853      -6.13362      -1.78454
                        -----------------------------------------
Total Dipole Moment    :     -3.78101      -1.11740      -0.57214
                        -----------------------------------------
Magnitude (a.u.)       :      3.98397
Magnitude (Debye)      :     10.12644

Rotational constants in cm-1:     0.019075     0.010874     0.010233
Rotational constants in MHz :   571.846389   325.993903   306.769967

                             ****ORCA TERMINATED NORMALLY****
TOTAL RUN TIME: 0 days 18 hours 48 minutes 53 seconds 996 msec
