                         Program Version 4.1.2  - RELEASE  -
|  1> ! aug-cc-pVTZ aug-cc-pVTZ/C DLPNO-CCSD(T1) TightSCF NormalPNO UNO MiniPrint AutoAux
|  2> %pal nproc 10 end
|  3> %maxcore 20000
|  4> %mdci
|  5>      density none
|  6> end
|  7>
|  8> * xyz 0 6
|  9>  O     -0.35058900     -0.14162900     -0.53643600
| 10>  C     -1.31980100     -1.08499100     -0.44871000
| 11>  C     -2.95182700     -0.06954400     -0.12029700
| 12>  C     -2.14906600      1.08881400     -0.23397200
| 13>  C     -1.97201900      1.77435500     -1.53972600
| 14> Fe      1.41161500      0.04675000      0.04196500
| 15> Cl      1.90833200      2.03968000     -0.78309100
| 16>  C     -1.59058400      1.77528300      0.95941300
| 17> Cl      2.50620300     -1.68961600     -0.75195700
| 18> Cl      1.35284000      0.06518800      2.26148300
| 19>  H     -3.53484800     -0.29405800     -1.01189200
| 20>  H     -2.39245000      2.41862500      1.35653600
| 21>  H     -1.30314300      1.08490700      1.75353100
| 22>  H     -0.73580800      2.40294900      0.70195200
| 23>  H     -2.59773900      2.68061300     -1.50362400
| 24>  H     -0.93481500      2.09231500     -1.67574200
| 25>  H     -2.30408600      1.17008400     -2.38535400
| 26>  C     -3.64557200     -0.43937800      1.17362400
| 27>  H     -4.52324300      0.20079600      1.32754900
| 28>  H     -3.99998800     -1.47307300      1.13747300
| 29>  H     -3.00101600     -0.33554900      2.04872400
| 30>  C     -1.17934300     -2.02775000      0.72156300
| 31>  H     -2.02054500     -2.71889400      0.80680900
| 32>  H     -0.26913700     -2.61315000      0.53045100
| 33>  H     -1.02417100     -1.49549200      1.66089200
| 34>  C     -1.59430800     -1.75998400     -1.77468000
| 35>  H     -0.68892100     -2.32684100     -2.02854100
| 36>  H     -2.44324600     -2.44721500     -1.72127100
| 37>  H     -1.75437900     -1.02859500     -2.56977100
| 38> *
| 39>
| 40>
| 41>                          ****END OF INPUT****

CARTESIAN COORDINATES (ANGSTROEM)
---------------------------------
  O     -0.350589   -0.141629   -0.536436
  C     -1.319801   -1.084991   -0.448710
  C     -2.951827   -0.069544   -0.120297
  C     -2.149066    1.088814   -0.233972
  C     -1.972019    1.774355   -1.539726
  Fe     1.411615    0.046750    0.041965
  Cl     1.908332    2.039680   -0.783091
  C     -1.590584    1.775283    0.959413
  Cl     2.506203   -1.689616   -0.751957
  Cl     1.352840    0.065188    2.261483
  H     -3.534848   -0.294058   -1.011892
  H     -2.392450    2.418625    1.356536
  H     -1.303143    1.084907    1.753531
  H     -0.735808    2.402949    0.701952
  H     -2.597739    2.680613   -1.503624
  H     -0.934815    2.092315   -1.675742
  H     -2.304086    1.170084   -2.385354
  C     -3.645572   -0.439378    1.173624
  H     -4.523243    0.200796    1.327549
  H     -3.999988   -1.473073    1.137473
  H     -3.001016   -0.335549    2.048724
  C     -1.179343   -2.027750    0.721563
  H     -2.020545   -2.718894    0.806809
  H     -0.269137   -2.613150    0.530451
  H     -1.024171   -1.495492    1.660892
  C     -1.594308   -1.759984   -1.774680
  H     -0.688921   -2.326841   -2.028541
  H     -2.443246   -2.447215   -1.721271
  H     -1.754379   -1.028595   -2.569771

ORBITAL ENERGIES
----------------
                 SPIN UP ORBITALS
  NO   OCC          E(Eh)            E(eV)
   0   1.0000    -261.550265     -7117.1445
   1   1.0000    -104.776231     -2851.1062
   2   1.0000    -104.775767     -2851.0936
   3   1.0000    -104.774292     -2851.0534
   4   1.0000     -32.218158      -876.7006
   5   1.0000     -27.694065      -753.5938
   6   1.0000     -27.693887      -753.5890
   7   1.0000     -27.693613      -753.5815
   8   1.0000     -20.552195      -559.2536
   9   1.0000     -11.380986      -309.6924
  10   1.0000     -11.377551      -309.5989
  11   1.0000     -11.279631      -306.9344
  12   1.0000     -11.272471      -306.7395
  13   1.0000     -11.268452      -306.6302
  14   1.0000     -11.261734      -306.4474
  15   1.0000     -11.252208      -306.1881
  16   1.0000     -11.247587      -306.0624
  17   1.0000     -10.502727      -285.7937
  18   1.0000     -10.502356      -285.7836
  19   1.0000     -10.500826      -285.7420
  20   1.0000      -7.969547      -216.8624
  21   1.0000      -7.969249      -216.8543
  22   1.0000      -7.968818      -216.8426
  23   1.0000      -7.968729      -216.8401
  24   1.0000      -7.968402      -216.8312
  25   1.0000      -7.968351      -216.8299
  26   1.0000      -7.967646      -216.8107
  27   1.0000      -7.966934      -216.7913
  28   1.0000      -7.966849      -216.7890
  29   1.0000      -4.573636      -124.4550
  30   1.0000      -3.186273       -86.7029
  31   1.0000      -3.185751       -86.6887
  32   1.0000      -3.185167       -86.6728
  33   1.0000      -1.388410       -37.7806
  34   1.0000      -1.175746       -31.9937
  35   1.0000      -1.086412       -29.5628
  36   1.0000      -1.047880       -28.5143
  37   1.0000      -1.042254       -28.3612
  38   1.0000      -1.041049       -28.3284
  39   1.0000      -1.040740       -28.3200
  40   1.0000      -1.005210       -27.3532
  41   1.0000      -0.981051       -26.6958
  42   1.0000      -0.933465       -25.4009
  43   1.0000      -0.913193       -24.8493
  44   1.0000      -0.903277       -24.5794
  45   1.0000      -0.903215       -24.5777
  46   1.0000      -0.894637       -24.3443
  47   1.0000      -0.894202       -24.3325
  48   1.0000      -0.785078       -21.3631
  49   1.0000      -0.764087       -20.7919
  50   1.0000      -0.697227       -18.9725
  51   1.0000      -0.694052       -18.8861
  52   1.0000      -0.674626       -18.3575
  53   1.0000      -0.650264       -17.6946
  54   1.0000      -0.642388       -17.4803
  55   1.0000      -0.625633       -17.0244
  56   1.0000      -0.600313       -16.3353
  57   1.0000      -0.593007       -16.1366
  58   1.0000      -0.589849       -16.0506
  59   1.0000      -0.584759       -15.9121
  60   1.0000      -0.574229       -15.6256
  61   1.0000      -0.563427       -15.3316
  62   1.0000      -0.556444       -15.1416
  63   1.0000      -0.546675       -14.8758
  64   1.0000      -0.537138       -14.6163
  65   1.0000      -0.532132       -14.4800
  66   1.0000      -0.509312       -13.8591
  67   1.0000      -0.478604       -13.0235
  68   1.0000      -0.463275       -12.6064
  69   1.0000      -0.451220       -12.2783
  70   1.0000      -0.430384       -11.7113
  71   1.0000      -0.426296       -11.6001
  72   1.0000      -0.423387       -11.5209
  73   1.0000      -0.416752       -11.3404
  74   1.0000      -0.414512       -11.2795
  75   1.0000      -0.413305       -11.2466
  76   1.0000      -0.387324       -10.5396
  77   0.0000       0.008595         0.2339
  78   0.0000       0.019711         0.5364
  79   0.0000       0.021967         0.5978
  80   0.0000       0.030328         0.8253
  81   0.0000       0.035717         0.9719

                 SPIN DOWN ORBITALS
  NO   OCC          E(Eh)            E(eV)
   0   1.0000    -261.546719     -7117.0480
   1   1.0000    -104.774904     -2851.0701
   2   1.0000    -104.774395     -2851.0562
   3   1.0000    -104.772863     -2851.0146
   4   1.0000     -32.056134      -872.2918
   5   1.0000     -27.534194      -749.2435
   6   1.0000     -27.534032      -749.2391
   7   1.0000     -27.533573      -749.2266
   8   1.0000     -20.546628      -559.1022
   9   1.0000     -11.380950      -309.6914
  10   1.0000     -11.377565      -309.5993
  11   1.0000     -11.279266      -306.9244
  12   1.0000     -11.272456      -306.7391
  13   1.0000     -11.268468      -306.6306
  14   1.0000     -11.261769      -306.4483
  15   1.0000     -11.252117      -306.1857
  16   1.0000     -11.247547      -306.0613
  17   1.0000     -10.501305      -285.7550
  18   1.0000     -10.500881      -285.7435
  19   1.0000     -10.499296      -285.7004
  20   1.0000      -7.967267      -216.8004
  21   1.0000      -7.966760      -216.7866
  22   1.0000      -7.966638      -216.7833
  23   1.0000      -7.966547      -216.7808
  24   1.0000      -7.966231      -216.7722
  25   1.0000      -7.966158      -216.7702
  26   1.0000      -7.965251      -216.7455
  27   1.0000      -7.964544      -216.7263
  28   1.0000      -7.964470      -216.7242
  29   1.0000      -4.131437      -112.4221
  30   1.0000      -2.653221       -72.1978
  31   1.0000      -2.653148       -72.1958
  32   1.0000      -2.652572       -72.1801
  33   1.0000      -1.374077       -37.3905
  34   1.0000      -1.174468       -31.9589
  35   1.0000      -1.083674       -29.4883
  36   1.0000      -1.040053       -28.3013
  37   1.0000      -1.033428       -28.1210
  38   1.0000      -1.022405       -27.8211
  39   1.0000      -1.020708       -27.7749
  40   1.0000      -1.004836       -27.3430
  41   1.0000      -0.980455       -26.6795
  42   1.0000      -0.930238       -25.3131
  43   1.0000      -0.795517       -21.6471
  44   1.0000      -0.766318       -20.8526
  45   1.0000      -0.697373       -18.9765
  46   1.0000      -0.693341       -18.8668
  47   1.0000      -0.676429       -18.4066
  48   1.0000      -0.651007       -17.7148
  49   1.0000      -0.640980       -17.4419
  50   1.0000      -0.625701       -17.0262
  51   1.0000      -0.599366       -16.3096
  52   1.0000      -0.593009       -16.1366
  53   1.0000      -0.589733       -16.0475
  54   1.0000      -0.583873       -15.8880
  55   1.0000      -0.574113       -15.6224
  56   1.0000      -0.563486       -15.3332
  57   1.0000      -0.555648       -15.1199
  58   1.0000      -0.545875       -14.8540
  59   1.0000      -0.534124       -14.5342
  60   1.0000      -0.528936       -14.3931
  61   1.0000      -0.503639       -13.7047
  62   1.0000      -0.475014       -12.9258
  63   1.0000      -0.466877       -12.7044
  64   1.0000      -0.461714       -12.5639
  65   1.0000      -0.437676       -11.9098
  66   1.0000      -0.434661       -11.8277
  67   1.0000      -0.433197       -11.7879
  68   1.0000      -0.423019       -11.5109
  69   1.0000      -0.412510       -11.2250
  70   1.0000      -0.400634       -10.9018
  71   1.0000      -0.384482       -10.4623
  72   0.0000       0.008594         0.2339
  73   0.0000       0.019635         0.5343
  74   0.0000       0.021949         0.5973
  75   0.0000       0.030364         0.8262
  76   0.0000       0.035264         0.9596

E(0)                                       ...  -3028.420155651
E(0)                                       ...  -3028.420155651
E(CORR)(strong-pairs)                      ...     -2.871852203
E(CORR)(weak-pairs)                        ...     -0.035543373
E(CORR)(corrected)                         ...     -2.907395576
E(TOT)                                     ...  -3031.327551226
E(CCSD(T))                                 ...  -3031.446766207
FINAL SINGLE POINT ENERGY     -3031.446766207452

DIPOLE MOMENT
-------------
                                X             Y             Z
Electronic contribution:     40.84777       3.44327       2.20222
Nuclear contribution   :    -45.46419      -3.33166      -2.67917
                        -----------------------------------------
Total Dipole Moment    :     -4.61642       0.11161      -0.47695
                        -----------------------------------------
Magnitude (a.u.)       :      4.64234
Magnitude (Debye)      :     11.79989

Rotational constants in cm-1:     0.019308     0.011585     0.010659
Rotational constants in MHz :   578.833866   347.323520   319.557564

                             ****ORCA TERMINATED NORMALLY****
TOTAL RUN TIME: 0 days 21 hours 22 minutes 26 seconds 493 msec
