                         Program Version 4.1.2  - RELEASE  -
|  1> ! aug-cc-pVTZ aug-cc-pVTZ/C DLPNO-CCSD(T1) TightSCF NormalPNO UNO MiniPrint AutoAux
|  2> %pal nproc 10 end
|  3> %maxcore 20000
|  4> %mdci
|  5>      density none
|  6> end
|  7>
|  8> * xyz 0 6
|  9>  O      0.23689700      0.34131900     -0.83935300
| 10>  C      1.00772200      1.31333000     -0.65534500
| 11>  C      3.11491600      0.05495100      0.46991500
| 12>  C      2.57024000     -0.97234500     -0.21298000
| 13>  C      2.93023600     -1.24227500     -1.64833800
| 14> Fe     -1.46719500     -0.14785700      0.02716300
| 15> Cl     -2.08964500     -1.97313200     -0.97750200
| 16>  C      1.64055700     -1.98599800      0.38661600
| 17> Cl     -2.65785000      1.63476000     -0.41958900
| 18> Cl     -1.11421700     -0.37237900      2.18191900
| 19>  H      3.84042700      0.67568500     -0.05662900
| 20>  H      2.15810800     -2.95180200      0.46715100
| 21>  H      1.27387900     -1.71768500      1.37688900
| 22>  H      0.77812900     -2.15750700     -0.26824700
| 23>  H      3.36759200     -2.24487900     -1.74100400
| 24>  H      2.03309100     -1.23808500     -2.28115900
| 25>  H      3.65346200     -0.52299200     -2.04314200
| 26>  C      2.99917500      0.31336000      1.94810000
| 27>  H      3.83517500     -0.15968000      2.48135500
| 28>  H      3.05112500      1.38338900      2.17455100
| 29>  H      2.07394000     -0.07797000      2.37873300
| 30>  C      0.86532300      2.19629000      0.54381400
| 31>  H      1.75314000      2.80718000      0.71075000
| 32>  H      0.01679400      2.86390600      0.33088000
| 33>  H      0.61236900      1.62689100      1.43845200
| 34>  C      1.79922100      1.82044200     -1.82208300
| 35>  H      1.19284500      2.62059200     -2.27219400
| 36>  H      2.75076200      2.25773400     -1.51622900
| 37>  H      1.94581200      1.04519100     -2.57183000
| 38> *
| 39>
| 40>
| 41>                          ****END OF INPUT****

CARTESIAN COORDINATES (ANGSTROEM)
---------------------------------
  O      0.236897    0.341319   -0.839353
  C      1.007722    1.313330   -0.655345
  C      3.114916    0.054951    0.469915
  C      2.570240   -0.972345   -0.212980
  C      2.930236   -1.242275   -1.648338
  Fe    -1.467195   -0.147857    0.027163
  Cl    -2.089645   -1.973132   -0.977502
  C      1.640557   -1.985998    0.386616
  Cl    -2.657850    1.634760   -0.419589
  Cl    -1.114217   -0.372379    2.181919
  H      3.840427    0.675685   -0.056629
  H      2.158108   -2.951802    0.467151
  H      1.273879   -1.717685    1.376889
  H      0.778129   -2.157507   -0.268247
  H      3.367592   -2.244879   -1.741004
  H      2.033091   -1.238085   -2.281159
  H      3.653462   -0.522992   -2.043142
  C      2.999175    0.313360    1.948100
  H      3.835175   -0.159680    2.481355
  H      3.051125    1.383389    2.174551
  H      2.073940   -0.077970    2.378733
  C      0.865323    2.196290    0.543814
  H      1.753140    2.807180    0.710750
  H      0.016794    2.863906    0.330880
  H      0.612369    1.626891    1.438452
  C      1.799221    1.820442   -1.822083
  H      1.192845    2.620592   -2.272194
  H      2.750762    2.257734   -1.516229
  H      1.945812    1.045191   -2.571830

ORBITAL ENERGIES
----------------
                 SPIN UP ORBITALS
  NO   OCC          E(Eh)            E(eV)
   0   1.0000    -261.576969     -7117.8712
   1   1.0000    -104.794348     -2851.5992
   2   1.0000    -104.791395     -2851.5188
   3   1.0000    -104.789641     -2851.4711
   4   1.0000     -32.244648      -877.4215
   5   1.0000     -27.721143      -754.3307
   6   1.0000     -27.719979      -754.2990
   7   1.0000     -27.719798      -754.2941
   8   1.0000     -20.620746      -561.1190
   9   1.0000     -11.422197      -310.8138
  10   1.0000     -11.278260      -306.8971
  11   1.0000     -11.272326      -306.7356
  12   1.0000     -11.265157      -306.5405
  13   1.0000     -11.242242      -305.9170
  14   1.0000     -11.241058      -305.8847
  15   1.0000     -11.237422      -305.7858
  16   1.0000     -11.228297      -305.5375
  17   1.0000     -10.521069      -286.2928
  18   1.0000     -10.518089      -286.2118
  19   1.0000     -10.516283      -286.1626
  20   1.0000      -7.987897      -217.3617
  21   1.0000      -7.987152      -217.3415
  22   1.0000      -7.987097      -217.3399
  23   1.0000      -7.984981      -217.2824
  24   1.0000      -7.984181      -217.2606
  25   1.0000      -7.984123      -217.2590
  26   1.0000      -7.983067      -217.2303
  27   1.0000      -7.982409      -217.2124
  28   1.0000      -7.982366      -217.2112
  29   1.0000      -4.599467      -125.1579
  30   1.0000      -3.212604       -87.4194
  31   1.0000      -3.210846       -87.3716
  32   1.0000      -3.210721       -87.3682
  33   1.0000      -1.466086       -39.8942
  34   1.0000      -1.124802       -30.6074
  35   1.0000      -1.102117       -29.9901
  36   1.0000      -1.067649       -29.0522
  37   1.0000      -1.061916       -28.8962
  38   1.0000      -1.059274       -28.8243
  39   1.0000      -1.021551       -27.7978
  40   1.0000      -1.009712       -27.4757
  41   1.0000      -0.957318       -26.0499
  42   1.0000      -0.943432       -25.6721
  43   1.0000      -0.928353       -25.2618
  44   1.0000      -0.928240       -25.2587
  45   1.0000      -0.917449       -24.9651
  46   1.0000      -0.916855       -24.9489
  47   1.0000      -0.895449       -24.3664
  48   1.0000      -0.814694       -22.1689
  49   1.0000      -0.727955       -19.8086
  50   1.0000      -0.713416       -19.4130
  51   1.0000      -0.703743       -19.1498
  52   1.0000      -0.686130       -18.6705
  53   1.0000      -0.653969       -17.7954
  54   1.0000      -0.621884       -16.9223
  55   1.0000      -0.620224       -16.8771
  56   1.0000      -0.603824       -16.4309
  57   1.0000      -0.599840       -16.3225
  58   1.0000      -0.586167       -15.9504
  59   1.0000      -0.579247       -15.7621
  60   1.0000      -0.560798       -15.2601
  61   1.0000      -0.550295       -14.9743
  62   1.0000      -0.548987       -14.9387
  63   1.0000      -0.539021       -14.6675
  64   1.0000      -0.536127       -14.5888
  65   1.0000      -0.525402       -14.2969
  66   1.0000      -0.504228       -13.7207
  67   1.0000      -0.491848       -13.3839
  68   1.0000      -0.477474       -12.9927
  69   1.0000      -0.477054       -12.9813
  70   1.0000      -0.447479       -12.1765
  71   1.0000      -0.441278       -12.0078
  72   1.0000      -0.439529       -11.9602
  73   1.0000      -0.430893       -11.7252
  74   1.0000      -0.429843       -11.6966
  75   1.0000      -0.428719       -11.6660
  76   1.0000      -0.358085        -9.7440
  77   0.0000       0.012774         0.3476
  78   0.0000       0.023744         0.6461
  79   0.0000       0.024474         0.6660
  80   0.0000       0.030706         0.8356
  81   0.0000       0.039436         1.0731

                 SPIN DOWN ORBITALS
  NO   OCC          E(Eh)            E(eV)
   0   1.0000    -261.573388     -7117.7738
   1   1.0000    -104.792857     -2851.5586
   2   1.0000    -104.789840     -2851.4765
   3   1.0000    -104.788076     -2851.4285
   4   1.0000     -32.082667      -873.0138
   5   1.0000     -27.560601      -749.9621
   6   1.0000     -27.560502      -749.9594
   7   1.0000     -27.560406      -749.9568
   8   1.0000     -20.617315      -561.0257
   9   1.0000     -11.422113      -310.8115
  10   1.0000     -11.278155      -306.8942
  11   1.0000     -11.272322      -306.7355
  12   1.0000     -11.265205      -306.5418
  13   1.0000     -11.242161      -305.9148
  14   1.0000     -11.241051      -305.8845
  15   1.0000     -11.237431      -305.7860
  16   1.0000     -11.228307      -305.5378
  17   1.0000     -10.519477      -286.2495
  18   1.0000     -10.516429      -286.1666
  19   1.0000     -10.514621      -286.1174
  20   1.0000      -7.985401      -217.2938
  21   1.0000      -7.984653      -217.2735
  22   1.0000      -7.984611      -217.2723
  23   1.0000      -7.982295      -217.2093
  24   1.0000      -7.981633      -217.1913
  25   1.0000      -7.981538      -217.1887
  26   1.0000      -7.980615      -217.1636
  27   1.0000      -7.979709      -217.1389
  28   1.0000      -7.979629      -217.1368
  29   1.0000      -4.157398      -113.1286
  30   1.0000      -2.678949       -72.8979
  31   1.0000      -2.678897       -72.8965
  32   1.0000      -2.678460       -72.8846
  33   1.0000      -1.457669       -39.6652
  34   1.0000      -1.124495       -30.5991
  35   1.0000      -1.099863       -29.9288
  36   1.0000      -1.052016       -28.6268
  37   1.0000      -1.039451       -28.2849
  38   1.0000      -1.036507       -28.2048
  39   1.0000      -1.020771       -27.7766
  40   1.0000      -1.009280       -27.4639
  41   1.0000      -0.957158       -26.0456
  42   1.0000      -0.895579       -24.3699
  43   1.0000      -0.827086       -22.5061
  44   1.0000      -0.728024       -19.8106
  45   1.0000      -0.715321       -19.4649
  46   1.0000      -0.702931       -19.1277
  47   1.0000      -0.685503       -18.6535
  48   1.0000      -0.653909       -17.7938
  49   1.0000      -0.621332       -16.9073
  50   1.0000      -0.620148       -16.8751
  51   1.0000      -0.603601       -16.4248
  52   1.0000      -0.599766       -16.3205
  53   1.0000      -0.585923       -15.9438
  54   1.0000      -0.578097       -15.7308
  55   1.0000      -0.559803       -15.2330
  56   1.0000      -0.550235       -14.9726
  57   1.0000      -0.546752       -14.8779
  58   1.0000      -0.539043       -14.6681
  59   1.0000      -0.527073       -14.3424
  60   1.0000      -0.523208       -14.2372
  61   1.0000      -0.505800       -13.7635
  62   1.0000      -0.491569       -13.3763
  63   1.0000      -0.485969       -13.2239
  64   1.0000      -0.483682       -13.1617
  65   1.0000      -0.454521       -12.3681
  66   1.0000      -0.451602       -12.2887
  67   1.0000      -0.448608       -12.2072
  68   1.0000      -0.432125       -11.7587
  69   1.0000      -0.430122       -11.7042
  70   1.0000      -0.414022       -11.2661
  71   1.0000      -0.357532        -9.7289
  72   0.0000       0.012758         0.3472
  73   0.0000       0.023720         0.6455
  74   0.0000       0.024437         0.6650
  75   0.0000       0.030645         0.8339
  76   0.0000       0.039334         1.0703

E(0)                                       ...  -3028.464906102
E(0)                                       ...  -3028.464906102
E(CORR)(strong-pairs)                      ...     -2.867775282
E(CORR)(weak-pairs)                        ...     -0.035410562
E(CORR)(corrected)                         ...     -2.903185844
E(TOT)                                     ...  -3031.368091946
E(CCSD(T))                                 ...  -3031.486090169
FINAL SINGLE POINT ENERGY     -3031.486090169233

DIPOLE MOMENT
-------------
                                X             Y             Z
Electronic contribution:    -43.31354      -4.17176       1.90238
Nuclear contribution   :     46.57700       5.58644      -2.53568
                        -----------------------------------------
Total Dipole Moment    :      3.26347       1.41468      -0.63330
                        -----------------------------------------
Magnitude (a.u.)       :      3.61284
Magnitude (Debye)      :      9.18311

Rotational constants in cm-1:     0.018822     0.010821     0.010197
Rotational constants in MHz :   564.265860   324.391029   305.713322

                             ****ORCA TERMINATED NORMALLY****
TOTAL RUN TIME: 0 days 17 hours 49 minutes 42 seconds 897 msec
