                         Program Version 4.1.2  - RELEASE  -
|  1> ! aug-cc-pVTZ aug-cc-pVTZ/C DLPNO-CCSD(T1) TightSCF NormalPNO UNO MiniPrint AutoAux
|  2> %pal nproc 10 end
|  3> %maxcore 20000
|  4> %mdci
|  5>      density none
|  6> end
|  7>
|  8> * xyz 0 6
|  9>  O     -0.31594400     -0.11864800     -0.42456900
| 10>  C     -1.21205100     -1.07135300     -0.22470200
| 11>  C     -2.57038800     -0.33620400      0.79362000
| 12>  C     -3.02485200      0.68746900     -0.05783400
| 13>  C     -4.14429400      0.47177500     -1.01342000
| 14> Fe      1.51582000      0.17303400     -0.09377500
| 15> Cl      1.83368600      2.17756200     -0.93944300
| 16>  C     -2.29586500      1.96265600     -0.11854200
| 17> Cl      2.53151200     -1.49029000     -1.11483900
| 18> Cl      1.82866000      0.13036900      2.09479900
| 19>  H     -3.25418100     -1.18442500      0.85120000
| 20>  H     -2.74961400      2.69810800     -0.78479000
| 21>  H     -2.11250500      2.39572900      0.86965500
| 22>  H     -1.28570500      1.68633200     -0.49691600
| 23>  H     -4.97561700      1.12415400     -0.70585300
| 24>  H     -3.86960300      0.79220700     -2.02602000
| 25>  H     -4.50366300     -0.55827900     -1.03134100
| 26>  C     -1.94276400      0.05871900      2.12816900
| 27>  H     -2.58929200      0.76978800      2.65348500
| 28>  H     -1.82553700     -0.81574400      2.76951000
| 29>  H     -0.95865800      0.51368200      1.99970700
| 30>  C     -0.74422700     -2.21046500      0.68609200
| 31>  H     -1.55849500     -2.89048400      0.95026000
| 32>  H      0.00642900     -2.76727000      0.11280900
| 33>  H     -0.25743200     -1.83778900      1.58685700
| 34>  C     -1.80945400     -1.59258000     -1.52885400
| 35>  H     -1.03059700     -2.18345000     -2.02260900
| 36>  H     -2.67839100     -2.23694100     -1.36464100
| 37>  H     -2.07311600     -0.77531300     -2.20256900
| 38> *
| 39>
| 40>
| 41>                          ****END OF INPUT****

CARTESIAN COORDINATES (ANGSTROEM)
---------------------------------
  O     -0.315944   -0.118648   -0.424569
  C     -1.212051   -1.071353   -0.224702
  C     -2.570388   -0.336204    0.793620
  C     -3.024852    0.687469   -0.057834
  C     -4.144294    0.471775   -1.013420
  Fe     1.515820    0.173034   -0.093775
  Cl     1.833686    2.177562   -0.939443
  C     -2.295865    1.962656   -0.118542
  Cl     2.531512   -1.490290   -1.114839
  Cl     1.828660    0.130369    2.094799
  H     -3.254181   -1.184425    0.851200
  H     -2.749614    2.698108   -0.784790
  H     -2.112505    2.395729    0.869655
  H     -1.285705    1.686332   -0.496916
  H     -4.975617    1.124154   -0.705853
  H     -3.869603    0.792207   -2.026020
  H     -4.503663   -0.558279   -1.031341
  C     -1.942764    0.058719    2.128169
  H     -2.589292    0.769788    2.653485
  H     -1.825537   -0.815744    2.769510
  H     -0.958658    0.513682    1.999707
  C     -0.744227   -2.210465    0.686092
  H     -1.558495   -2.890484    0.950260
  H      0.006429   -2.767270    0.112809
  H     -0.257432   -1.837789    1.586857
  C     -1.809454   -1.592580   -1.528854
  H     -1.030597   -2.183450   -2.022609
  H     -2.678391   -2.236941   -1.364641
  H     -2.073116   -0.775313   -2.202569

ORBITAL ENERGIES
----------------
                 SPIN UP ORBITALS
  NO   OCC          E(Eh)            E(eV)
   0   1.0000    -261.545262     -7117.0084
   1   1.0000    -104.771245     -2850.9705
   2   1.0000    -104.769213     -2850.9152
   3   1.0000    -104.768318     -2850.8909
   4   1.0000     -32.213168      -876.5649
   5   1.0000     -27.689184      -753.4610
   6   1.0000     -27.688776      -753.4499
   7   1.0000     -27.688601      -753.4451
   8   1.0000     -20.551121      -559.2244
   9   1.0000     -11.376291      -309.5646
  10   1.0000     -11.371455      -309.4330
  11   1.0000     -11.297121      -307.4103
  12   1.0000     -11.285179      -307.0853
  13   1.0000     -11.271874      -306.7233
  14   1.0000     -11.251742      -306.1755
  15   1.0000     -11.251698      -306.1743
  16   1.0000     -11.243096      -305.9402
  17   1.0000     -10.497877      -285.6618
  18   1.0000     -10.495803      -285.6053
  19   1.0000     -10.494941      -285.5819
  20   1.0000      -7.964744      -216.7317
  21   1.0000      -7.963931      -216.7096
  22   1.0000      -7.963884      -216.7083
  23   1.0000      -7.962623      -216.6740
  24   1.0000      -7.961917      -216.6548
  25   1.0000      -7.961819      -216.6521
  26   1.0000      -7.961796      -216.6515
  27   1.0000      -7.961038      -216.6309
  28   1.0000      -7.960956      -216.6286
  29   1.0000      -4.568561      -124.3169
  30   1.0000      -3.181228       -86.5656
  31   1.0000      -3.180563       -86.5475
  32   1.0000      -3.180109       -86.5352
  33   1.0000      -1.388237       -37.7758
  34   1.0000      -1.190754       -32.4021
  35   1.0000      -1.081258       -29.4225
  36   1.0000      -1.046367       -28.4731
  37   1.0000      -1.042444       -28.3664
  38   1.0000      -1.037134       -28.2219
  39   1.0000      -1.035192       -28.1690
  40   1.0000      -1.013513       -27.5791
  41   1.0000      -0.975860       -26.5545
  42   1.0000      -0.929606       -25.2959
  43   1.0000      -0.912066       -24.8186
  44   1.0000      -0.898011       -24.4361
  45   1.0000      -0.897989       -24.4355
  46   1.0000      -0.889014       -24.1913
  47   1.0000      -0.888637       -24.1810
  48   1.0000      -0.792179       -21.5563
  49   1.0000      -0.769738       -20.9456
  50   1.0000      -0.704587       -19.1728
  51   1.0000      -0.693389       -18.8681
  52   1.0000      -0.669775       -18.2255
  53   1.0000      -0.658896       -17.9295
  54   1.0000      -0.653316       -17.7776
  55   1.0000      -0.632825       -17.2200
  56   1.0000      -0.604397       -16.4465
  57   1.0000      -0.599769       -16.3205
  58   1.0000      -0.591225       -16.0881
  59   1.0000      -0.581432       -15.8216
  60   1.0000      -0.576023       -15.6744
  61   1.0000      -0.563280       -15.3276
  62   1.0000      -0.558005       -15.1841
  63   1.0000      -0.539584       -14.6828
  64   1.0000      -0.536132       -14.5889
  65   1.0000      -0.521476       -14.1901
  66   1.0000      -0.506276       -13.7765
  67   1.0000      -0.469125       -12.7655
  68   1.0000      -0.458370       -12.4729
  69   1.0000      -0.445364       -12.1190
  70   1.0000      -0.425691       -11.5836
  71   1.0000      -0.421943       -11.4817
  72   1.0000      -0.418033       -11.3753
  73   1.0000      -0.410134       -11.1603
  74   1.0000      -0.408198       -11.1076
  75   1.0000      -0.407666       -11.0931
  76   1.0000      -0.400372       -10.8947
  77   0.0000       0.003621         0.0985
  78   0.0000       0.007132         0.1941
  79   0.0000       0.018051         0.4912
  80   0.0000       0.019132         0.5206
  81   0.0000       0.027960         0.7608

                 SPIN DOWN ORBITALS
  NO   OCC          E(Eh)            E(eV)
   0   1.0000    -261.541709     -7116.9117
   1   1.0000    -104.769854     -2850.9327
   2   1.0000    -104.767821     -2850.8773
   3   1.0000    -104.766880     -2850.8517
   4   1.0000     -32.051083      -872.1543
   5   1.0000     -27.529113      -749.1053
   6   1.0000     -27.528994      -749.1020
   7   1.0000     -27.528573      -749.0905
   8   1.0000     -20.545985      -559.0847
   9   1.0000     -11.376124      -309.5601
  10   1.0000     -11.371408      -309.4317
  11   1.0000     -11.297146      -307.4110
  12   1.0000     -11.285067      -307.0823
  13   1.0000     -11.271899      -306.7240
  14   1.0000     -11.251728      -306.1751
  15   1.0000     -11.251638      -306.1726
  16   1.0000     -11.243076      -305.9397
  17   1.0000     -10.496383      -285.6211
  18   1.0000     -10.494313      -285.5648
  19   1.0000     -10.493400      -285.5399
  20   1.0000      -7.962279      -216.6646
  21   1.0000      -7.961699      -216.6488
  22   1.0000      -7.961627      -216.6469
  23   1.0000      -7.960284      -216.6103
  24   1.0000      -7.959601      -216.5917
  25   1.0000      -7.959496      -216.5889
  26   1.0000      -7.959326      -216.5843
  27   1.0000      -7.958673      -216.5665
  28   1.0000      -7.958588      -216.5642
  29   1.0000      -4.126242      -112.2808
  30   1.0000      -2.648045       -72.0570
  31   1.0000      -2.647993       -72.0556
  32   1.0000      -2.647160       -72.0329
  33   1.0000      -1.375083       -37.4179
  34   1.0000      -1.189764       -32.3751
  35   1.0000      -1.078721       -29.3535
  36   1.0000      -1.045527       -28.4502
  37   1.0000      -1.027950       -27.9719
  38   1.0000      -1.016503       -27.6605
  39   1.0000      -1.014740       -27.6125
  40   1.0000      -1.013104       -27.5680
  41   1.0000      -0.975211       -26.5368
  42   1.0000      -0.928997       -25.2793
  43   1.0000      -0.801599       -21.8126
  44   1.0000      -0.774118       -21.0648
  45   1.0000      -0.705131       -19.1876
  46   1.0000      -0.692650       -18.8480
  47   1.0000      -0.669871       -18.2281
  48   1.0000      -0.661560       -18.0020
  49   1.0000      -0.651631       -17.7318
  50   1.0000      -0.632304       -17.2059
  51   1.0000      -0.604419       -16.4471
  52   1.0000      -0.599586       -16.3156
  53   1.0000      -0.590265       -16.0619
  54   1.0000      -0.581230       -15.8161
  55   1.0000      -0.575496       -15.6600
  56   1.0000      -0.562856       -15.3161
  57   1.0000      -0.558057       -15.1855
  58   1.0000      -0.538545       -14.6546
  59   1.0000      -0.535926       -14.5833
  60   1.0000      -0.516904       -14.0657
  61   1.0000      -0.498960       -13.5774
  62   1.0000      -0.466944       -12.7062
  63   1.0000      -0.461595       -12.5606
  64   1.0000      -0.454371       -12.3641
  65   1.0000      -0.432558       -11.7705
  66   1.0000      -0.430055       -11.7024
  67   1.0000      -0.427982       -11.6460
  68   1.0000      -0.423953       -11.5363
  69   1.0000      -0.407392       -11.0857
  70   1.0000      -0.394026       -10.7220
  71   1.0000      -0.393077       -10.6962
  72   0.0000       0.003630         0.0988
  73   0.0000       0.007054         0.1919
  74   0.0000       0.018048         0.4911
  75   0.0000       0.019106         0.5199
  76   0.0000       0.027958         0.7608

E(0)                                       ...  -3028.427084985
E(0)                                       ...  -3028.427084985
E(CORR)(strong-pairs)                      ...     -2.874837392
E(CORR)(weak-pairs)                        ...     -0.035471030
E(CORR)(corrected)                         ...     -2.910308422
E(TOT)                                     ...  -3031.337393407
E(CCSD(T))                                 ...  -3031.457560970
FINAL SINGLE POINT ENERGY     -3031.457560970292

DIPOLE MOMENT
-------------
                                X             Y             Z
Electronic contribution:     42.94840       6.51252      -1.45954
Nuclear contribution   :    -48.54434      -6.84430       1.39988
                        -----------------------------------------
Total Dipole Moment    :     -5.59594      -0.33178      -0.05966
                        -----------------------------------------
Magnitude (a.u.)       :      5.60608
Magnitude (Debye)      :     14.24953

Rotational constants in cm-1:     0.019983     0.010219     0.009775
Rotational constants in MHz :   599.085065   306.355606   293.038132

                             ****ORCA TERMINATED NORMALLY****
TOTAL RUN TIME: 0 days 21 hours 38 minutes 47 seconds 371 msec
