                         Program Version 4.1.2  - RELEASE  -
|  1> ! aug-cc-pVTZ aug-cc-pVTZ/C DLPNO-CCSD(T1) TightSCF NormalPNO UNO MiniPrint AutoAux
|  2> %pal nproc 10 end
|  3> %maxcore 20000
|  4> %mdci
|  5>      density none
|  6> end
|  7>
|  8> * xyz 0 6
|  9>  O     -0.29692800     -0.35316600     -0.72175200
| 10>  C     -1.37207800     -1.22254400     -0.46835600
| 11>  C     -2.50399300     -0.38202500      0.28814700
| 12>  C     -2.28331400      1.03511400     -0.10778000
| 13>  C     -2.70839700      1.50739400     -1.44214800
| 14> Fe      1.34487500      0.06565700     -0.03885400
| 15> Cl      1.49768700      2.22234700     -0.70138700
| 16>  C     -1.58414000      1.98863400      0.73370300
| 17> Cl      2.90362000     -1.27881700     -0.79171500
| 18> Cl      1.15137600      0.03864700      2.18705500
| 19>  H     -3.46044200     -0.69374200     -0.15018200
| 20>  H     -2.06615400      2.97270000      0.71960200
| 21>  H     -1.35740000      1.65150100      1.74142500
| 22>  H     -0.60545300      2.16841700      0.21177000
| 23>  H     -2.93384000      2.57675800     -1.45331800
| 24>  H     -1.81688000      1.36298200     -2.07699900
| 25>  H     -3.52614600      0.92593000     -1.86950100
| 26>  C     -2.56293300     -0.58643800      1.80882400
| 27>  H     -3.29297900      0.09253200      2.26243100
| 28>  H     -2.88425500     -1.60746300      2.02574400
| 29>  H     -1.59297800     -0.42794800      2.28411000
| 30>  C     -0.91703700     -2.42644700      0.36205200
| 31>  H     -1.73482400     -3.13089900      0.54645000
| 32>  H     -0.14068500     -2.94230500     -0.21255500
| 33>  H     -0.47991700     -2.12231400      1.31400800
| 34>  C     -1.90590700     -1.72144100     -1.81952200
| 35>  H     -1.10063300     -2.25670600     -2.32986700
| 36>  H     -2.75375200     -2.40264900     -1.68608500
| 37>  H     -2.21381600     -0.89904700     -2.46953000
| 38> *
| 39>
| 40>
| 41>                          ****END OF INPUT****

CARTESIAN COORDINATES (ANGSTROEM)
---------------------------------
  O     -0.296928   -0.353166   -0.721752
  C     -1.372078   -1.222544   -0.468356
  C     -2.503993   -0.382025    0.288147
  C     -2.283314    1.035114   -0.107780
  C     -2.708397    1.507394   -1.442148
  Fe     1.344875    0.065657   -0.038854
  Cl     1.497687    2.222347   -0.701387
  C     -1.584140    1.988634    0.733703
  Cl     2.903620   -1.278817   -0.791715
  Cl     1.151376    0.038647    2.187055
  H     -3.460442   -0.693742   -0.150182
  H     -2.066154    2.972700    0.719602
  H     -1.357400    1.651501    1.741425
  H     -0.605453    2.168417    0.211770
  H     -2.933840    2.576758   -1.453318
  H     -1.816880    1.362982   -2.076999
  H     -3.526146    0.925930   -1.869501
  C     -2.562933   -0.586438    1.808824
  H     -3.292979    0.092532    2.262431
  H     -2.884255   -1.607463    2.025744
  H     -1.592978   -0.427948    2.284110
  C     -0.917037   -2.426447    0.362052
  H     -1.734824   -3.130899    0.546450
  H     -0.140685   -2.942305   -0.212555
  H     -0.479917   -2.122314    1.314008
  C     -1.905907   -1.721441   -1.819522
  H     -1.100633   -2.256706   -2.329867
  H     -2.753752   -2.402649   -1.686085
  H     -2.213816   -0.899047   -2.469530

ORBITAL ENERGIES
----------------
                 SPIN UP ORBITALS
  NO   OCC          E(Eh)            E(eV)
   0   1.0000    -261.541421     -7116.9039
   1   1.0000    -104.773397     -2851.0291
   2   1.0000    -104.773082     -2851.0205
   3   1.0000    -104.767123     -2850.8584
   4   1.0000     -32.209278      -876.4590
   5   1.0000     -27.685420      -753.3586
   6   1.0000     -27.685011      -753.3474
   7   1.0000     -27.684509      -753.3338
   8   1.0000     -20.531294      -558.6849
   9   1.0000     -11.416900      -310.6696
  10   1.0000     -11.330675      -308.3233
  11   1.0000     -11.298562      -307.4495
  12   1.0000     -11.294286      -307.3332
  13   1.0000     -11.278088      -306.8924
  14   1.0000     -11.255490      -306.2774
  15   1.0000     -11.237365      -305.7843
  16   1.0000     -11.228595      -305.5456
  17   1.0000     -10.499868      -285.7159
  18   1.0000     -10.499682      -285.7109
  19   1.0000     -10.493662      -285.5471
  20   1.0000      -7.966712      -216.7853
  21   1.0000      -7.966599      -216.7822
  22   1.0000      -7.965884      -216.7627
  23   1.0000      -7.965759      -216.7593
  24   1.0000      -7.965695      -216.7576
  25   1.0000      -7.965653      -216.7564
  26   1.0000      -7.960414      -216.6139
  27   1.0000      -7.959800      -216.5972
  28   1.0000      -7.959696      -216.5943
  29   1.0000      -4.564827      -124.2153
  30   1.0000      -3.177443       -86.4626
  31   1.0000      -3.176900       -86.4478
  32   1.0000      -3.176555       -86.4385
  33   1.0000      -1.348272       -36.6883
  34   1.0000      -1.198077       -32.6013
  35   1.0000      -1.097257       -29.8579
  36   1.0000      -1.044713       -28.4281
  37   1.0000      -1.039692       -28.2915
  38   1.0000      -1.038107       -28.2483
  39   1.0000      -1.034303       -28.1448
  40   1.0000      -1.020378       -27.7659
  41   1.0000      -0.962608       -26.1939
  42   1.0000      -0.930869       -25.3302
  43   1.0000      -0.902744       -24.5649
  44   1.0000      -0.894723       -24.3467
  45   1.0000      -0.894245       -24.3336
  46   1.0000      -0.887644       -24.1540
  47   1.0000      -0.886634       -24.1265
  48   1.0000      -0.810103       -22.0440
  49   1.0000      -0.760682       -20.6992
  50   1.0000      -0.713768       -19.4226
  51   1.0000      -0.691183       -18.8080
  52   1.0000      -0.681251       -18.5378
  53   1.0000      -0.644130       -17.5277
  54   1.0000      -0.635827       -17.3017
  55   1.0000      -0.621374       -16.9084
  56   1.0000      -0.609762       -16.5925
  57   1.0000      -0.597580       -16.2610
  58   1.0000      -0.589595       -16.0437
  59   1.0000      -0.587081       -15.9753
  60   1.0000      -0.573150       -15.5962
  61   1.0000      -0.554190       -15.0803
  62   1.0000      -0.549325       -14.9479
  63   1.0000      -0.536668       -14.6035
  64   1.0000      -0.525066       -14.2878
  65   1.0000      -0.517742       -14.0885
  66   1.0000      -0.500656       -13.6235
  67   1.0000      -0.466943       -12.7062
  68   1.0000      -0.463945       -12.6246
  69   1.0000      -0.442195       -12.0327
  70   1.0000      -0.435704       -11.8561
  71   1.0000      -0.421599       -11.4723
  72   1.0000      -0.417977       -11.3737
  73   1.0000      -0.416066       -11.3217
  74   1.0000      -0.410968       -11.1830
  75   1.0000      -0.409834       -11.1522
  76   1.0000      -0.407862       -11.0985
  77   0.0000      -0.004379        -0.1192
  78   0.0000       0.004257         0.1158
  79   0.0000       0.018911         0.5146
  80   0.0000       0.019595         0.5332
  81   0.0000       0.030140         0.8202

                 SPIN DOWN ORBITALS
  NO   OCC          E(Eh)            E(eV)
   0   1.0000    -261.537882     -7116.8076
   1   1.0000    -104.772228     -2850.9973
   2   1.0000    -104.771774     -2850.9849
   3   1.0000    -104.765723     -2850.8203
   4   1.0000     -32.047279      -872.0508
   5   1.0000     -27.525543      -749.0081
   6   1.0000     -27.525215      -748.9992
   7   1.0000     -27.524501      -748.9798
   8   1.0000     -20.524429      -558.4981
   9   1.0000     -11.416913      -310.6700
  10   1.0000     -11.330439      -308.3169
  11   1.0000     -11.298555      -307.4493
  12   1.0000     -11.294183      -307.3303
  13   1.0000     -11.278123      -306.8933
  14   1.0000     -11.255496      -306.2776
  15   1.0000     -11.237261      -305.7814
  16   1.0000     -11.228558      -305.5446
  17   1.0000     -10.498603      -285.6815
  18   1.0000     -10.498270      -285.6724
  19   1.0000     -10.492166      -285.5064
  20   1.0000      -7.964403      -216.7224
  21   1.0000      -7.964128      -216.7149
  22   1.0000      -7.964120      -216.7147
  23   1.0000      -7.964012      -216.7118
  24   1.0000      -7.963683      -216.7028
  25   1.0000      -7.963635      -216.7015
  26   1.0000      -7.958216      -216.5541
  27   1.0000      -7.957371      -216.5311
  28   1.0000      -7.957301      -216.5292
  29   1.0000      -4.122809      -112.1873
  30   1.0000      -2.644877       -71.9708
  31   1.0000      -2.644650       -71.9646
  32   1.0000      -2.643903       -71.9443
  33   1.0000      -1.330361       -36.2010
  34   1.0000      -1.196633       -32.5620
  35   1.0000      -1.094281       -29.7769
  36   1.0000      -1.040541       -28.3146
  37   1.0000      -1.029220       -28.0065
  38   1.0000      -1.021420       -27.7942
  39   1.0000      -1.018515       -27.7152
  40   1.0000      -1.014147       -27.5964
  41   1.0000      -0.961785       -26.1715
  42   1.0000      -0.929391       -25.2900
  43   1.0000      -0.813495       -22.1363
  44   1.0000      -0.767541       -20.8858
  45   1.0000      -0.714963       -19.4551
  46   1.0000      -0.691025       -18.8037
  47   1.0000      -0.681641       -18.5484
  48   1.0000      -0.643931       -17.5222
  49   1.0000      -0.638157       -17.3651
  50   1.0000      -0.619167       -16.8484
  51   1.0000      -0.609888       -16.5959
  52   1.0000      -0.597961       -16.2713
  53   1.0000      -0.588779       -16.0215
  54   1.0000      -0.586373       -15.9560
  55   1.0000      -0.571397       -15.5485
  56   1.0000      -0.554156       -15.0794
  57   1.0000      -0.546296       -14.8655
  58   1.0000      -0.535496       -14.5716
  59   1.0000      -0.520601       -14.1663
  60   1.0000      -0.516147       -14.0451
  61   1.0000      -0.496922       -13.5219
  62   1.0000      -0.465576       -12.6690
  63   1.0000      -0.463016       -12.5993
  64   1.0000      -0.446573       -12.1519
  65   1.0000      -0.445684       -12.1277
  66   1.0000      -0.433468       -11.7953
  67   1.0000      -0.429214       -11.6795
  68   1.0000      -0.426884       -11.6161
  69   1.0000      -0.407941       -11.1006
  70   1.0000      -0.399336       -10.8665
  71   1.0000      -0.397527       -10.8173
  72   0.0000      -0.004628        -0.1259
  73   0.0000       0.004255         0.1158
  74   0.0000       0.018898         0.5142
  75   0.0000       0.019580         0.5328
  76   0.0000       0.030167         0.8209

E(0)                                       ...  -3028.426115012
E(0)                                       ...  -3028.426115012
E(CORR)(strong-pairs)                      ...     -2.870439003
E(CORR)(weak-pairs)                        ...     -0.036299824
E(CORR)(corrected)                         ...     -2.906738827
E(TOT)                                     ...  -3031.332853839
E(CCSD(T))                                 ...  -3031.450190980
FINAL SINGLE POINT ENERGY     -3031.450190980249

DIPOLE MOMENT
-------------
                                X             Y             Z
Electronic contribution:     38.28966       6.60737       1.59430
Nuclear contribution   :    -43.41117      -6.16099      -1.92517
                        -----------------------------------------
Total Dipole Moment    :     -5.12151       0.44637      -0.33086
                        -----------------------------------------
Magnitude (a.u.)       :      5.15156
Magnitude (Debye)      :     13.09423

Rotational constants in cm-1:     0.018830     0.012104     0.011006
Rotational constants in MHz :   564.524092   362.865684   329.965255

                             ****ORCA TERMINATED NORMALLY****
TOTAL RUN TIME: 0 days 21 hours 1 minutes 9 seconds 70 msec
