                         Program Version 4.1.2  - RELEASE  -
|  1> ! aug-cc-pVTZ aug-cc-pVTZ/C DLPNO-CCSD(T1) TightSCF NormalPNO UNO MiniPrint AutoAux
|  2> %pal nproc 10 end
|  3> %maxcore 20000
|  4> %mdci
|  5>      density none
|  6> end
|  7>
|  8> * xyz 0 6
|  9>  O     -0.31365300     -0.18328500     -0.72977900
| 10>  C     -1.23493400     -1.09993200     -0.57725200
| 11>  C     -2.76463700     -0.29519900      0.42893800
| 12>  C     -2.49916700      0.96191300     -0.08592900
| 13>  C     -3.02291700      1.40453800     -1.40991300
| 14> Fe      1.41240000      0.12039900     -0.01893300
| 15> Cl      1.95317400      2.10351500     -0.79508700
| 16>  C     -1.62283100      1.94265400      0.60557100
| 17> Cl      2.64450700     -1.55614400     -0.71981200
| 18> Cl      1.19406900      0.11999800      2.19294900
| 19>  H     -3.56235400     -0.84426000     -0.06868100
| 20>  H     -2.25225100      2.77814000      0.94718700
| 21>  H     -1.09532200      1.53585500      1.46603200
| 22>  H     -0.89220800      2.36391500     -0.09478000
| 23>  H     -3.46925900      2.40141300     -1.30662500
| 24>  H     -2.18289300      1.51737100     -2.10891000
| 25>  H     -3.76672100      0.72648300     -1.83120400
| 26>  C     -2.63475100     -0.58340500      1.91403100
| 27>  H     -3.39415100     -0.01348500      2.46251800
| 28>  H     -2.80877100     -1.64093000      2.12148300
| 29>  H     -1.65666300     -0.31527400      2.31837500
| 30>  C     -0.89117700     -2.26293600      0.33626100
| 31>  H     -1.73401000     -2.94106800      0.48559900
| 32>  H     -0.09150400     -2.80891100     -0.18176500
| 33>  H     -0.49213300     -1.93458900      1.29518200
| 34>  C     -1.87654100     -1.54006500     -1.88434700
| 35>  H     -1.11207200     -2.12712300     -2.40780200
| 36>  H     -2.75241200     -2.17495200     -1.73082500
| 37>  H     -2.12845700     -0.69737200     -2.52632200
| 38> *
| 39>
| 40>
| 41>                          ****END OF INPUT****

CARTESIAN COORDINATES (ANGSTROEM)
---------------------------------
  O     -0.313653   -0.183285   -0.729779
  C     -1.234934   -1.099932   -0.577252
  C     -2.764637   -0.295199    0.428938
  C     -2.499167    0.961913   -0.085929
  C     -3.022917    1.404538   -1.409913
  Fe     1.412400    0.120399   -0.018933
  Cl     1.953174    2.103515   -0.795087
  C     -1.622831    1.942654    0.605571
  Cl     2.644507   -1.556144   -0.719812
  Cl     1.194069    0.119998    2.192949
  H     -3.562354   -0.844260   -0.068681
  H     -2.252251    2.778140    0.947187
  H     -1.095322    1.535855    1.466032
  H     -0.892208    2.363915   -0.094780
  H     -3.469259    2.401413   -1.306625
  H     -2.182893    1.517371   -2.108910
  H     -3.766721    0.726483   -1.831204
  C     -2.634751   -0.583405    1.914031
  H     -3.394151   -0.013485    2.462518
  H     -2.808771   -1.640930    2.121483
  H     -1.656663   -0.315274    2.318375
  C     -0.891177   -2.262936    0.336261
  H     -1.734010   -2.941068    0.485599
  H     -0.091504   -2.808911   -0.181765
  H     -0.492133   -1.934589    1.295182
  C     -1.876541   -1.540065   -1.884347
  H     -1.112072   -2.127123   -2.407802
  H     -2.752412   -2.174952   -1.730825
  H     -2.128457   -0.697372   -2.526322

ORBITAL ENERGIES
----------------
                 SPIN UP ORBITALS
  NO   OCC          E(Eh)            E(eV)
   0   1.0000    -261.554400     -7117.2571
   1   1.0000    -104.780175     -2851.2135
   2   1.0000    -104.775810     -2851.0947
   3   1.0000    -104.774952     -2851.0714
   4   1.0000     -32.222287      -876.8130
   5   1.0000     -27.698304      -753.7092
   6   1.0000     -27.697919      -753.6987
   7   1.0000     -27.697692      -753.6925
   8   1.0000     -20.562022      -559.5211
   9   1.0000     -11.392374      -310.0023
  10   1.0000     -11.349106      -308.8249
  11   1.0000     -11.276261      -306.8427
  12   1.0000     -11.274913      -306.8060
  13   1.0000     -11.258118      -306.3490
  14   1.0000     -11.257904      -306.3432
  15   1.0000     -11.250952      -306.1540
  16   1.0000     -11.250937      -306.1536
  17   1.0000     -10.506802      -285.9046
  18   1.0000     -10.502402      -285.7849
  19   1.0000     -10.501580      -285.7625
  20   1.0000      -7.973690      -216.9751
  21   1.0000      -7.972825      -216.9516
  22   1.0000      -7.972792      -216.9507
  23   1.0000      -7.969216      -216.8534
  24   1.0000      -7.968508      -216.8341
  25   1.0000      -7.968431      -216.8320
  26   1.0000      -7.968425      -216.8319
  27   1.0000      -7.967682      -216.8116
  28   1.0000      -7.967609      -216.8097
  29   1.0000      -4.577568      -124.5620
  30   1.0000      -3.190210       -86.8100
  31   1.0000      -3.189517       -86.7912
  32   1.0000      -3.189124       -86.7805
  33   1.0000      -1.405175       -38.2368
  34   1.0000      -1.172643       -31.9092
  35   1.0000      -1.084084       -29.4994
  36   1.0000      -1.050914       -28.5968
  37   1.0000      -1.045235       -28.4423
  38   1.0000      -1.042395       -28.3650
  39   1.0000      -1.041118       -28.3303
  40   1.0000      -0.996501       -27.1162
  41   1.0000      -0.984155       -26.7802
  42   1.0000      -0.928524       -25.2664
  43   1.0000      -0.918564       -24.9954
  44   1.0000      -0.906897       -24.6779
  45   1.0000      -0.906807       -24.6755
  46   1.0000      -0.897969       -24.4350
  47   1.0000      -0.897219       -24.4146
  48   1.0000      -0.788739       -21.4627
  49   1.0000      -0.762407       -20.7462
  50   1.0000      -0.695778       -18.9331
  51   1.0000      -0.689367       -18.7586
  52   1.0000      -0.674878       -18.3644
  53   1.0000      -0.658950       -17.9310
  54   1.0000      -0.649064       -17.6619
  55   1.0000      -0.626823       -17.0567
  56   1.0000      -0.600679       -16.3453
  57   1.0000      -0.594228       -16.1698
  58   1.0000      -0.585526       -15.9330
  59   1.0000      -0.576096       -15.6764
  60   1.0000      -0.571898       -15.5621
  61   1.0000      -0.563370       -15.3301
  62   1.0000      -0.553141       -15.0517
  63   1.0000      -0.550402       -14.9772
  64   1.0000      -0.540073       -14.6961
  65   1.0000      -0.523886       -14.2557
  66   1.0000      -0.516503       -14.0548
  67   1.0000      -0.477914       -13.0047
  68   1.0000      -0.463680       -12.6174
  69   1.0000      -0.456305       -12.4167
  70   1.0000      -0.430157       -11.7052
  71   1.0000      -0.427858       -11.6426
  72   1.0000      -0.426074       -11.5941
  73   1.0000      -0.416996       -11.3470
  74   1.0000      -0.415732       -11.3126
  75   1.0000      -0.414711       -11.2848
  76   1.0000      -0.387243       -10.5374
  77   0.0000       0.008898         0.2421
  78   0.0000       0.019527         0.5314
  79   0.0000       0.021497         0.5850
  80   0.0000       0.025237         0.6867
  81   0.0000       0.032000         0.8708

                 SPIN DOWN ORBITALS
  NO   OCC          E(Eh)            E(eV)
   0   1.0000    -261.550850     -7117.1605
   1   1.0000    -104.778819     -2851.1766
   2   1.0000    -104.774405     -2851.0565
   3   1.0000    -104.773483     -2851.0314
   4   1.0000     -32.060207      -872.4026
   5   1.0000     -27.538234      -749.3534
   6   1.0000     -27.538114      -749.3502
   7   1.0000     -27.537706      -749.3391
   8   1.0000     -20.557078      -559.3865
   9   1.0000     -11.392349      -310.0016
  10   1.0000     -11.348986      -308.8216
  11   1.0000     -11.276277      -306.8431
  12   1.0000     -11.274788      -306.8026
  13   1.0000     -11.258003      -306.3458
  14   1.0000     -11.257944      -306.3442
  15   1.0000     -11.250952      -306.1540
  16   1.0000     -11.250924      -306.1532
  17   1.0000     -10.505343      -285.8649
  18   1.0000     -10.500901      -285.7440
  19   1.0000     -10.500009      -285.7198
  20   1.0000      -7.971205      -216.9075
  21   1.0000      -7.970699      -216.8938
  22   1.0000      -7.970632      -216.8919
  23   1.0000      -7.966877      -216.7898
  24   1.0000      -7.966158      -216.7702
  25   1.0000      -7.966068      -216.7677
  26   1.0000      -7.965940      -216.7642
  27   1.0000      -7.965246      -216.7454
  28   1.0000      -7.965163      -216.7431
  29   1.0000      -4.135234      -112.5254
  30   1.0000      -2.657012       -72.3010
  31   1.0000      -2.656952       -72.2993
  32   1.0000      -2.656072       -72.2754
  33   1.0000      -1.392557       -37.8934
  34   1.0000      -1.171780       -31.8858
  35   1.0000      -1.081322       -29.4243
  36   1.0000      -1.041065       -28.3288
  37   1.0000      -1.036222       -28.1970
  38   1.0000      -1.024551       -27.8795
  39   1.0000      -1.021471       -27.7956
  40   1.0000      -0.996315       -27.1111
  41   1.0000      -0.983391       -26.7594
  42   1.0000      -0.925682       -25.1891
  43   1.0000      -0.801201       -21.8018
  44   1.0000      -0.763449       -20.7745
  45   1.0000      -0.696577       -18.9548
  46   1.0000      -0.688675       -18.7398
  47   1.0000      -0.676477       -18.4079
  48   1.0000      -0.658536       -17.9197
  49   1.0000      -0.648578       -17.6487
  50   1.0000      -0.626361       -17.0442
  51   1.0000      -0.599718       -16.3191
  52   1.0000      -0.594451       -16.1758
  53   1.0000      -0.585318       -15.9273
  54   1.0000      -0.575655       -15.6644
  55   1.0000      -0.571688       -15.5564
  56   1.0000      -0.562939       -15.3183
  57   1.0000      -0.552991       -15.0477
  58   1.0000      -0.549632       -14.9562
  59   1.0000      -0.535158       -14.5624
  60   1.0000      -0.523877       -14.2554
  61   1.0000      -0.506988       -13.7958
  62   1.0000      -0.476521       -12.9668
  63   1.0000      -0.468704       -12.7541
  64   1.0000      -0.465437       -12.6652
  65   1.0000      -0.440117       -11.9762
  66   1.0000      -0.437025       -11.8921
  67   1.0000      -0.434941       -11.8353
  68   1.0000      -0.422424       -11.4947
  69   1.0000      -0.414973       -11.2920
  70   1.0000      -0.401630       -10.9289
  71   1.0000      -0.383223       -10.4280
  72   0.0000       0.008896         0.2421
  73   0.0000       0.019451         0.5293
  74   0.0000       0.021488         0.5847
  75   0.0000       0.024857         0.6764
  76   0.0000       0.031870         0.8672

E(0)                                       ...  -3028.427967311
E(0)                                       ...  -3028.427967311
E(CORR)(strong-pairs)                      ...     -2.873970682
E(CORR)(weak-pairs)                        ...     -0.036344149
E(CORR)(corrected)                         ...     -2.910314831
E(TOT)                                     ...  -3031.338282142
E(CCSD(T))                                 ...  -3031.458295973
FINAL SINGLE POINT ENERGY     -3031.458295973139

DIPOLE MOMENT
-------------
                                X             Y             Z
Electronic contribution:     40.75807       5.07087       1.52475
Nuclear contribution   :    -45.36874      -5.38912      -1.99418
                        -----------------------------------------
Total Dipole Moment    :     -4.61068      -0.31825      -0.46943
                        -----------------------------------------
Magnitude (a.u.)       :      4.64543
Magnitude (Debye)      :     11.80774

Rotational constants in cm-1:     0.019138     0.011394     0.010644
Rotational constants in MHz :   573.750957   341.581636   319.103267

                             ****ORCA TERMINATED NORMALLY****
TOTAL RUN TIME: 0 days 21 hours 46 minutes 53 seconds 300 msec
