                         Program Version 4.1.2  - RELEASE  -
|  1> ! aug-cc-pVTZ aug-cc-pVTZ/C DLPNO-CCSD(T1) TightSCF NormalPNO UNO MiniPrint AutoAux
|  2> %pal nproc 10 end
|  3> %maxcore 20000
|  4> %mdci
|  5>      density none
|  6> end
|  7>
|  8> * xyz 0 6
|  9>  O      0.26459200      0.31837500     -0.77937300
| 10>  C      0.99860400      1.31943200     -0.62157400
| 11>  C      3.25614400     -0.04515500      0.31726100
| 12>  C      2.50324200     -1.00152200     -0.26089400
| 13>  C      2.65178500     -1.33893200     -1.71993700
| 14> Fe     -1.47198600     -0.13786100      0.05191200
| 15> Cl     -2.09984400     -1.95783400     -0.95759100
| 16>  C      1.58778600     -1.92271000      0.49479700
| 17> Cl     -2.60289700      1.66829300     -0.45895300
| 18> Cl     -1.20318800     -0.33093500      2.21814200
| 19>  H      3.95754100      0.49354200     -0.32097100
| 20>  H      2.09672400     -2.88326800      0.65570900
| 21>  H      1.28365300     -1.54190100      1.47002700
| 22>  H      0.68766600     -2.14925200     -0.08586800
| 23>  H      2.98019800     -2.38090300     -1.82920100
| 24>  H      1.68802900     -1.26227200     -2.23816100
| 25>  H      3.38529500     -0.70259100     -2.22419100
| 26>  C      3.34560600      0.27755500      1.78290400
| 27>  H      4.24614100     -0.17538600      2.22006600
| 28>  H      3.42790400      1.35732500      1.95347800
| 29>  H      2.48805600     -0.08992100      2.35255000
| 30>  C      0.91923300      2.14841700      0.61972400
| 31>  H      1.80692000      2.76736300      0.75557000
| 32>  H      0.04798100      2.80964900      0.49869200
| 33>  H      0.73748300      1.52993600      1.49968900
| 34>  C      1.74301500      1.85652700     -1.80295900
| 35>  H      1.11944000      2.66436500     -2.21478000
| 36>  H      2.70273000      2.29072500     -1.51793200
| 37>  H      1.86744100      1.09639800     -2.57247500
| 38> *
| 39>
| 40>
| 41>                          ****END OF INPUT****

CARTESIAN COORDINATES (ANGSTROEM)
---------------------------------
  O      0.264592    0.318375   -0.779373
  C      0.998604    1.319432   -0.621574
  C      3.256144   -0.045155    0.317261
  C      2.503242   -1.001522   -0.260894
  C      2.651785   -1.338932   -1.719937
  Fe    -1.471986   -0.137861    0.051912
  Cl    -2.099844   -1.957834   -0.957591
  C      1.587786   -1.922710    0.494797
  Cl    -2.602897    1.668293   -0.458953
  Cl    -1.203188   -0.330935    2.218142
  H      3.957541    0.493542   -0.320971
  H      2.096724   -2.883268    0.655709
  H      1.283653   -1.541901    1.470027
  H      0.687666   -2.149252   -0.085868
  H      2.980198   -2.380903   -1.829201
  H      1.688029   -1.262272   -2.238161
  H      3.385295   -0.702591   -2.224191
  C      3.345606    0.277555    1.782904
  H      4.246141   -0.175386    2.220066
  H      3.427904    1.357325    1.953478
  H      2.488056   -0.089921    2.352550
  C      0.919233    2.148417    0.619724
  H      1.806920    2.767363    0.755570
  H      0.047981    2.809649    0.498692
  H      0.737483    1.529936    1.499689
  C      1.743015    1.856527   -1.802959
  H      1.119440    2.664365   -2.214780
  H      2.702730    2.290725   -1.517932
  H      1.867441    1.096398   -2.572475

ORBITAL ENERGIES
----------------
                 SPIN UP ORBITALS
  NO   OCC          E(Eh)            E(eV)
   0   1.0000    -261.578504     -7117.9130
   1   1.0000    -104.794783     -2851.6110
   2   1.0000    -104.792474     -2851.5482
   3   1.0000    -104.790986     -2851.5077
   4   1.0000     -32.246142      -877.4621
   5   1.0000     -27.722679      -754.3725
   6   1.0000     -27.721457      -754.3392
   7   1.0000     -27.721280      -754.3344
   8   1.0000     -20.622330      -561.1621
   9   1.0000     -11.423191      -310.8408
  10   1.0000     -11.279264      -306.9244
  11   1.0000     -11.273766      -306.7748
  12   1.0000     -11.261518      -306.4415
  13   1.0000     -11.239491      -305.8421
  14   1.0000     -11.238423      -305.8130
  15   1.0000     -11.237157      -305.7786
  16   1.0000     -11.227707      -305.5214
  17   1.0000     -10.521499      -286.3045
  18   1.0000     -10.519165      -286.2410
  19   1.0000     -10.517619      -286.1990
  20   1.0000      -7.988322      -217.3733
  21   1.0000      -7.987590      -217.3534
  22   1.0000      -7.987532      -217.3518
  23   1.0000      -7.986071      -217.3120
  24   1.0000      -7.985253      -217.2898
  25   1.0000      -7.985186      -217.2880
  26   1.0000      -7.984399      -217.2665
  27   1.0000      -7.983745      -217.2487
  28   1.0000      -7.983703      -217.2476
  29   1.0000      -4.600930      -125.1977
  30   1.0000      -3.214110       -87.4604
  31   1.0000      -3.212268       -87.4102
  32   1.0000      -3.212163       -87.4074
  33   1.0000      -1.469749       -39.9939
  34   1.0000      -1.121587       -30.5199
  35   1.0000      -1.103822       -30.0365
  36   1.0000      -1.068481       -29.0749
  37   1.0000      -1.062857       -28.9218
  38   1.0000      -1.060565       -28.8595
  39   1.0000      -1.021042       -27.7840
  40   1.0000      -1.010554       -27.4986
  41   1.0000      -0.955634       -26.0041
  42   1.0000      -0.944588       -25.7036
  43   1.0000      -0.929835       -25.3021
  44   1.0000      -0.929684       -25.2980
  45   1.0000      -0.918640       -24.9975
  46   1.0000      -0.918281       -24.9877
  47   1.0000      -0.893435       -24.3116
  48   1.0000      -0.816211       -22.2102
  49   1.0000      -0.725785       -19.7496
  50   1.0000      -0.715153       -19.4603
  51   1.0000      -0.706244       -19.2179
  52   1.0000      -0.688081       -18.7236
  53   1.0000      -0.651557       -17.7298
  54   1.0000      -0.622412       -16.9367
  55   1.0000      -0.618413       -16.8279
  56   1.0000      -0.602666       -16.3994
  57   1.0000      -0.600488       -16.3401
  58   1.0000      -0.586350       -15.9554
  59   1.0000      -0.580337       -15.7918
  60   1.0000      -0.560443       -15.2504
  61   1.0000      -0.552444       -15.0328
  62   1.0000      -0.549756       -14.9596
  63   1.0000      -0.536868       -14.6089
  64   1.0000      -0.534468       -14.5436
  65   1.0000      -0.524055       -14.2603
  66   1.0000      -0.505206       -13.7474
  67   1.0000      -0.489936       -13.3318
  68   1.0000      -0.478665       -13.0251
  69   1.0000      -0.477648       -12.9975
  70   1.0000      -0.448547       -12.2056
  71   1.0000      -0.442014       -12.0278
  72   1.0000      -0.440482       -11.9861
  73   1.0000      -0.431940       -11.7537
  74   1.0000      -0.430453       -11.7132
  75   1.0000      -0.429873       -11.6974
  76   1.0000      -0.355521        -9.6742
  77   0.0000       0.012989         0.3535
  78   0.0000       0.023932         0.6512
  79   0.0000       0.024872         0.6768
  80   0.0000       0.030709         0.8356
  81   0.0000       0.039604         1.0777

                 SPIN DOWN ORBITALS
  NO   OCC          E(Eh)            E(eV)
   0   1.0000    -261.574923     -7117.8155
   1   1.0000    -104.793273     -2851.5699
   2   1.0000    -104.790920     -2851.5059
   3   1.0000    -104.789420     -2851.4651
   4   1.0000     -32.084182      -873.0550
   5   1.0000     -27.562141      -750.0040
   6   1.0000     -27.562004      -750.0002
   7   1.0000     -27.561915      -749.9978
   8   1.0000     -20.619034      -561.0724
   9   1.0000     -11.423072      -310.8376
  10   1.0000     -11.279166      -306.9217
  11   1.0000     -11.273766      -306.7748
  12   1.0000     -11.261605      -306.4438
  13   1.0000     -11.239384      -305.8392
  14   1.0000     -11.238420      -305.8130
  15   1.0000     -11.237144      -305.7782
  16   1.0000     -11.227710      -305.5215
  17   1.0000     -10.519887      -286.2607
  18   1.0000     -10.517506      -286.1959
  19   1.0000     -10.515957      -286.1537
  20   1.0000      -7.985817      -217.3051
  21   1.0000      -7.985044      -217.2841
  22   1.0000      -7.984999      -217.2829
  23   1.0000      -7.983357      -217.2382
  24   1.0000      -7.982724      -217.2210
  25   1.0000      -7.982622      -217.2182
  26   1.0000      -7.981955      -217.2000
  27   1.0000      -7.981036      -217.1750
  28   1.0000      -7.980959      -217.1729
  29   1.0000      -4.158893      -113.1692
  30   1.0000      -2.680441       -72.9385
  31   1.0000      -2.680354       -72.9362
  32   1.0000      -2.679999       -72.9265
  33   1.0000      -1.461633       -39.7731
  34   1.0000      -1.121305       -30.5123
  35   1.0000      -1.101622       -29.9767
  36   1.0000      -1.052752       -28.6469
  37   1.0000      -1.040155       -28.3041
  38   1.0000      -1.037788       -28.2397
  39   1.0000      -1.020164       -27.7601
  40   1.0000      -1.010248       -27.4903
  41   1.0000      -0.955387       -25.9974
  42   1.0000      -0.893555       -24.3149
  43   1.0000      -0.828270       -22.5384
  44   1.0000      -0.725866       -19.7518
  45   1.0000      -0.716904       -19.5080
  46   1.0000      -0.705471       -19.1968
  47   1.0000      -0.687517       -18.7083
  48   1.0000      -0.651520       -17.7288
  49   1.0000      -0.621870       -16.9220
  50   1.0000      -0.618342       -16.8259
  51   1.0000      -0.602510       -16.3951
  52   1.0000      -0.600448       -16.3390
  53   1.0000      -0.586070       -15.9478
  54   1.0000      -0.579418       -15.7668
  55   1.0000      -0.559234       -15.2175
  56   1.0000      -0.551157       -14.9977
  57   1.0000      -0.548745       -14.9321
  58   1.0000      -0.536466       -14.5980
  59   1.0000      -0.526129       -14.3167
  60   1.0000      -0.522385       -14.2148
  61   1.0000      -0.506331       -13.7780
  62   1.0000      -0.489630       -13.3235
  63   1.0000      -0.486747       -13.2451
  64   1.0000      -0.484864       -13.1938
  65   1.0000      -0.455432       -12.3929
  66   1.0000      -0.452436       -12.3114
  67   1.0000      -0.449453       -12.2302
  68   1.0000      -0.432854       -11.7786
  69   1.0000      -0.431237       -11.7345
  70   1.0000      -0.414824       -11.2879
  71   1.0000      -0.354997        -9.6600
  72   0.0000       0.012974         0.3530
  73   0.0000       0.023908         0.6506
  74   0.0000       0.024833         0.6757
  75   0.0000       0.030655         0.8342
  76   0.0000       0.039495         1.0747

E(0)                                       ...  -3028.464890386
E(0)                                       ...  -3028.464890386
E(CORR)(strong-pairs)                      ...     -2.866875303
E(CORR)(weak-pairs)                        ...     -0.035690161
E(CORR)(corrected)                         ...     -2.902565465
E(TOT)                                     ...  -3031.367455851
E(CCSD(T))                                 ...  -3031.485254146
FINAL SINGLE POINT ENERGY     -3031.485254145850

DIPOLE MOMENT
-------------
                                X             Y             Z
Electronic contribution:    -43.65098      -3.62350       2.23448
Nuclear contribution   :     46.83579       5.05273      -2.84773
                        -----------------------------------------
Total Dipole Moment    :      3.18481       1.42923      -0.61324
                        -----------------------------------------
Magnitude (a.u.)       :      3.54426
Magnitude (Debye)      :      9.00878

Rotational constants in cm-1:     0.018865     0.010743     0.010124
Rotational constants in MHz :   565.572061   322.080074   303.505435

                             ****ORCA TERMINATED NORMALLY****
TOTAL RUN TIME: 0 days 17 hours 16 minutes 14 seconds 253 msec
