                         Program Version 4.1.2  - RELEASE  -
|  1> ! aug-cc-pVTZ aug-cc-pVTZ/C DLPNO-CCSD(T1) TightSCF NormalPNO UNO MiniPrint AutoAux
|  2> %pal nproc 10 end
|  3> %maxcore 20000
|  4> %mdci
|  5>      density none
|  6> end
|  7>
|  8> * xyz 0 6
|  9>  O      0.20190000      0.39591900     -0.86472900
| 10>  C      0.95940000      1.37098400     -0.66062700
| 11>  C      3.13058200      0.05759800      0.52300500
| 12>  C      2.62965600     -0.94973300     -0.21841000
| 13>  C      3.04423100     -1.15041300     -1.65152000
| 14> Fe     -1.47787700     -0.16363700      0.02194700
| 15> Cl     -2.07574600     -1.97018400     -1.02704900
| 16>  C      1.69031200     -1.99923200      0.30128700
| 17> Cl     -2.71295300      1.60485200     -0.34830600
| 18> Cl     -1.07431700     -0.44485100      2.15950400
| 19>  H      3.85922100      0.71392400      0.04526800
| 20>  H      2.19923100     -2.97260900      0.31987900
| 21>  H      1.31434600     -1.79639900      1.30368200
| 22>  H      0.83250700     -2.11878000     -0.37179800
| 23>  H      3.52223500     -2.13153600     -1.77103100
| 24>  H      2.16871800     -1.15260800     -2.31422600
| 25>  H      3.75102300     -0.38894200     -1.99413200
| 26>  C      2.94506400      0.27242600      2.00067500
| 27>  H      3.77486200     -0.18313400      2.55843100
| 28>  H      2.94898500      1.33798900      2.25412000
| 29>  H      2.01686900     -0.16064400      2.38187000
| 30>  C      0.81631100      2.22162200      0.56087600
| 31>  H      1.70027200      2.83551200      0.73769600
| 32>  H     -0.04109700      2.88597000      0.37565500
| 33>  H      0.57783300      1.62377700      1.44116600
| 34>  C      1.78170200      1.88447500     -1.80152500
| 35>  H      1.21709900      2.72384600     -2.23400400
| 36>  H      2.74532500      2.27248200     -1.46756200
| 37>  H      1.90989600      1.12511100     -2.57090000
| 38> *
| 39>
| 40>
| 41>                          ****END OF INPUT****

CARTESIAN COORDINATES (ANGSTROEM)
---------------------------------
  O      0.201900    0.395919   -0.864729
  C      0.959400    1.370984   -0.660627
  C      3.130582    0.057598    0.523005
  C      2.629656   -0.949733   -0.218410
  C      3.044231   -1.150413   -1.651520
  Fe    -1.477877   -0.163637    0.021947
  Cl    -2.075746   -1.970184   -1.027049
  C      1.690312   -1.999232    0.301287
  Cl    -2.712953    1.604852   -0.348306
  Cl    -1.074317   -0.444851    2.159504
  H      3.859221    0.713924    0.045268
  H      2.199231   -2.972609    0.319879
  H      1.314346   -1.796399    1.303682
  H      0.832507   -2.118780   -0.371798
  H      3.522235   -2.131536   -1.771031
  H      2.168718   -1.152608   -2.314226
  H      3.751023   -0.388942   -1.994132
  C      2.945064    0.272426    2.000675
  H      3.774862   -0.183134    2.558431
  H      2.948985    1.337989    2.254120
  H      2.016869   -0.160644    2.381870
  C      0.816311    2.221622    0.560876
  H      1.700272    2.835512    0.737696
  H     -0.041097    2.885970    0.375655
  H      0.577833    1.623777    1.441166
  C      1.781702    1.884475   -1.801525
  H      1.217099    2.723846   -2.234004
  H      2.745325    2.272482   -1.467562
  H      1.909896    1.125111   -2.570900

ORBITAL ENERGIES
----------------
                 SPIN UP ORBITALS
  NO   OCC          E(Eh)            E(eV)
   0   1.0000    -261.578051     -7117.9006
   1   1.0000    -104.795238     -2851.6234
   2   1.0000    -104.792206     -2851.5409
   3   1.0000    -104.790297     -2851.4890
   4   1.0000     -32.245719      -877.4506
   5   1.0000     -27.722244      -754.3606
   6   1.0000     -27.721034      -754.3277
   7   1.0000     -27.720842      -754.3225
   8   1.0000     -20.624960      -561.2337
   9   1.0000     -11.422259      -310.8155
  10   1.0000     -11.279073      -306.9192
  11   1.0000     -11.273241      -306.7605
  12   1.0000     -11.261328      -306.4363
  13   1.0000     -11.240892      -305.8802
  14   1.0000     -11.239833      -305.8514
  15   1.0000     -11.235560      -305.7351
  16   1.0000     -11.226813      -305.4971
  17   1.0000     -10.521967      -286.3173
  18   1.0000     -10.518907      -286.2340
  19   1.0000     -10.516947      -286.1807
  20   1.0000      -7.988791      -217.3860
  21   1.0000      -7.988054      -217.3660
  22   1.0000      -7.987996      -217.3644
  23   1.0000      -7.985796      -217.3046
  24   1.0000      -7.984999      -217.2829
  25   1.0000      -7.984945      -217.2814
  26   1.0000      -7.983729      -217.2483
  27   1.0000      -7.983076      -217.2306
  28   1.0000      -7.983034      -217.2294
  29   1.0000      -4.600502      -125.1860
  30   1.0000      -3.213661       -87.4482
  31   1.0000      -3.211854       -87.3990
  32   1.0000      -3.211732       -87.3957
  33   1.0000      -1.469073       -39.9755
  34   1.0000      -1.121774       -30.5250
  35   1.0000      -1.102841       -30.0098
  36   1.0000      -1.068643       -29.0792
  37   1.0000      -1.062855       -28.9218
  38   1.0000      -1.060097       -28.8467
  39   1.0000      -1.021079       -27.7850
  40   1.0000      -1.009288       -27.4641
  41   1.0000      -0.955337       -25.9960
  42   1.0000      -0.944350       -25.6971
  43   1.0000      -0.929357       -25.2891
  44   1.0000      -0.929228       -25.2856
  45   1.0000      -0.918363       -24.9899
  46   1.0000      -0.917745       -24.9731
  47   1.0000      -0.893154       -24.3040
  48   1.0000      -0.816341       -22.2138
  49   1.0000      -0.725710       -19.7476
  50   1.0000      -0.715113       -19.4592
  51   1.0000      -0.705115       -19.1872
  52   1.0000      -0.685200       -18.6453
  53   1.0000      -0.651766       -17.7355
  54   1.0000      -0.621704       -16.9174
  55   1.0000      -0.618126       -16.8201
  56   1.0000      -0.604016       -16.4361
  57   1.0000      -0.599846       -16.3227
  58   1.0000      -0.586367       -15.9559
  59   1.0000      -0.579876       -15.7792
  60   1.0000      -0.561004       -15.2657
  61   1.0000      -0.548968       -14.9382
  62   1.0000      -0.547549       -14.8996
  63   1.0000      -0.537482       -14.6256
  64   1.0000      -0.537211       -14.6183
  65   1.0000      -0.523839       -14.2544
  66   1.0000      -0.505648       -13.7594
  67   1.0000      -0.489797       -13.3280
  68   1.0000      -0.478188       -13.0122
  69   1.0000      -0.477977       -13.0064
  70   1.0000      -0.448395       -12.2015
  71   1.0000      -0.442027       -12.0282
  72   1.0000      -0.440223       -11.9791
  73   1.0000      -0.431615       -11.7448
  74   1.0000      -0.430620       -11.7178
  75   1.0000      -0.429396       -11.6845
  76   1.0000      -0.356793        -9.7088
  77   0.0000       0.012748         0.3469
  78   0.0000       0.023855         0.6491
  79   0.0000       0.024645         0.6706
  80   0.0000       0.030807         0.8383
  81   0.0000       0.039471         1.0741

                 SPIN DOWN ORBITALS
  NO   OCC          E(Eh)            E(eV)
   0   1.0000    -261.574467     -7117.8031
   1   1.0000    -104.793740     -2851.5826
   2   1.0000    -104.790643     -2851.4984
   3   1.0000    -104.788722     -2851.4461
   4   1.0000     -32.083745      -873.0431
   5   1.0000     -27.561691      -749.9918
   6   1.0000     -27.561570      -749.9884
   7   1.0000     -27.561489      -749.9862
   8   1.0000     -20.621588      -561.1419
   9   1.0000     -11.422188      -310.8135
  10   1.0000     -11.278968      -306.9163
  11   1.0000     -11.273235      -306.7603
  12   1.0000     -11.261374      -306.4376
  13   1.0000     -11.240825      -305.8784
  14   1.0000     -11.239827      -305.8512
  15   1.0000     -11.235566      -305.7353
  16   1.0000     -11.226821      -305.4973
  17   1.0000     -10.520368      -286.2738
  18   1.0000     -10.517239      -286.1886
  19   1.0000     -10.515274      -286.1352
  20   1.0000      -7.986296      -217.3182
  21   1.0000      -7.985533      -217.2974
  22   1.0000      -7.985495      -217.2964
  23   1.0000      -7.983108      -217.2314
  24   1.0000      -7.982435      -217.2131
  25   1.0000      -7.982341      -217.2105
  26   1.0000      -7.981271      -217.1814
  27   1.0000      -7.980352      -217.1564
  28   1.0000      -7.980272      -217.1542
  29   1.0000      -4.158465      -113.1576
  30   1.0000      -2.680006       -72.9267
  31   1.0000      -2.679962       -72.9255
  32   1.0000      -2.679537       -72.9139
  33   1.0000      -1.460860       -39.7520
  34   1.0000      -1.121477       -30.5169
  35   1.0000      -1.100635       -29.9498
  36   1.0000      -1.052902       -28.6509
  37   1.0000      -1.040296       -28.3079
  38   1.0000      -1.037196       -28.2235
  39   1.0000      -1.020174       -27.7604
  40   1.0000      -1.008992       -27.4561
  41   1.0000      -0.955188       -25.9920
  42   1.0000      -0.893247       -24.3065
  43   1.0000      -0.828664       -22.5491
  44   1.0000      -0.725787       -19.7497
  45   1.0000      -0.716799       -19.5051
  46   1.0000      -0.704345       -19.1662
  47   1.0000      -0.684625       -18.6296
  48   1.0000      -0.651715       -17.7341
  49   1.0000      -0.621141       -16.9021
  50   1.0000      -0.618046       -16.8179
  51   1.0000      -0.603844       -16.4314
  52   1.0000      -0.599766       -16.3205
  53   1.0000      -0.586104       -15.9487
  54   1.0000      -0.578546       -15.7431
  55   1.0000      -0.560088       -15.2408
  56   1.0000      -0.548689       -14.9306
  57   1.0000      -0.545415       -14.8415
  58   1.0000      -0.537497       -14.6260
  59   1.0000      -0.526833       -14.3358
  60   1.0000      -0.523106       -14.2344
  61   1.0000      -0.507437       -13.8081
  62   1.0000      -0.489621       -13.3233
  63   1.0000      -0.486688       -13.2434
  64   1.0000      -0.484403       -13.1813
  65   1.0000      -0.455376       -12.3914
  66   1.0000      -0.452366       -12.3095
  67   1.0000      -0.449291       -12.2258
  68   1.0000      -0.432790       -11.7768
  69   1.0000      -0.430859       -11.7243
  70   1.0000      -0.414674       -11.2839
  71   1.0000      -0.356361        -9.6971
  72   0.0000       0.012732         0.3464
  73   0.0000       0.023831         0.6485
  74   0.0000       0.024606         0.6696
  75   0.0000       0.030750         0.8368
  76   0.0000       0.039384         1.0717

E(0)                                       ...  -3028.469970642
E(0)                                       ...  -3028.469970642
E(CORR)(strong-pairs)                      ...     -2.866131734
E(CORR)(weak-pairs)                        ...     -0.035492739
E(CORR)(corrected)                         ...     -2.901624473
E(TOT)                                     ...  -3031.371595115
E(CCSD(T))                                 ...  -3031.489303479
FINAL SINGLE POINT ENERGY     -3031.489303478659

DIPOLE MOMENT
-------------
                                X             Y             Z
Electronic contribution:    -43.60048      -4.63928       1.80859
Nuclear contribution   :     46.77246       6.17177      -2.43324
                        -----------------------------------------
Total Dipole Moment    :      3.17198       1.53248      -0.62465
                        -----------------------------------------
Magnitude (a.u.)       :      3.57773
Magnitude (Debye)      :      9.09387

Rotational constants in cm-1:     0.018739     0.010701     0.010081
Rotational constants in MHz :   561.790800   320.794202   302.206670

                             ****ORCA TERMINATED NORMALLY****
TOTAL RUN TIME: 0 days 17 hours 1 minutes 39 seconds 775 msec
