                         Program Version 4.1.2  - RELEASE  -
|  1> ! aug-cc-pVTZ aug-cc-pVTZ/C DLPNO-CCSD(T1) TightSCF NormalPNO UNO MiniPrint AutoAux
|  2> %pal nproc 10 end
|  3> %maxcore 20000
|  4> %mdci
|  5>      density none
|  6> end
|  7>
|  8> * xyz 0 6
|  9>  O     -0.31678400     -0.12960200     -0.43532600
| 10>  C     -1.19907900     -1.08330200     -0.23192200
| 11>  C     -2.59281700     -0.31927200      0.80911500
| 12>  C     -3.02097000      0.68905300     -0.06161700
| 13>  C     -4.12511600      0.46839300     -1.03628100
| 14> Fe      1.51710600      0.17377700     -0.09413600
| 15> Cl      1.83817500      2.16620800     -0.96137200
| 16>  C     -2.29373100      1.96980600     -0.12160000
| 17> Cl      2.53215400     -1.50303000     -1.09182000
| 18> Cl      1.82077900      0.15309700      2.09431700
| 19>  H     -3.26737300     -1.17452200      0.86178900
| 20>  H     -2.75103900      2.69870600     -0.79301600
| 21>  H     -2.12866300      2.40984800      0.86671900
| 22>  H     -1.28041100      1.70999600     -0.49531000
| 23>  H     -4.95597900      1.13400200     -0.75857200
| 24>  H     -3.82683200      0.76553000     -2.04935800
| 25>  H     -4.49498300     -0.55823300     -1.04321200
| 26>  C     -1.94979500      0.07342900      2.13368100
| 27>  H     -2.58384200      0.79561800      2.65958600
| 28>  H     -1.83684900     -0.79740700      2.78078100
| 29>  H     -0.96235000      0.51890600      1.99631300
| 30>  C     -0.74677100     -2.20438800      0.70409400
| 31>  H     -1.56536800     -2.87615900      0.97478200
| 32>  H      0.00486600     -2.77542700      0.14535500
| 33>  H     -0.26276700     -1.81758600      1.60024300
| 34>  C     -1.81293700     -1.61380800     -1.52164600
| 35>  H     -1.04278100     -2.22046800     -2.01095900
| 36>  H     -2.68654700     -2.24707600     -1.34229300
| 37>  H     -2.07109900     -0.80324700     -2.20478900
| 38> *
| 39>
| 40>
| 41>                          ****END OF INPUT****

CARTESIAN COORDINATES (ANGSTROEM)
---------------------------------
  O     -0.316784   -0.129602   -0.435326
  C     -1.199079   -1.083302   -0.231922
  C     -2.592817   -0.319272    0.809115
  C     -3.020970    0.689053   -0.061617
  C     -4.125116    0.468393   -1.036281
  Fe     1.517106    0.173777   -0.094136
  Cl     1.838175    2.166208   -0.961372
  C     -2.293731    1.969806   -0.121600
  Cl     2.532154   -1.503030   -1.091820
  Cl     1.820779    0.153097    2.094317
  H     -3.267373   -1.174522    0.861789
  H     -2.751039    2.698706   -0.793016
  H     -2.128663    2.409848    0.866719
  H     -1.280411    1.709996   -0.495310
  H     -4.955979    1.134002   -0.758572
  H     -3.826832    0.765530   -2.049358
  H     -4.494983   -0.558233   -1.043212
  C     -1.949795    0.073429    2.133681
  H     -2.583842    0.795618    2.659586
  H     -1.836849   -0.797407    2.780781
  H     -0.962350    0.518906    1.996313
  C     -0.746771   -2.204388    0.704094
  H     -1.565368   -2.876159    0.974782
  H      0.004866   -2.775427    0.145355
  H     -0.262767   -1.817586    1.600243
  C     -1.812937   -1.613808   -1.521646
  H     -1.042781   -2.220468   -2.010959
  H     -2.686547   -2.247076   -1.342293
  H     -2.071099   -0.803247   -2.204789

ORBITAL ENERGIES
----------------
                 SPIN UP ORBITALS
  NO   OCC          E(Eh)            E(eV)
   0   1.0000    -261.548078     -7117.0850
   1   1.0000    -104.773214     -2851.0241
   2   1.0000    -104.770911     -2850.9614
   3   1.0000    -104.770399     -2850.9475
   4   1.0000     -32.215973      -876.6412
   5   1.0000     -27.692036      -753.5386
   6   1.0000     -27.691550      -753.5254
   7   1.0000     -27.691386      -753.5209
   8   1.0000     -20.556904      -559.3818
   9   1.0000     -11.378758      -309.6318
  10   1.0000     -11.366086      -309.2869
  11   1.0000     -11.292303      -307.2792
  12   1.0000     -11.282212      -307.0046
  13   1.0000     -11.268067      -306.6197
  14   1.0000     -11.254309      -306.2453
  15   1.0000     -11.250418      -306.1394
  16   1.0000     -11.246539      -306.0339
  17   1.0000     -10.499850      -285.7155
  18   1.0000     -10.497504      -285.6516
  19   1.0000     -10.497024      -285.6386
  20   1.0000      -7.966715      -216.7853
  21   1.0000      -7.965904      -216.7633
  22   1.0000      -7.965862      -216.7621
  23   1.0000      -7.964322      -216.7202
  24   1.0000      -7.963882      -216.7083
  25   1.0000      -7.963621      -216.7011
  26   1.0000      -7.963525      -216.6985
  27   1.0000      -7.963122      -216.6876
  28   1.0000      -7.963040      -216.6853
  29   1.0000      -4.571332      -124.3923
  30   1.0000      -3.184058       -86.6426
  31   1.0000      -3.183274       -86.6213
  32   1.0000      -3.182852       -86.6098
  33   1.0000      -1.395566       -37.9753
  34   1.0000      -1.185250       -32.2523
  35   1.0000      -1.080598       -29.4046
  36   1.0000      -1.045843       -28.4588
  37   1.0000      -1.044405       -28.4197
  38   1.0000      -1.039169       -28.2772
  39   1.0000      -1.037274       -28.2257
  40   1.0000      -1.008840       -27.4519
  41   1.0000      -0.979142       -26.6438
  42   1.0000      -0.927876       -25.2488
  43   1.0000      -0.914894       -24.8955
  44   1.0000      -0.900737       -24.5103
  45   1.0000      -0.900719       -24.5098
  46   1.0000      -0.891550       -24.2603
  47   1.0000      -0.891166       -24.2499
  48   1.0000      -0.790504       -21.5107
  49   1.0000      -0.769009       -20.9258
  50   1.0000      -0.700550       -19.0629
  51   1.0000      -0.691807       -18.8250
  52   1.0000      -0.668415       -18.1885
  53   1.0000      -0.662517       -18.0280
  54   1.0000      -0.655291       -17.8314
  55   1.0000      -0.630643       -17.1607
  56   1.0000      -0.603740       -16.4286
  57   1.0000      -0.596803       -16.2398
  58   1.0000      -0.592036       -16.1101
  59   1.0000      -0.578505       -15.7419
  60   1.0000      -0.576312       -15.6822
  61   1.0000      -0.564112       -15.3503
  62   1.0000      -0.558597       -15.2002
  63   1.0000      -0.541635       -14.7386
  64   1.0000      -0.534728       -14.5507
  65   1.0000      -0.523579       -14.2473
  66   1.0000      -0.508787       -13.8448
  67   1.0000      -0.472023       -12.8444
  68   1.0000      -0.459777       -12.5112
  69   1.0000      -0.448232       -12.1970
  70   1.0000      -0.426721       -11.6117
  71   1.0000      -0.423515       -11.5244
  72   1.0000      -0.419944       -11.4273
  73   1.0000      -0.411893       -11.2082
  74   1.0000      -0.409980       -11.1561
  75   1.0000      -0.409543       -11.1442
  76   1.0000      -0.396737       -10.7958
  77   0.0000       0.004885         0.1329
  78   0.0000       0.012027         0.3273
  79   0.0000       0.018642         0.5073
  80   0.0000       0.019924         0.5421
  81   0.0000       0.028600         0.7782

                 SPIN DOWN ORBITALS
  NO   OCC          E(Eh)            E(eV)
   0   1.0000    -261.544523     -7116.9883
   1   1.0000    -104.771812     -2850.9859
   2   1.0000    -104.769504     -2850.9231
   3   1.0000    -104.768953     -2850.9081
   4   1.0000     -32.053889      -872.2307
   5   1.0000     -27.531904      -749.1812
   6   1.0000     -27.531797      -749.1783
   7   1.0000     -27.531403      -749.1676
   8   1.0000     -20.551987      -559.2480
   9   1.0000     -11.378738      -309.6312
  10   1.0000     -11.365821      -309.2797
  11   1.0000     -11.292340      -307.2802
  12   1.0000     -11.282148      -307.0028
  13   1.0000     -11.268105      -306.6207
  14   1.0000     -11.254204      -306.2425
  15   1.0000     -11.250444      -306.1401
  16   1.0000     -11.246527      -306.0335
  17   1.0000     -10.498345      -285.6745
  18   1.0000     -10.495998      -285.6106
  19   1.0000     -10.495475      -285.5964
  20   1.0000      -7.964241      -216.7180
  21   1.0000      -7.963648      -216.7019
  22   1.0000      -7.963578      -216.7000
  23   1.0000      -7.961970      -216.6562
  24   1.0000      -7.961397      -216.6406
  25   1.0000      -7.961269      -216.6372
  26   1.0000      -7.961166      -216.6343
  27   1.0000      -7.960744      -216.6229
  28   1.0000      -7.960657      -216.6205
  29   1.0000      -4.129008      -112.3560
  30   1.0000      -2.650780       -72.1314
  31   1.0000      -2.650732       -72.1301
  32   1.0000      -2.649944       -72.1086
  33   1.0000      -1.382981       -37.6328
  34   1.0000      -1.184140       -32.2221
  35   1.0000      -1.078023       -29.3345
  36   1.0000      -1.045042       -28.4370
  37   1.0000      -1.029926       -28.0257
  38   1.0000      -1.018327       -27.7101
  39   1.0000      -1.016660       -27.6647
  40   1.0000      -1.008593       -27.4452
  41   1.0000      -0.978500       -26.6263
  42   1.0000      -0.926977       -25.2243
  43   1.0000      -0.801916       -21.8212
  44   1.0000      -0.771715       -20.9994
  45   1.0000      -0.701124       -19.0786
  46   1.0000      -0.691150       -18.8072
  47   1.0000      -0.669253       -18.2113
  48   1.0000      -0.664002       -18.0684
  49   1.0000      -0.653902       -17.7936
  50   1.0000      -0.630176       -17.1480
  51   1.0000      -0.603638       -16.4258
  52   1.0000      -0.596626       -16.2350
  53   1.0000      -0.591171       -16.0866
  54   1.0000      -0.578384       -15.7386
  55   1.0000      -0.575957       -15.6726
  56   1.0000      -0.563658       -15.3379
  57   1.0000      -0.558591       -15.2000
  58   1.0000      -0.540732       -14.7141
  59   1.0000      -0.534373       -14.5410
  60   1.0000      -0.519532       -14.1372
  61   1.0000      -0.501098       -13.6356
  62   1.0000      -0.469637       -12.7795
  63   1.0000      -0.463460       -12.6114
  64   1.0000      -0.457882       -12.4596
  65   1.0000      -0.434470       -11.8225
  66   1.0000      -0.431717       -11.7476
  67   1.0000      -0.429772       -11.6947
  68   1.0000      -0.422535       -11.4978
  69   1.0000      -0.409370       -11.1395
  70   1.0000      -0.395682       -10.7670
  71   1.0000      -0.391298       -10.6478
  72   0.0000       0.004893         0.1331
  73   0.0000       0.012031         0.3274
  74   0.0000       0.018643         0.5073
  75   0.0000       0.019880         0.5410
  76   0.0000       0.028579         0.7777

E(0)                                       ...  -3028.427913729
E(0)                                       ...  -3028.427913729
E(CORR)(strong-pairs)                      ...     -2.875327922
E(CORR)(weak-pairs)                        ...     -0.035385793
E(CORR)(corrected)                         ...     -2.910713715
E(TOT)                                     ...  -3031.338627444
E(CCSD(T))                                 ...  -3031.459097382
FINAL SINGLE POINT ENERGY     -3031.459097382496

DIPOLE MOMENT
-------------
                                X             Y             Z
Electronic contribution:     43.14371       6.37590      -1.49939
Nuclear contribution   :    -48.54149      -6.81432       1.42845
                        -----------------------------------------
Total Dipole Moment    :     -5.39778      -0.43842      -0.07093
                        -----------------------------------------
Magnitude (a.u.)       :      5.41602
Magnitude (Debye)      :     13.76642

Rotational constants in cm-1:     0.019925     0.010218     0.009775
Rotational constants in MHz :   597.333380   306.339192   293.042198

                             ****ORCA TERMINATED NORMALLY****
TOTAL RUN TIME: 0 days 21 hours 24 minutes 20 seconds 383 msec
