                         Program Version 4.1.2  - RELEASE  -
|  1> ! aug-cc-pVTZ aug-cc-pVTZ/C DLPNO-CCSD(T1) TightSCF NormalPNO UNO MiniPrint AutoAux
|  2> %pal nproc 10 end
|  3> %maxcore 20000
|  4> %mdci
|  5>      density none
|  6> end
|  7>
|  8> * xyz 0 6
|  9>  O     -0.34011100     -0.14426200     -0.50908800
| 10>  C     -1.19780200     -1.11822300     -0.34938300
| 11>  C     -2.64930300     -0.36977000      0.71619800
| 12>  C     -2.84277700      0.76525200     -0.06255600
| 13>  C     -3.79260400      0.77393000     -1.21309300
| 14> Fe      1.47513200      0.17118900     -0.07112500
| 15> Cl      1.81131900      2.17962600     -0.89600600
| 16>  C     -2.06213600      1.99740500      0.16191300
| 17> Cl      2.57564700     -1.47470200     -1.02364900
| 18> Cl      1.64518600      0.13951700      2.13273800
| 19>  H     -3.38007000     -1.16331500      0.56050600
| 20>  H     -2.48175600      2.86272700     -0.35575000
| 21>  H     -1.90354000      2.22217500      1.21923100
| 22>  H     -1.06052300      1.79735500     -0.26359500
| 23>  H     -4.59451800      1.48995800     -0.98275300
| 24>  H     -3.30604800      1.14702800     -2.12330000
| 25>  H     -4.24693500     -0.19881900     -1.40689300
| 26>  C     -2.12926800     -0.23264900      2.13778200
| 27>  H     -2.78484000      0.43437500      2.70935900
| 28>  H     -2.12281700     -1.19882500      2.64466400
| 29>  H     -1.11597700      0.17439900      2.17357700
| 30>  C     -0.76225300     -2.26060800      0.56191800
| 31>  H     -1.58308100     -2.94397700      0.79362700
| 32>  H      0.00285100     -2.81142100      0.00037500
| 33>  H     -0.29818700     -1.90124800      1.47940000
| 34>  C     -1.81483300     -1.60951300     -1.65128300
| 35>  H     -1.04782400     -2.21814500     -2.14421500
| 36>  H     -2.69718800     -2.23534000     -1.49181600
| 37>  H     -2.05282200     -0.78417900     -2.32186800
| 38> *
| 39>
| 40>
| 41>                          ****END OF INPUT****

CARTESIAN COORDINATES (ANGSTROEM)
---------------------------------
  O     -0.340111   -0.144262   -0.509088
  C     -1.197802   -1.118223   -0.349383
  C     -2.649303   -0.369770    0.716198
  C     -2.842777    0.765252   -0.062556
  C     -3.792604    0.773930   -1.213093
  Fe     1.475132    0.171189   -0.071125
  Cl     1.811319    2.179626   -0.896006
  C     -2.062136    1.997405    0.161913
  Cl     2.575647   -1.474702   -1.023649
  Cl     1.645186    0.139517    2.132738
  H     -3.380070   -1.163315    0.560506
  H     -2.481756    2.862727   -0.355750
  H     -1.903540    2.222175    1.219231
  H     -1.060523    1.797355   -0.263595
  H     -4.594518    1.489958   -0.982753
  H     -3.306048    1.147028   -2.123300
  H     -4.246935   -0.198819   -1.406893
  C     -2.129268   -0.232649    2.137782
  H     -2.784840    0.434375    2.709359
  H     -2.122817   -1.198825    2.644664
  H     -1.115977    0.174399    2.173577
  C     -0.762253   -2.260608    0.561918
  H     -1.583081   -2.943977    0.793627
  H      0.002851   -2.811421    0.000375
  H     -0.298187   -1.901248    1.479400
  C     -1.814833   -1.609513   -1.651283
  H     -1.047824   -2.218145   -2.144215
  H     -2.697188   -2.235340   -1.491816
  H     -2.052822   -0.784179   -2.321868

ORBITAL ENERGIES
----------------
                 SPIN UP ORBITALS
  NO   OCC          E(Eh)            E(eV)
   0   1.0000    -261.551793     -7117.1861
   1   1.0000    -104.776630     -2851.1171
   2   1.0000    -104.773950     -2851.0441
   3   1.0000    -104.773839     -2851.0411
   4   1.0000     -32.219686      -876.7422
   5   1.0000     -27.695754      -753.6398
   6   1.0000     -27.695271      -753.6266
   7   1.0000     -27.695083      -753.6215
   8   1.0000     -20.560964      -559.4923
   9   1.0000     -11.385684      -309.8202
  10   1.0000     -11.354046      -308.9593
  11   1.0000     -11.284871      -307.0769
  12   1.0000     -11.278438      -306.9019
  13   1.0000     -11.260578      -306.4159
  14   1.0000     -11.256416      -306.3027
  15   1.0000     -11.249750      -306.1212
  16   1.0000     -11.249254      -306.1078
  17   1.0000     -10.503254      -285.8081
  18   1.0000     -10.500532      -285.7340
  19   1.0000     -10.500464      -285.7321
  20   1.0000      -7.970122      -216.8780
  21   1.0000      -7.969302      -216.8557
  22   1.0000      -7.969261      -216.8546
  23   1.0000      -7.967353      -216.8027
  24   1.0000      -7.967309      -216.8015
  25   1.0000      -7.966642      -216.7834
  26   1.0000      -7.966565      -216.7812
  27   1.0000      -7.966554      -216.7809
  28   1.0000      -7.966488      -216.7792
  29   1.0000      -4.575025      -124.4928
  30   1.0000      -3.187748       -86.7430
  31   1.0000      -3.186960       -86.7216
  32   1.0000      -3.186526       -86.7098
  33   1.0000      -1.403565       -38.1929
  34   1.0000      -1.178317       -32.0636
  35   1.0000      -1.082070       -29.4446
  36   1.0000      -1.048137       -28.5212
  37   1.0000      -1.044341       -28.4180
  38   1.0000      -1.042029       -28.3551
  39   1.0000      -1.040661       -28.3178
  40   1.0000      -1.001428       -27.2502
  41   1.0000      -0.982293       -26.7296
  42   1.0000      -0.927694       -25.2438
  43   1.0000      -0.917332       -24.9619
  44   1.0000      -0.904417       -24.6104
  45   1.0000      -0.904375       -24.6093
  46   1.0000      -0.895192       -24.3594
  47   1.0000      -0.894761       -24.3477
  48   1.0000      -0.789706       -21.4890
  49   1.0000      -0.766552       -20.8589
  50   1.0000      -0.696860       -18.9625
  51   1.0000      -0.691037       -18.8041
  52   1.0000      -0.671081       -18.2610
  53   1.0000      -0.663644       -18.0587
  54   1.0000      -0.653442       -17.7811
  55   1.0000      -0.627056       -17.0631
  56   1.0000      -0.601215       -16.3599
  57   1.0000      -0.597076       -16.2473
  58   1.0000      -0.589549       -16.0424
  59   1.0000      -0.576709       -15.6930
  60   1.0000      -0.573950       -15.6180
  61   1.0000      -0.566319       -15.4103
  62   1.0000      -0.556598       -15.1458
  63   1.0000      -0.544166       -14.8075
  64   1.0000      -0.531880       -14.4732
  65   1.0000      -0.524772       -14.2798
  66   1.0000      -0.512825       -13.9547
  67   1.0000      -0.475768       -12.9463
  68   1.0000      -0.462834       -12.5944
  69   1.0000      -0.452348       -12.3090
  70   1.0000      -0.428967       -11.6728
  71   1.0000      -0.426282       -11.5997
  72   1.0000      -0.423165       -11.5149
  73   1.0000      -0.415016       -11.2932
  74   1.0000      -0.413230       -11.2445
  75   1.0000      -0.412779       -11.2323
  76   1.0000      -0.391795       -10.6613
  77   0.0000       0.007054         0.1919
  78   0.0000       0.018812         0.5119
  79   0.0000       0.019988         0.5439
  80   0.0000       0.021729         0.5913
  81   0.0000       0.030232         0.8227

                 SPIN DOWN ORBITALS
  NO   OCC          E(Eh)            E(eV)
   0   1.0000    -261.548238     -7117.0894
   1   1.0000    -104.775228     -2851.0789
   2   1.0000    -104.772535     -2851.0056
   3   1.0000    -104.772385     -2851.0015
   4   1.0000     -32.057623      -872.3323
   5   1.0000     -27.535634      -749.2827
   6   1.0000     -27.535513      -749.2794
   7   1.0000     -27.535146      -749.2694
   8   1.0000     -20.556090      -559.3596
   9   1.0000     -11.385670      -309.8198
  10   1.0000     -11.353826      -308.9533
  11   1.0000     -11.284901      -307.0778
  12   1.0000     -11.278351      -306.8995
  13   1.0000     -11.260622      -306.4171
  14   1.0000     -11.256308      -306.2997
  15   1.0000     -11.249730      -306.1207
  16   1.0000     -11.249274      -306.1083
  17   1.0000     -10.501748      -285.7671
  18   1.0000     -10.499019      -285.6928
  19   1.0000     -10.498908      -285.6898
  20   1.0000      -7.967634      -216.8103
  21   1.0000      -7.967055      -216.7946
  22   1.0000      -7.966981      -216.7926
  23   1.0000      -7.964983      -216.7382
  24   1.0000      -7.964841      -216.7343
  25   1.0000      -7.964282      -216.7191
  26   1.0000      -7.964181      -216.7164
  27   1.0000      -7.964158      -216.7158
  28   1.0000      -7.964074      -216.7135
  29   1.0000      -4.132739      -112.4575
  30   1.0000      -2.654512       -72.2329
  31   1.0000      -2.654457       -72.2314
  32   1.0000      -2.653660       -72.2098
  33   1.0000      -1.391138       -37.8548
  34   1.0000      -1.177294       -32.0358
  35   1.0000      -1.079407       -29.3721
  36   1.0000      -1.043458       -28.3939
  37   1.0000      -1.033268       -28.1166
  38   1.0000      -1.021660       -27.8008
  39   1.0000      -1.019979       -27.7550
  40   1.0000      -1.001296       -27.2466
  41   1.0000      -0.981549       -26.7093
  42   1.0000      -0.925574       -25.1862
  43   1.0000      -0.802351       -21.8331
  44   1.0000      -0.767880       -20.8951
  45   1.0000      -0.697618       -18.9832
  46   1.0000      -0.690470       -18.7886
  47   1.0000      -0.672539       -18.3007
  48   1.0000      -0.663475       -18.0541
  49   1.0000      -0.652690       -17.7606
  50   1.0000      -0.626529       -17.0487
  51   1.0000      -0.601091       -16.3565
  52   1.0000      -0.596452       -16.2303
  53   1.0000      -0.589242       -16.0341
  54   1.0000      -0.576335       -15.6829
  55   1.0000      -0.573963       -15.6183
  56   1.0000      -0.565690       -15.3932
  57   1.0000      -0.556441       -15.1415
  58   1.0000      -0.543369       -14.7858
  59   1.0000      -0.530803       -14.4439
  60   1.0000      -0.521374       -14.1873
  61   1.0000      -0.504633       -13.7318
  62   1.0000      -0.473653       -12.8888
  63   1.0000      -0.466784       -12.7018
  64   1.0000      -0.461921       -12.5695
  65   1.0000      -0.437771       -11.9124
  66   1.0000      -0.434709       -11.8290
  67   1.0000      -0.432840       -11.7782
  68   1.0000      -0.422939       -11.5087
  69   1.0000      -0.412575       -11.2267
  70   1.0000      -0.398935       -10.8556
  71   1.0000      -0.387612       -10.5475
  72   0.0000       0.007059         0.1921
  73   0.0000       0.018672         0.5081
  74   0.0000       0.019983         0.5438
  75   0.0000       0.021579         0.5872
  76   0.0000       0.030147         0.8203

E(0)                                       ...  -3028.427414540
E(0)                                       ...  -3028.427414540
E(CORR)(strong-pairs)                      ...     -2.875597437
E(CORR)(weak-pairs)                        ...     -0.035880175
E(CORR)(corrected)                         ...     -2.911477612
E(TOT)                                     ...  -3031.338892152
E(CCSD(T))                                 ...  -3031.459358329
FINAL SINGLE POINT ENERGY     -3031.459358328879

DIPOLE MOMENT
-------------
                                X             Y             Z
Electronic contribution:     42.18891       6.40342      -0.64218
Nuclear contribution   :    -47.16713      -6.93029       0.43339
                        -----------------------------------------
Total Dipole Moment    :     -4.97822      -0.52687      -0.20879
                        -----------------------------------------
Magnitude (a.u.)       :      5.01037
Magnitude (Debye)      :     12.73536

Rotational constants in cm-1:     0.019461     0.010667     0.010142
Rotational constants in MHz :   583.426420   319.790812   304.038824

                             ****ORCA TERMINATED NORMALLY****
TOTAL RUN TIME: 0 days 21 hours 10 minutes 40 seconds 890 msec
