                         Program Version 4.1.2  - RELEASE  -
|  1> ! aug-cc-pVTZ aug-cc-pVTZ/C DLPNO-CCSD(T1) TightSCF NormalPNO UNO MiniPrint AutoAux
|  2> %pal nproc 10 end
|  3> %maxcore 20000
|  4> %mdci
|  5>      density none
|  6> end
|  7>
|  8> * xyz 0 6
|  9>  O     -0.30004600     -0.17283200     -0.73043300
| 10>  C     -1.17259900     -1.09877300     -0.61691500
| 11>  C     -3.05110800     -0.09721000      0.25375700
| 12>  C     -2.41955500      1.02959800     -0.17196300
| 13>  C     -2.58020500      1.55191900     -1.56604100
| 14> Fe      1.44837800      0.09509100      0.03577900
| 15> Cl      2.08250200      2.02000600     -0.78256700
| 16>  C     -1.56847300      1.88010000      0.71665600
| 17> Cl      2.54309500     -1.66936900     -0.67390400
| 18> Cl      1.24520100      0.09970900      2.23191900
| 19>  H     -3.74188600     -0.56888100     -0.44223100
| 20>  H     -2.17268500      2.73235200      1.05970500
| 21>  H     -1.19404200      1.36044700      1.59805300
| 22>  H     -0.71894100      2.29535100      0.16565100
| 23>  H     -2.89944700      2.60082800     -1.52148800
| 24>  H     -1.61247700      1.54276500     -2.08286400
| 25>  H     -3.31810500      0.99587800     -2.14906800
| 26>  C     -3.22264100     -0.49779100      1.69707300
| 27>  H     -4.09663100      0.01828400      2.11620200
| 28>  H     -3.40803900     -1.57027900      1.80054800
| 29>  H     -2.36319400     -0.23892700      2.31975800
| 30>  C     -1.01678900     -2.11471600      0.48006800
| 31>  H     -1.89098300     -2.75797800      0.58309100
| 32>  H     -0.16258800     -2.73755100      0.17517800
| 33>  H     -0.75611700     -1.65606200      1.43356900
| 34>  C     -1.79980500     -1.58414200     -1.89918200
| 35>  H     -1.03923700     -2.22540500     -2.36686100
| 36>  H     -2.69572700     -2.18354700     -1.73029900
| 37>  H     -2.00387400     -0.76678300     -2.58905900
| 38> *
| 39>
| 40>
| 41>                          ****END OF INPUT****

CARTESIAN COORDINATES (ANGSTROEM)
---------------------------------
  O     -0.300046   -0.172832   -0.730433
  C     -1.172599   -1.098773   -0.616915
  C     -3.051108   -0.097210    0.253757
  C     -2.419555    1.029598   -0.171963
  C     -2.580205    1.551919   -1.566041
  Fe     1.448378    0.095091    0.035779
  Cl     2.082502    2.020006   -0.782567
  C     -1.568473    1.880100    0.716656
  Cl     2.543095   -1.669369   -0.673904
  Cl     1.245201    0.099709    2.231919
  H     -3.741886   -0.568881   -0.442231
  H     -2.172685    2.732352    1.059705
  H     -1.194042    1.360447    1.598053
  H     -0.718941    2.295351    0.165651
  H     -2.899447    2.600828   -1.521488
  H     -1.612477    1.542765   -2.082864
  H     -3.318105    0.995878   -2.149068
  C     -3.222641   -0.497791    1.697073
  H     -4.096631    0.018284    2.116202
  H     -3.408039   -1.570279    1.800548
  H     -2.363194   -0.238927    2.319758
  C     -1.016789   -2.114716    0.480068
  H     -1.890983   -2.757978    0.583091
  H     -0.162588   -2.737551    0.175178
  H     -0.756117   -1.656062    1.433569
  C     -1.799805   -1.584142   -1.899182
  H     -1.039237   -2.225405   -2.366861
  H     -2.695727   -2.183547   -1.730299
  H     -2.003874   -0.766783   -2.589059

ORBITAL ENERGIES
----------------
                 SPIN UP ORBITALS
  NO   OCC          E(Eh)            E(eV)
   0   1.0000    -261.566912     -7117.5975
   1   1.0000    -104.787333     -2851.4083
   2   1.0000    -104.784417     -2851.3290
   3   1.0000    -104.783605     -2851.3068
   4   1.0000     -32.234705      -877.1509
   5   1.0000     -27.710988      -754.0543
   6   1.0000     -27.710161      -754.0318
   7   1.0000     -27.709997      -754.0274
   8   1.0000     -20.591675      -560.3280
   9   1.0000     -11.416162      -310.6496
  10   1.0000     -11.299459      -307.4739
  11   1.0000     -11.271252      -306.7064
  12   1.0000     -11.264984      -306.5358
  13   1.0000     -11.257398      -306.3294
  14   1.0000     -11.252454      -306.1948
  15   1.0000     -11.248502      -306.0873
  16   1.0000     -11.241166      -305.8877
  17   1.0000     -10.514003      -286.1006
  18   1.0000     -10.511056      -286.0204
  19   1.0000     -10.510200      -285.9971
  20   1.0000      -7.980859      -217.1702
  21   1.0000      -7.980061      -217.1485
  22   1.0000      -7.980022      -217.1475
  23   1.0000      -7.977930      -217.0905
  24   1.0000      -7.977151      -217.0693
  25   1.0000      -7.977076      -217.0673
  26   1.0000      -7.977000      -217.0652
  27   1.0000      -7.976318      -217.0466
  28   1.0000      -7.976256      -217.0450
  29   1.0000      -4.589801      -124.8948
  30   1.0000      -3.202774       -87.1519
  31   1.0000      -3.201434       -87.1154
  32   1.0000      -3.201176       -87.1084
  33   1.0000      -1.441040       -39.2127
  34   1.0000      -1.146924       -31.2094
  35   1.0000      -1.094243       -29.7759
  36   1.0000      -1.059698       -28.8359
  37   1.0000      -1.054164       -28.6852
  38   1.0000      -1.051796       -28.6208
  39   1.0000      -1.030742       -28.0479
  40   1.0000      -1.004413       -27.3315
  41   1.0000      -0.972293       -26.4574
  42   1.0000      -0.935154       -25.4468
  43   1.0000      -0.918979       -25.0067
  44   1.0000      -0.918862       -25.0035
  45   1.0000      -0.911421       -24.8010
  46   1.0000      -0.908745       -24.7282
  47   1.0000      -0.908259       -24.7150
  48   1.0000      -0.802288       -21.8314
  49   1.0000      -0.744347       -20.2547
  50   1.0000      -0.699778       -19.0419
  51   1.0000      -0.693611       -18.8741
  52   1.0000      -0.686403       -18.6780
  53   1.0000      -0.666483       -18.1359
  54   1.0000      -0.634408       -17.2631
  55   1.0000      -0.620552       -16.8861
  56   1.0000      -0.604074       -16.4377
  57   1.0000      -0.598743       -16.2926
  58   1.0000      -0.583253       -15.8711
  59   1.0000      -0.575777       -15.6677
  60   1.0000      -0.565607       -15.3910
  61   1.0000      -0.560335       -15.2475
  62   1.0000      -0.551532       -15.0080
  63   1.0000      -0.548458       -14.9243
  64   1.0000      -0.538965       -14.6660
  65   1.0000      -0.525984       -14.3128
  66   1.0000      -0.508131       -13.8269
  67   1.0000      -0.492751       -13.4084
  68   1.0000      -0.471897       -12.8410
  69   1.0000      -0.467656       -12.7256
  70   1.0000      -0.440031       -11.9738
  71   1.0000      -0.434851       -11.8329
  72   1.0000      -0.433403       -11.7935
  73   1.0000      -0.424730       -11.5575
  74   1.0000      -0.423327       -11.5193
  75   1.0000      -0.422782       -11.5045
  76   1.0000      -0.369300       -10.0492
  77   0.0000       0.011989         0.3262
  78   0.0000       0.022436         0.6105
  79   0.0000       0.023132         0.6294
  80   0.0000       0.030320         0.8251
  81   0.0000       0.038802         1.0558

                 SPIN DOWN ORBITALS
  NO   OCC          E(Eh)            E(eV)
   0   1.0000    -261.563349     -7117.5006
   1   1.0000    -104.785892     -2851.3691
   2   1.0000    -104.782912     -2851.2880
   3   1.0000    -104.782117     -2851.2664
   4   1.0000     -32.072670      -872.7417
   5   1.0000     -27.550602      -749.6900
   6   1.0000     -27.550552      -749.6886
   7   1.0000     -27.550314      -749.6822
   8   1.0000     -20.587618      -560.2176
   9   1.0000     -11.416048      -310.6465
  10   1.0000     -11.299408      -307.4725
  11   1.0000     -11.271143      -306.7034
  12   1.0000     -11.264972      -306.5355
  13   1.0000     -11.257298      -306.3266
  14   1.0000     -11.252457      -306.1949
  15   1.0000     -11.248513      -306.0876
  16   1.0000     -11.241195      -305.8885
  17   1.0000     -10.512460      -286.0586
  18   1.0000     -10.509446      -285.9766
  19   1.0000     -10.508617      -285.9540
  20   1.0000      -7.978356      -217.1021
  21   1.0000      -7.977713      -217.0846
  22   1.0000      -7.977654      -217.0830
  23   1.0000      -7.975335      -217.0199
  24   1.0000      -7.974678      -217.0020
  25   1.0000      -7.974601      -216.9999
  26   1.0000      -7.974584      -216.9995
  27   1.0000      -7.973787      -216.9778
  28   1.0000      -7.973702      -216.9755
  29   1.0000      -4.147553      -112.8607
  30   1.0000      -2.669161       -72.6316
  31   1.0000      -2.669145       -72.6311
  32   1.0000      -2.668562       -72.6153
  33   1.0000      -1.430807       -38.9343
  34   1.0000      -1.146345       -31.1936
  35   1.0000      -1.091642       -29.7051
  36   1.0000      -1.044672       -28.4270
  37   1.0000      -1.032445       -28.0943
  38   1.0000      -1.030716       -28.0472
  39   1.0000      -1.029724       -28.0202
  40   1.0000      -1.003577       -27.3087
  41   1.0000      -0.972189       -26.4546
  42   1.0000      -0.911925       -24.8148
  43   1.0000      -0.815732       -22.1972
  44   1.0000      -0.744414       -20.2565
  45   1.0000      -0.702572       -19.1179
  46   1.0000      -0.693369       -18.8675
  47   1.0000      -0.684950       -18.6384
  48   1.0000      -0.666284       -18.1305
  49   1.0000      -0.634316       -17.2606
  50   1.0000      -0.620090       -16.8735
  51   1.0000      -0.603646       -16.4260
  52   1.0000      -0.598693       -16.2913
  53   1.0000      -0.582957       -15.8631
  54   1.0000      -0.575300       -15.6547
  55   1.0000      -0.565270       -15.3818
  56   1.0000      -0.560167       -15.2429
  57   1.0000      -0.550137       -14.9700
  58   1.0000      -0.546862       -14.8809
  59   1.0000      -0.537871       -14.6362
  60   1.0000      -0.515839       -14.0367
  61   1.0000      -0.508065       -13.8251
  62   1.0000      -0.492488       -13.4013
  63   1.0000      -0.478015       -13.0075
  64   1.0000      -0.476598       -12.9689
  65   1.0000      -0.447834       -12.1862
  66   1.0000      -0.444805       -12.1038
  67   1.0000      -0.442543       -12.0422
  68   1.0000      -0.427067       -11.6211
  69   1.0000      -0.423407       -11.5215
  70   1.0000      -0.408413       -11.1135
  71   1.0000      -0.367893       -10.0109
  72   0.0000       0.011978         0.3259
  73   0.0000       0.022412         0.6099
  74   0.0000       0.023112         0.6289
  75   0.0000       0.030295         0.8244
  76   0.0000       0.038676         1.0524

E(0)                                       ...  -3028.440316290
E(0)                                       ...  -3028.440316290
E(CORR)(strong-pairs)                      ...     -2.872165742
E(CORR)(weak-pairs)                        ...     -0.036040413
E(CORR)(corrected)                         ...     -2.908206155
E(TOT)                                     ...  -3031.348522445
E(CCSD(T))                                 ...  -3031.467795636
FINAL SINGLE POINT ENERGY     -3031.467795636495

DIPOLE MOMENT
-------------
                                X             Y             Z
Electronic contribution:     42.38584       3.21492       2.18083
Nuclear contribution   :    -46.26802      -4.01825      -2.78260
                        -----------------------------------------
Total Dipole Moment    :     -3.88218      -0.80333      -0.60177
                        -----------------------------------------
Magnitude (a.u.)       :      4.00984
Magnitude (Debye)      :     10.19220

Rotational constants in cm-1:     0.019204     0.011103     0.010448
Rotational constants in MHz :   575.720112   332.855299   313.235732

                             ****ORCA TERMINATED NORMALLY****
TOTAL RUN TIME: 0 days 19 hours 35 minutes 0 seconds 184 msec
