                         Program Version 4.1.2  - RELEASE  -
|  1> ! aug-cc-pVTZ aug-cc-pVTZ/C DLPNO-CCSD(T1) TightSCF NormalPNO UNO MiniPrint AutoAux
|  2> %pal nproc 10 end
|  3> %maxcore 20000
|  4> %mdci
|  5>      density none
|  6> end
|  7>
|  8> * xyz 0 6
|  9>  O     -0.28522000     -0.21091300     -0.75287600
| 10>  C     -1.12385200     -1.15123800     -0.62802000
| 11>  C     -3.12513600     -0.04951500      0.25717100
| 12>  C     -2.44143700      1.02951900     -0.19204300
| 13>  C     -2.57453000      1.51856200     -1.60405700
| 14> Fe      1.46213800      0.10292300      0.04309700
| 15> Cl      2.10130300      1.99775700     -0.82756700
| 16>  C     -1.57559300      1.88579400      0.68117300
| 17> Cl      2.55199000     -1.68242200     -0.61566900
| 18> Cl      1.24307800      0.15720300      2.23113900
| 19>  H     -3.80476600     -0.53400900     -0.44209900
| 20>  H     -2.14350200      2.78124900      0.97063100
| 21>  H     -1.24375700      1.39196400      1.59425600
| 22>  H     -0.69500300      2.23824200      0.13457800
| 23>  H     -2.88874600      2.57005200     -1.59580200
| 24>  H     -1.60209300      1.48837100     -2.11099000
| 25>  H     -3.30901200      0.95176500     -2.18220300
| 26>  C     -3.29610100     -0.44876900      1.69884100
| 27>  H     -4.18359000      0.04662000      2.11539100
| 28>  H     -3.45832900     -1.52554300      1.80588000
| 29>  H     -2.44549300     -0.16883500      2.32504100
| 30>  C     -1.00895600     -2.10606600      0.52200700
| 31>  H     -1.89433300     -2.73184000      0.63456800
| 32>  H     -0.15420100     -2.75531800      0.27860300
| 33>  H     -0.77001500     -1.59608500      1.45524500
| 34>  C     -1.79242900     -1.64574700     -1.87991500
| 35>  H     -1.06680700     -2.32918500     -2.34506200
| 36>  H     -2.70505900     -2.20714400     -1.67579600
| 37>  H     -1.97923500     -0.83737600     -2.58503300
| 38> *
| 39>
| 40>
| 41>                          ****END OF INPUT****

CARTESIAN COORDINATES (ANGSTROEM)
---------------------------------
  O     -0.285220   -0.210913   -0.752876
  C     -1.123852   -1.151238   -0.628020
  C     -3.125136   -0.049515    0.257171
  C     -2.441437    1.029519   -0.192043
  C     -2.574530    1.518562   -1.604057
  Fe     1.462138    0.102923    0.043097
  Cl     2.101303    1.997757   -0.827567
  C     -1.575593    1.885794    0.681173
  Cl     2.551990   -1.682422   -0.615669
  Cl     1.243078    0.157203    2.231139
  H     -3.804766   -0.534009   -0.442099
  H     -2.143502    2.781249    0.970631
  H     -1.243757    1.391964    1.594256
  H     -0.695003    2.238242    0.134578
  H     -2.888746    2.570052   -1.595802
  H     -1.602093    1.488371   -2.110990
  H     -3.309012    0.951765   -2.182203
  C     -3.296101   -0.448769    1.698841
  H     -4.183590    0.046620    2.115391
  H     -3.458329   -1.525543    1.805880
  H     -2.445493   -0.168835    2.325041
  C     -1.008956   -2.106066    0.522007
  H     -1.894333   -2.731840    0.634568
  H     -0.154201   -2.755318    0.278603
  H     -0.770015   -1.596085    1.455245
  C     -1.792429   -1.645747   -1.879915
  H     -1.066807   -2.329185   -2.345062
  H     -2.705059   -2.207144   -1.675796
  H     -1.979235   -0.837376   -2.585033

ORBITAL ENERGIES
----------------
                 SPIN UP ORBITALS
  NO   OCC          E(Eh)            E(eV)
   0   1.0000    -261.571577     -7117.7245
   1   1.0000    -104.790286     -2851.4886
   2   1.0000    -104.787713     -2851.4186
   3   1.0000    -104.786517     -2851.3861
   4   1.0000     -32.239319      -877.2765
   5   1.0000     -27.715706      -754.1827
   6   1.0000     -27.714714      -754.1557
   7   1.0000     -27.714552      -754.1513
   8   1.0000     -20.604232      -560.6697
   9   1.0000     -11.420569      -310.7695
  10   1.0000     -11.282887      -307.0230
  11   1.0000     -11.274966      -306.8074
  12   1.0000     -11.269052      -306.6465
  13   1.0000     -11.250127      -306.1315
  14   1.0000     -11.245873      -306.0158
  15   1.0000     -11.245103      -305.9948
  16   1.0000     -11.235714      -305.7393
  17   1.0000     -10.516975      -286.1814
  18   1.0000     -10.514366      -286.1105
  19   1.0000     -10.513123      -286.0766
  20   1.0000      -7.983818      -217.2507
  21   1.0000      -7.983045      -217.2297
  22   1.0000      -7.983001      -217.2285
  23   1.0000      -7.981250      -217.1809
  24   1.0000      -7.980461      -217.1594
  25   1.0000      -7.980387      -217.1574
  26   1.0000      -7.979916      -217.1446
  27   1.0000      -7.979245      -217.1263
  28   1.0000      -7.979190      -217.1248
  29   1.0000      -4.594311      -125.0176
  30   1.0000      -3.207389       -87.2775
  31   1.0000      -3.205817       -87.2347
  32   1.0000      -3.205625       -87.2295
  33   1.0000      -1.453350       -39.5477
  34   1.0000      -1.137008       -30.9396
  35   1.0000      -1.098186       -29.8832
  36   1.0000      -1.063191       -28.9309
  37   1.0000      -1.057653       -28.7802
  38   1.0000      -1.055262       -28.7151
  39   1.0000      -1.025928       -27.9169
  40   1.0000      -1.008986       -27.4559
  41   1.0000      -0.965431       -26.2707
  42   1.0000      -0.939232       -25.5578
  43   1.0000      -0.923381       -25.1265
  44   1.0000      -0.923259       -25.1232
  45   1.0000      -0.912753       -24.8373
  46   1.0000      -0.912459       -24.8293
  47   1.0000      -0.904563       -24.6144
  48   1.0000      -0.808116       -21.9900
  49   1.0000      -0.737065       -20.0566
  50   1.0000      -0.706187       -19.2163
  51   1.0000      -0.698141       -18.9974
  52   1.0000      -0.688281       -18.7291
  53   1.0000      -0.661681       -18.0052
  54   1.0000      -0.628345       -17.0981
  55   1.0000      -0.620787       -16.8925
  56   1.0000      -0.603614       -16.4252
  57   1.0000      -0.600203       -16.3324
  58   1.0000      -0.584494       -15.9049
  59   1.0000      -0.578108       -15.7311
  60   1.0000      -0.561596       -15.2818
  61   1.0000      -0.557516       -15.1708
  62   1.0000      -0.552632       -15.0379
  63   1.0000      -0.544072       -14.8050
  64   1.0000      -0.534623       -14.5478
  65   1.0000      -0.528680       -14.3861
  66   1.0000      -0.501101       -13.6357
  67   1.0000      -0.497846       -13.5471
  68   1.0000      -0.474835       -12.9209
  69   1.0000      -0.471783       -12.8379
  70   1.0000      -0.443500       -12.0683
  71   1.0000      -0.437694       -11.9103
  72   1.0000      -0.436245       -11.8708
  73   1.0000      -0.427599       -11.6356
  74   1.0000      -0.426179       -11.5969
  75   1.0000      -0.425652       -11.5826
  76   1.0000      -0.363928        -9.9030
  77   0.0000       0.012533         0.3410
  78   0.0000       0.023273         0.6333
  79   0.0000       0.023672         0.6441
  80   0.0000       0.030438         0.8283
  81   0.0000       0.039239         1.0677

                 SPIN DOWN ORBITALS
  NO   OCC          E(Eh)            E(eV)
   0   1.0000    -261.568008     -7117.6274
   1   1.0000    -104.788815     -2851.4486
   2   1.0000    -104.786188     -2851.3771
   3   1.0000    -104.784997     -2851.3447
   4   1.0000     -32.077309      -872.8680
   5   1.0000     -27.555230      -749.8159
   6   1.0000     -27.555176      -749.8145
   7   1.0000     -27.554999      -749.8096
   8   1.0000     -20.600491      -560.5679
   9   1.0000     -11.420441      -310.7660
  10   1.0000     -11.282913      -307.0237
  11   1.0000     -11.274859      -306.8045
  12   1.0000     -11.269046      -306.6463
  13   1.0000     -11.250007      -306.1283
  14   1.0000     -11.245866      -306.0156
  15   1.0000     -11.245116      -305.9952
  16   1.0000     -11.235730      -305.7398
  17   1.0000     -10.515401      -286.1386
  18   1.0000     -10.512737      -286.0661
  19   1.0000     -10.511507      -286.0326
  20   1.0000      -7.981310      -217.1825
  21   1.0000      -7.980615      -217.1636
  22   1.0000      -7.980562      -217.1621
  23   1.0000      -7.978613      -217.1091
  24   1.0000      -7.977962      -217.0914
  25   1.0000      -7.977865      -217.0887
  26   1.0000      -7.977494      -217.0787
  27   1.0000      -7.976642      -217.0555
  28   1.0000      -7.976559      -217.0532
  29   1.0000      -4.152132      -112.9853
  30   1.0000      -2.673706       -72.7552
  31   1.0000      -2.673674       -72.7544
  32   1.0000      -2.673190       -72.7412
  33   1.0000      -1.443985       -39.2928
  34   1.0000      -1.136588       -30.9281
  35   1.0000      -1.095715       -29.8159
  36   1.0000      -1.047872       -28.5140
  37   1.0000      -1.035484       -28.1769
  38   1.0000      -1.033165       -28.1139
  39   1.0000      -1.025490       -27.9050
  40   1.0000      -1.008204       -27.4346
  41   1.0000      -0.965305       -26.2673
  42   1.0000      -0.904924       -24.6242
  43   1.0000      -0.821305       -22.3488
  44   1.0000      -0.737120       -20.0580
  45   1.0000      -0.708809       -19.2877
  46   1.0000      -0.697423       -18.9778
  47   1.0000      -0.687225       -18.7003
  48   1.0000      -0.661602       -18.0031
  49   1.0000      -0.628246       -17.0954
  50   1.0000      -0.620307       -16.8794
  51   1.0000      -0.603325       -16.4173
  52   1.0000      -0.600154       -16.3310
  53   1.0000      -0.584175       -15.8962
  54   1.0000      -0.577475       -15.7139
  55   1.0000      -0.561052       -15.2670
  56   1.0000      -0.557357       -15.1664
  57   1.0000      -0.550063       -14.9680
  58   1.0000      -0.544013       -14.8034
  59   1.0000      -0.533091       -14.5061
  60   1.0000      -0.519087       -14.1251
  61   1.0000      -0.501168       -13.6375
  62   1.0000      -0.498215       -13.5571
  63   1.0000      -0.481622       -13.1056
  64   1.0000      -0.479960       -13.0604
  65   1.0000      -0.450931       -12.2704
  66   1.0000      -0.447833       -12.1861
  67   1.0000      -0.445320       -12.1178
  68   1.0000      -0.429346       -11.6831
  69   1.0000      -0.426540       -11.6067
  70   1.0000      -0.410972       -11.1831
  71   1.0000      -0.362920        -9.8756
  72   0.0000       0.012520         0.3407
  73   0.0000       0.023247         0.6326
  74   0.0000       0.023649         0.6435
  75   0.0000       0.030401         0.8273
  76   0.0000       0.039136         1.0649

E(0)                                       ...  -3028.449352863
E(0)                                       ...  -3028.449352863
E(CORR)(strong-pairs)                      ...     -2.870242147
E(CORR)(weak-pairs)                        ...     -0.036236317
E(CORR)(corrected)                         ...     -2.906478464
E(TOT)                                     ...  -3031.355831327
E(CCSD(T))                                 ...  -3031.474524853
FINAL SINGLE POINT ENERGY     -3031.474524853175

DIPOLE MOMENT
-------------
                                X             Y             Z
Electronic contribution:     42.99313       3.10652       2.19964
Nuclear contribution   :    -46.61390      -4.13376      -2.82003
                        -----------------------------------------
Total Dipole Moment    :     -3.62077      -1.02724      -0.62039
                        -----------------------------------------
Magnitude (a.u.)       :      3.81446
Magnitude (Debye)      :      9.69558

Rotational constants in cm-1:     0.019154     0.010959     0.010324
Rotational constants in MHz :   574.227624   328.539958   309.499824

                             ****ORCA TERMINATED NORMALLY****
TOTAL RUN TIME: 0 days 18 hours 26 minutes 48 seconds 500 msec
