                         Program Version 4.1.2  - RELEASE  -
|  1> ! aug-cc-pVTZ aug-cc-pVTZ/C DLPNO-CCSD(T1) TightSCF NormalPNO UNO MiniPrint AutoAux
|  2> %pal nproc 10 end
|  3> %maxcore 20000
|  4> %mdci
|  5>      density none
|  6> end
|  7>
|  8> * xyz 0 6
|  9>  O     -0.29075200     -0.21932900     -0.72815100
| 10>  C     -1.18129400     -1.14026100     -0.56739200
| 11>  C     -2.75028500     -0.32972900      0.56896900
| 12>  C     -2.65551700      0.89395600     -0.05107500
| 13>  C     -3.38722400      1.19367900     -1.32106700
| 14> Fe      1.44984500      0.14646300     -0.03197200
| 15> Cl      1.96328800      2.07761100     -0.93145300
| 16>  C     -1.75870600      1.97437300      0.43756400
| 17> Cl      2.66693700     -1.56359500     -0.66624400
| 18> Cl      1.25261100      0.27276600      2.16598700
| 19>  H     -3.51394600     -1.00098700      0.17875400
| 20>  H     -2.25414600      2.94940600      0.36962000
| 21>  H     -1.38770700      1.82104200      1.45004400
| 22>  H     -0.88840400      2.02200300     -0.23510200
| 23>  H     -4.04279600      2.05878600     -1.15602900
| 24>  H     -2.68499900      1.48722600     -2.11255200
| 25>  H     -4.00232800      0.36094400     -1.66684600
| 26>  C     -2.42299200     -0.51944000      2.03752500
| 27>  H     -3.13508100      0.05365300      2.64357300
| 28>  H     -2.52137200     -1.56692000      2.32865400
| 29>  H     -1.41692500     -0.18739800      2.30034000
| 30>  C     -0.83784100     -2.28779600      0.36106500
| 31>  H     -1.69032900     -2.94214300      0.55352900
| 32>  H     -0.06706700     -2.86441600     -0.16793600
| 33>  H     -0.40078800     -1.94524400      1.29832100
| 34>  C     -1.88853200     -1.55749800     -1.84320000
| 35>  H     -1.17955300     -2.20037400     -2.38031300
| 36>  H     -2.79725400     -2.13436500     -1.65826000
| 37>  H     -2.10115000     -0.70361200     -2.48455800
| 38> *
| 39>
| 40>
| 41>                          ****END OF INPUT****

CARTESIAN COORDINATES (ANGSTROEM)
---------------------------------
  O     -0.290752   -0.219329   -0.728151
  C     -1.181294   -1.140261   -0.567392
  C     -2.750285   -0.329729    0.568969
  C     -2.655517    0.893956   -0.051075
  C     -3.387224    1.193679   -1.321067
  Fe     1.449845    0.146463   -0.031972
  Cl     1.963288    2.077611   -0.931453
  C     -1.758706    1.974373    0.437564
  Cl     2.666937   -1.563595   -0.666244
  Cl     1.252611    0.272766    2.165987
  H     -3.513946   -1.000987    0.178754
  H     -2.254146    2.949406    0.369620
  H     -1.387707    1.821042    1.450044
  H     -0.888404    2.022003   -0.235102
  H     -4.042796    2.058786   -1.156029
  H     -2.684999    1.487226   -2.112552
  H     -4.002328    0.360944   -1.666846
  C     -2.422992   -0.519440    2.037525
  H     -3.135081    0.053653    2.643573
  H     -2.521372   -1.566920    2.328654
  H     -1.416925   -0.187398    2.300340
  C     -0.837841   -2.287796    0.361065
  H     -1.690329   -2.942143    0.553529
  H     -0.067067   -2.864416   -0.167936
  H     -0.400788   -1.945244    1.298321
  C     -1.888532   -1.557498   -1.843200
  H     -1.179553   -2.200374   -2.380313
  H     -2.797254   -2.134365   -1.658260
  H     -2.101150   -0.703612   -2.484558

ORBITAL ENERGIES
----------------
                 SPIN UP ORBITALS
  NO   OCC          E(Eh)            E(eV)
   0   1.0000    -261.559375     -7117.3924
   1   1.0000    -104.783202     -2851.2959
   2   1.0000    -104.779056     -2851.1831
   3   1.0000    -104.778245     -2851.1610
   4   1.0000     -32.227235      -876.9477
   5   1.0000     -27.703393      -753.8476
   6   1.0000     -27.702770      -753.8307
   7   1.0000     -27.702578      -753.8255
   8   1.0000     -20.577002      -559.9287
   9   1.0000     -11.402371      -310.2743
  10   1.0000     -11.326616      -308.2129
  11   1.0000     -11.270099      -306.6750
  12   1.0000     -11.268574      -306.6335
  13   1.0000     -11.263797      -306.5035
  14   1.0000     -11.258299      -306.3539
  15   1.0000     -11.250588      -306.1441
  16   1.0000     -11.245412      -306.0032
  17   1.0000     -10.509872      -285.9882
  18   1.0000     -10.505711      -285.8749
  19   1.0000     -10.504845      -285.8514
  20   1.0000      -7.976743      -217.0582
  21   1.0000      -7.975912      -217.0356
  22   1.0000      -7.975887      -217.0349
  23   1.0000      -7.972556      -216.9443
  24   1.0000      -7.971813      -216.9241
  25   1.0000      -7.971750      -216.9223
  26   1.0000      -7.971662      -216.9200
  27   1.0000      -7.970956      -216.9007
  28   1.0000      -7.970883      -216.8988
  29   1.0000      -4.582460      -124.6951
  30   1.0000      -3.195289       -86.9482
  31   1.0000      -3.194234       -86.9195
  32   1.0000      -3.193938       -86.9115
  33   1.0000      -1.420876       -38.6640
  34   1.0000      -1.161750       -31.6128
  35   1.0000      -1.086166       -29.5561
  36   1.0000      -1.054687       -28.6995
  37   1.0000      -1.048941       -28.5431
  38   1.0000      -1.046083       -28.4654
  39   1.0000      -1.036575       -28.2066
  40   1.0000      -0.994009       -27.0483
  41   1.0000      -0.985245       -26.8099
  42   1.0000      -0.928505       -25.2659
  43   1.0000      -0.916837       -24.9484
  44   1.0000      -0.911695       -24.8085
  45   1.0000      -0.911634       -24.8068
  46   1.0000      -0.902187       -24.5497
  47   1.0000      -0.901494       -24.5309
  48   1.0000      -0.794534       -21.6204
  49   1.0000      -0.756712       -20.5912
  50   1.0000      -0.690832       -18.7985
  51   1.0000      -0.687791       -18.7157
  52   1.0000      -0.679444       -18.4886
  53   1.0000      -0.667325       -18.1588
  54   1.0000      -0.644214       -17.5300
  55   1.0000      -0.624689       -16.9987
  56   1.0000      -0.602996       -16.4084
  57   1.0000      -0.593354       -16.1460
  58   1.0000      -0.582185       -15.8421
  59   1.0000      -0.575896       -15.6709
  60   1.0000      -0.570733       -15.5304
  61   1.0000      -0.562591       -15.3089
  62   1.0000      -0.555368       -15.1123
  63   1.0000      -0.545590       -14.8463
  64   1.0000      -0.537365       -14.6224
  65   1.0000      -0.521633       -14.1943
  66   1.0000      -0.518213       -14.1013
  67   1.0000      -0.483724       -13.1628
  68   1.0000      -0.467146       -12.7117
  69   1.0000      -0.461143       -12.5483
  70   1.0000      -0.434175       -11.8145
  71   1.0000      -0.430873       -11.7246
  72   1.0000      -0.428706       -11.6657
  73   1.0000      -0.420032       -11.4297
  74   1.0000      -0.418524       -11.3886
  75   1.0000      -0.417765       -11.3680
  76   1.0000      -0.380394       -10.3510
  77   0.0000       0.010080         0.2743
  78   0.0000       0.020534         0.5588
  79   0.0000       0.022435         0.6105
  80   0.0000       0.027500         0.7483
  81   0.0000       0.034291         0.9331

                 SPIN DOWN ORBITALS
  NO   OCC          E(Eh)            E(eV)
   0   1.0000    -261.555817     -7117.2956
   1   1.0000    -104.781792     -2851.2575
   2   1.0000    -104.777567     -2851.1425
   3   1.0000    -104.776790     -2851.1214
   4   1.0000     -32.065174      -872.5378
   5   1.0000     -27.543150      -749.4872
   6   1.0000     -27.543060      -749.4848
   7   1.0000     -27.542757      -749.4765
   8   1.0000     -20.572548      -559.8075
   9   1.0000     -11.402326      -310.2731
  10   1.0000     -11.326369      -308.2062
  11   1.0000     -11.270133      -306.6759
  12   1.0000     -11.268596      -306.6341
  13   1.0000     -11.263685      -306.5004
  14   1.0000     -11.258281      -306.3534
  15   1.0000     -11.250640      -306.1455
  16   1.0000     -11.245411      -306.0032
  17   1.0000     -10.508359      -285.9470
  18   1.0000     -10.504120      -285.8316
  19   1.0000     -10.503293      -285.8091
  20   1.0000      -7.974239      -216.9901
  21   1.0000      -7.973656      -216.9742
  22   1.0000      -7.973593      -216.9725
  23   1.0000      -7.970047      -216.8760
  24   1.0000      -7.969341      -216.8568
  25   1.0000      -7.969260      -216.8546
  26   1.0000      -7.969257      -216.8545
  27   1.0000      -7.968510      -216.8342
  28   1.0000      -7.968418      -216.8317
  29   1.0000      -4.140169      -112.6597
  30   1.0000      -2.661889       -72.4337
  31   1.0000      -2.661849       -72.4326
  32   1.0000      -2.661069       -72.4114
  33   1.0000      -1.409578       -38.3566
  34   1.0000      -1.160920       -31.5902
  35   1.0000      -1.083403       -29.4809
  36   1.0000      -1.040463       -28.3124
  37   1.0000      -1.035871       -28.1875
  38   1.0000      -1.027514       -27.9601
  39   1.0000      -1.024708       -27.8837
  40   1.0000      -0.993473       -27.0338
  41   1.0000      -0.984947       -26.8018
  42   1.0000      -0.918177       -24.9849
  43   1.0000      -0.808268       -21.9941
  44   1.0000      -0.757052       -20.6004
  45   1.0000      -0.693098       -18.8601
  46   1.0000      -0.687227       -18.7004
  47   1.0000      -0.679407       -18.4876
  48   1.0000      -0.666719       -18.1423
  49   1.0000      -0.644070       -17.5260
  50   1.0000      -0.624182       -16.9849
  51   1.0000      -0.602262       -16.3884
  52   1.0000      -0.593401       -16.1473
  53   1.0000      -0.581957       -15.8359
  54   1.0000      -0.575194       -15.6518
  55   1.0000      -0.570318       -15.5192
  56   1.0000      -0.562453       -15.3051
  57   1.0000      -0.555098       -15.1050
  58   1.0000      -0.544981       -14.8297
  59   1.0000      -0.533733       -14.5236
  60   1.0000      -0.518776       -14.1166
  61   1.0000      -0.510905       -13.9024
  62   1.0000      -0.482752       -13.1363
  63   1.0000      -0.472827       -12.8663
  64   1.0000      -0.470117       -12.7925
  65   1.0000      -0.443707       -12.0739
  66   1.0000      -0.440212       -11.9788
  67   1.0000      -0.437826       -11.9138
  68   1.0000      -0.424211       -11.5434
  69   1.0000      -0.417798       -11.3689
  70   1.0000      -0.404140       -10.9972
  71   1.0000      -0.377728       -10.2785
  72   0.0000       0.010072         0.2741
  73   0.0000       0.020504         0.5579
  74   0.0000       0.022430         0.6103
  75   0.0000       0.027165         0.7392
  76   0.0000       0.033765         0.9188

E(0)                                       ...  -3028.433353765
E(0)                                       ...  -3028.433353765
E(CORR)(strong-pairs)                      ...     -2.874185235
E(CORR)(weak-pairs)                        ...     -0.036676084
E(CORR)(corrected)                         ...     -2.910861320
E(TOT)                                     ...  -3031.344215085
E(CCSD(T))                                 ...  -3031.464446228
FINAL SINGLE POINT ENERGY     -3031.464446227631

DIPOLE MOMENT
-------------
                                X             Y             Z
Electronic contribution:     41.91964       5.54455       0.93607
Nuclear contribution   :    -46.29940      -6.24545      -1.38840
                        -----------------------------------------
Total Dipole Moment    :     -4.37975      -0.70089      -0.45233
                        -----------------------------------------
Magnitude (a.u.)       :      4.45848
Magnitude (Debye)      :     11.33256

Rotational constants in cm-1:     0.019219     0.011019     0.010362
Rotational constants in MHz :   576.165787   330.328043   310.645796

                             ****ORCA TERMINATED NORMALLY****
TOTAL RUN TIME: 0 days 20 hours 4 minutes 37 seconds 144 msec
