                         Program Version 4.1.2  - RELEASE  -
|  1> ! aug-cc-pVTZ aug-cc-pVTZ/C DLPNO-CCSD(T1) TightSCF NormalPNO UNO MiniPrint AutoAux
|  2> %pal nproc 10 end
|  3> %maxcore 20000
|  4> %mdci
|  5>      density none
|  6> end
|  7>
|  8> * xyz 0 6
|  9>  O     -0.29537000     -0.19979800     -0.71374800
| 10>  C     -1.12040700     -1.15056300     -0.60449400
| 11>  C     -3.19333200      0.00775700      0.17734000
| 12>  C     -2.40737600      1.03898900     -0.20897400
| 13>  C     -2.43471500      1.56519000     -1.61436800
| 14> Fe      1.46997300      0.09583600      0.05273900
| 15> Cl      2.10380800      1.98769200     -0.82687500
| 16>  C     -1.56379900      1.83766200      0.74050600
| 17> Cl      2.51807100     -1.70188500     -0.64139800
| 18> Cl      1.30227500      0.13701500      2.24302000
| 19>  H     -3.84530700     -0.43134200     -0.57648500
| 20>  H     -2.13839400      2.71511100      1.06893600
| 21>  H     -1.26269500      1.28726900      1.63238400
| 22>  H     -0.66506900      2.21800500      0.24615000
| 23>  H     -2.72166700      2.62457900     -1.59665400
| 24>  H     -1.43540800      1.51965500     -2.06275000
| 25>  H     -3.14876000      1.03511800     -2.25057400
| 26>  C     -3.47204600     -0.41889200      1.59275900
| 27>  H     -4.38365700      0.07553000      1.95530400
| 28>  H     -3.65091200     -1.49657200      1.66610000
| 29>  H     -2.66710700     -0.15899900      2.28459100
| 30>  C     -1.05268200     -2.06796400      0.57726300
| 31>  H     -1.94546900     -2.68497400      0.67823300
| 32>  H     -0.19391300     -2.73010500      0.38808800
| 33>  H     -0.84411100     -1.52662700      1.50036300
| 34>  C     -1.76058900     -1.66163600     -1.86215100
| 35>  H     -1.02581800     -2.35183700     -2.30304400
| 36>  H     -2.67834900     -2.21876900     -1.66956600
| 37>  H     -1.93066100     -0.86061800     -2.58029700
| 38> *
| 39>
| 40>
| 41>                          ****END OF INPUT****

CARTESIAN COORDINATES (ANGSTROEM)
---------------------------------
  O     -0.295370   -0.199798   -0.713748
  C     -1.120407   -1.150563   -0.604494
  C     -3.193332    0.007757    0.177340
  C     -2.407376    1.038989   -0.208974
  C     -2.434715    1.565190   -1.614368
  Fe     1.469973    0.095836    0.052739
  Cl     2.103808    1.987692   -0.826875
  C     -1.563799    1.837662    0.740506
  Cl     2.518071   -1.701885   -0.641398
  Cl     1.302275    0.137015    2.243020
  H     -3.845307   -0.431342   -0.576485
  H     -2.138394    2.715111    1.068936
  H     -1.262695    1.287269    1.632384
  H     -0.665069    2.218005    0.246150
  H     -2.721667    2.624579   -1.596654
  H     -1.435408    1.519655   -2.062750
  H     -3.148760    1.035118   -2.250574
  C     -3.472046   -0.418892    1.592759
  H     -4.383657    0.075530    1.955304
  H     -3.650912   -1.496572    1.666100
  H     -2.667107   -0.158999    2.284591
  C     -1.052682   -2.067964    0.577263
  H     -1.945469   -2.684974    0.678233
  H     -0.193913   -2.730105    0.388088
  H     -0.844111   -1.526627    1.500363
  C     -1.760589   -1.661636   -1.862151
  H     -1.025818   -2.351837   -2.303044
  H     -2.678349   -2.218769   -1.669566
  H     -1.930661   -0.860618   -2.580297

ORBITAL ENERGIES
----------------
                 SPIN UP ORBITALS
  NO   OCC          E(Eh)            E(eV)
   0   1.0000    -261.572603     -7117.7524
   1   1.0000    -104.790688     -2851.4996
   2   1.0000    -104.788655     -2851.4443
   3   1.0000    -104.787425     -2851.4108
   4   1.0000     -32.240326      -877.3039
   5   1.0000     -27.716746      -754.2110
   6   1.0000     -27.715703      -754.1826
   7   1.0000     -27.715550      -754.1784
   8   1.0000     -20.605943      -560.7162
   9   1.0000     -11.422016      -310.8089
  10   1.0000     -11.279345      -306.9266
  11   1.0000     -11.275957      -306.8344
  12   1.0000     -11.270653      -306.6901
  13   1.0000     -11.247985      -306.0732
  14   1.0000     -11.245161      -305.9964
  15   1.0000     -11.242982      -305.9371
  16   1.0000     -11.235205      -305.7255
  17   1.0000     -10.517375      -286.1923
  18   1.0000     -10.515302      -286.1359
  19   1.0000     -10.514027      -286.1012
  20   1.0000      -7.984217      -217.2616
  21   1.0000      -7.983451      -217.2408
  22   1.0000      -7.983406      -217.2395
  23   1.0000      -7.982190      -217.2064
  24   1.0000      -7.981396      -217.1848
  25   1.0000      -7.981317      -217.1827
  26   1.0000      -7.980818      -217.1691
  27   1.0000      -7.980150      -217.1509
  28   1.0000      -7.980094      -217.1494
  29   1.0000      -4.595320      -125.0450
  30   1.0000      -3.208453       -87.3064
  31   1.0000      -3.206791       -87.2612
  32   1.0000      -3.206611       -87.2563
  33   1.0000      -1.456915       -39.6447
  34   1.0000      -1.134492       -30.8711
  35   1.0000      -1.099681       -29.9239
  36   1.0000      -1.063879       -28.9496
  37   1.0000      -1.058407       -28.8007
  38   1.0000      -1.056162       -28.7396
  39   1.0000      -1.024564       -27.8798
  40   1.0000      -1.010813       -27.5056
  41   1.0000      -0.963946       -26.2303
  42   1.0000      -0.940405       -25.5897
  43   1.0000      -0.924429       -25.1550
  44   1.0000      -0.924282       -25.1510
  45   1.0000      -0.913600       -24.8603
  46   1.0000      -0.913443       -24.8560
  47   1.0000      -0.902848       -24.5677
  48   1.0000      -0.809579       -22.0298
  49   1.0000      -0.735205       -20.0059
  50   1.0000      -0.708034       -19.2666
  51   1.0000      -0.700397       -19.0588
  52   1.0000      -0.690092       -18.7784
  53   1.0000      -0.659823       -17.9547
  54   1.0000      -0.626857       -17.0577
  55   1.0000      -0.620914       -16.8959
  56   1.0000      -0.602905       -16.4059
  57   1.0000      -0.600864       -16.3503
  58   1.0000      -0.584825       -15.9139
  59   1.0000      -0.579290       -15.7633
  60   1.0000      -0.560709       -15.2577
  61   1.0000      -0.558324       -15.1928
  62   1.0000      -0.553499       -15.0615
  63   1.0000      -0.542078       -14.7507
  64   1.0000      -0.533440       -14.5157
  65   1.0000      -0.528201       -14.3731
  66   1.0000      -0.500259       -13.6127
  67   1.0000      -0.498232       -13.5576
  68   1.0000      -0.475828       -12.9479
  69   1.0000      -0.472285       -12.8515
  70   1.0000      -0.444480       -12.0949
  71   1.0000      -0.438370       -11.9286
  72   1.0000      -0.436966       -11.8905
  73   1.0000      -0.428408       -11.6576
  74   1.0000      -0.426796       -11.6137
  75   1.0000      -0.426495       -11.6055
  76   1.0000      -0.361843        -9.8463
  77   0.0000       0.012685         0.3452
  78   0.0000       0.023592         0.6420
  79   0.0000       0.023892         0.6501
  80   0.0000       0.030420         0.8278
  81   0.0000       0.039485         1.0744

                 SPIN DOWN ORBITALS
  NO   OCC          E(Eh)            E(eV)
   0   1.0000    -261.569034     -7117.6553
   1   1.0000    -104.789203     -2851.4592
   2   1.0000    -104.787132     -2851.4028
   3   1.0000    -104.785901     -2851.3693
   4   1.0000     -32.078331      -872.8958
   5   1.0000     -27.556258      -749.8439
   6   1.0000     -27.556191      -749.8421
   7   1.0000     -27.556023      -749.8375
   8   1.0000     -20.602288      -560.6167
   9   1.0000     -11.421860      -310.8046
  10   1.0000     -11.279423      -306.9287
  11   1.0000     -11.275856      -306.8316
  12   1.0000     -11.270648      -306.6899
  13   1.0000     -11.247812      -306.0685
  14   1.0000     -11.245178      -305.9968
  15   1.0000     -11.242967      -305.9367
  16   1.0000     -11.235214      -305.7257
  17   1.0000     -10.515788      -286.1491
  18   1.0000     -10.513673      -286.0916
  19   1.0000     -10.512407      -286.0571
  20   1.0000      -7.981701      -217.1931
  21   1.0000      -7.980988      -217.1737
  22   1.0000      -7.980934      -217.1723
  23   1.0000      -7.979544      -217.1344
  24   1.0000      -7.978904      -217.1170
  25   1.0000      -7.978803      -217.1143
  26   1.0000      -7.978397      -217.1032
  27   1.0000      -7.977537      -217.0798
  28   1.0000      -7.977454      -217.0776
  29   1.0000      -4.153163      -113.0133
  30   1.0000      -2.674730       -72.7831
  31   1.0000      -2.674677       -72.7817
  32   1.0000      -2.674277       -72.7708
  33   1.0000      -1.447745       -39.3952
  34   1.0000      -1.134090       -30.8602
  35   1.0000      -1.097250       -29.8577
  36   1.0000      -1.048465       -28.5302
  37   1.0000      -1.036077       -28.1931
  38   1.0000      -1.034060       -28.1382
  39   1.0000      -1.024085       -27.8668
  40   1.0000      -1.010081       -27.4857
  41   1.0000      -0.963802       -26.2264
  42   1.0000      -0.903192       -24.5771
  43   1.0000      -0.822872       -22.3915
  44   1.0000      -0.735256       -20.0073
  45   1.0000      -0.710652       -19.3378
  46   1.0000      -0.699646       -19.0383
  47   1.0000      -0.689084       -18.7509
  48   1.0000      -0.659779       -17.9535
  49   1.0000      -0.626741       -17.0545
  50   1.0000      -0.620485       -16.8843
  51   1.0000      -0.602679       -16.3997
  52   1.0000      -0.600831       -16.3494
  53   1.0000      -0.584465       -15.9041
  54   1.0000      -0.578640       -15.7456
  55   1.0000      -0.560273       -15.2458
  56   1.0000      -0.558057       -15.1855
  57   1.0000      -0.550967       -14.9926
  58   1.0000      -0.542042       -14.7497
  59   1.0000      -0.531861       -14.4727
  60   1.0000      -0.519312       -14.1312
  61   1.0000      -0.500558       -13.6209
  62   1.0000      -0.498129       -13.5548
  63   1.0000      -0.482208       -13.1215
  64   1.0000      -0.480837       -13.0842
  65   1.0000      -0.451685       -12.2910
  66   1.0000      -0.448522       -12.2049
  67   1.0000      -0.445995       -12.1361
  68   1.0000      -0.430127       -11.7044
  69   1.0000      -0.427299       -11.6274
  70   1.0000      -0.411638       -11.2012
  71   1.0000      -0.360890        -9.8203
  72   0.0000       0.012672         0.3448
  73   0.0000       0.023565         0.6412
  74   0.0000       0.023865         0.6494
  75   0.0000       0.030391         0.8270
  76   0.0000       0.039405         1.0723

E(0)                                       ...  -3028.449601214
E(0)                                       ...  -3028.449601214
E(CORR)(strong-pairs)                      ...     -2.869843475
E(CORR)(weak-pairs)                        ...     -0.036118583
E(CORR)(corrected)                         ...     -2.905962058
E(TOT)                                     ...  -3031.355563272
E(CCSD(T))                                 ...  -3031.474112491
FINAL SINGLE POINT ENERGY     -3031.474112491286

DIPOLE MOMENT
-------------
                                X             Y             Z
Electronic contribution:     43.30880       2.76027       2.23202
Nuclear contribution   :    -46.86754      -3.81491      -2.83340
                        -----------------------------------------
Total Dipole Moment    :     -3.55874      -1.05464      -0.60139
                        -----------------------------------------
Magnitude (a.u.)       :      3.76012
Magnitude (Debye)      :      9.55748

Rotational constants in cm-1:     0.019245     0.010895     0.010267
Rotational constants in MHz :   576.960854   326.622339   307.791155

                             ****ORCA TERMINATED NORMALLY****
TOTAL RUN TIME: 0 days 19 hours 2 minutes 42 seconds 89 msec
