                         Program Version 4.1.2  - RELEASE  -
|  1> ! aug-cc-pVTZ aug-cc-pVTZ/C DLPNO-CCSD(T1) TightSCF NormalPNO UNO MiniPrint AutoAux
|  2> %pal nproc 10 end
|  3> %maxcore 20000
|  4> %mdci
|  5>      density none
|  6> end
|  7>
|  8> * xyz 0 6
|  9>  O     -0.29720100     -0.15907300     -0.44429600
| 10>  C     -1.16604200     -1.09383300     -0.18993000
| 11>  C     -2.61716700     -0.22547200      0.87786600
| 12>  C     -3.10921800      0.65363600     -0.07745600
| 13>  C     -4.24391700      0.29447800     -0.97632900
| 14> Fe      1.54653300      0.17141100     -0.10473800
| 15> Cl      1.89090600      2.10342300     -1.07930300
| 16>  C     -2.43003300      1.95281400     -0.30569200
| 17> Cl      2.53133900     -1.57186000     -1.01245600
| 18> Cl      1.85525600      0.25503400      2.07684900
| 19>  H     -3.23068900     -1.11058600      1.04493600
| 20>  H     -2.92743100      2.56908300     -1.05729500
| 21>  H     -2.30802900      2.52413000      0.62076000
| 22>  H     -1.40345900      1.71993700     -0.64791300
| 23>  H     -5.07867600      0.97784900     -0.76301100
| 24>  H     -3.98431700      0.45414600     -2.03033000
| 25>  H     -4.59475800     -0.72968500     -0.83500800
| 26>  C     -1.88928500      0.31024000      2.09994000
| 27>  H     -2.49770100      1.07710600      2.59262800
| 28>  H     -1.70921900     -0.48280700      2.82690600
| 29>  H     -0.92499700      0.75490300      1.84583800
| 30>  C     -0.74621300     -2.14328700      0.83200300
| 31>  H     -1.57394000     -2.78787800      1.13635800
| 32>  H      0.00843500     -2.75985700      0.32627300
| 33>  H     -0.26903800     -1.69728000      1.70392500
| 34>  C     -1.82798700     -1.67585700     -1.42679200
| 35>  H     -1.08591500     -2.33285200     -1.89628000
| 36>  H     -2.71296800     -2.27215700     -1.19042200
| 37>  H     -2.07786800     -0.89663100     -2.14800000
| 38> *
| 39>
| 40>
| 41>                          ****END OF INPUT****

CARTESIAN COORDINATES (ANGSTROEM)
---------------------------------
  O     -0.297201   -0.159073   -0.444296
  C     -1.166042   -1.093833   -0.189930
  C     -2.617167   -0.225472    0.877866
  C     -3.109218    0.653636   -0.077456
  C     -4.243917    0.294478   -0.976329
  Fe     1.546533    0.171411   -0.104738
  Cl     1.890906    2.103423   -1.079303
  C     -2.430033    1.952814   -0.305692
  Cl     2.531339   -1.571860   -1.012456
  Cl     1.855256    0.255034    2.076849
  H     -3.230689   -1.110586    1.044936
  H     -2.927431    2.569083   -1.057295
  H     -2.308029    2.524130    0.620760
  H     -1.403459    1.719937   -0.647913
  H     -5.078676    0.977849   -0.763011
  H     -3.984317    0.454146   -2.030330
  H     -4.594758   -0.729685   -0.835008
  C     -1.889285    0.310240    2.099940
  H     -2.497701    1.077106    2.592628
  H     -1.709219   -0.482807    2.826906
  H     -0.924997    0.754903    1.845838
  C     -0.746213   -2.143287    0.832003
  H     -1.573940   -2.787878    1.136358
  H      0.008435   -2.759857    0.326273
  H     -0.269038   -1.697280    1.703925
  C     -1.827987   -1.675857   -1.426792
  H     -1.085915   -2.332852   -1.896280
  H     -2.712968   -2.272157   -1.190422
  H     -2.077868   -0.896631   -2.148000

ORBITAL ENERGIES
----------------
                 SPIN UP ORBITALS
  NO   OCC          E(Eh)            E(eV)
   0   1.0000    -261.553206     -7117.2246
   1   1.0000    -104.776388     -2851.1105
   2   1.0000    -104.773804     -2851.0401
   3   1.0000    -104.773517     -2851.0324
   4   1.0000     -32.221060      -876.7796
   5   1.0000     -27.697234      -753.6801
   6   1.0000     -27.696567      -753.6619
   7   1.0000     -27.696427      -753.6581
   8   1.0000     -20.569731      -559.7308
   9   1.0000     -11.391826      -309.9874
  10   1.0000     -11.347235      -308.7740
  11   1.0000     -11.284249      -307.0600
  12   1.0000     -11.275508      -306.8222
  13   1.0000     -11.263440      -306.4938
  14   1.0000     -11.259764      -306.3937
  15   1.0000     -11.253172      -306.2144
  16   1.0000     -11.247549      -306.0614
  17   1.0000     -10.503044      -285.8024
  18   1.0000     -10.500437      -285.7314
  19   1.0000     -10.500116      -285.7227
  20   1.0000      -7.969902      -216.8721
  21   1.0000      -7.969101      -216.8503
  22   1.0000      -7.969069      -216.8494
  23   1.0000      -7.967306      -216.8014
  24   1.0000      -7.966929      -216.7912
  25   1.0000      -7.966534      -216.7804
  26   1.0000      -7.966451      -216.7781
  27   1.0000      -7.966243      -216.7725
  28   1.0000      -7.966149      -216.7699
  29   1.0000      -4.576326      -124.5282
  30   1.0000      -3.189196       -86.7824
  31   1.0000      -3.188115       -86.7530
  32   1.0000      -3.187786       -86.7441
  33   1.0000      -1.409059       -38.3424
  34   1.0000      -1.174861       -31.9696
  35   1.0000      -1.081076       -29.4176
  36   1.0000      -1.048253       -28.5244
  37   1.0000      -1.043716       -28.4010
  38   1.0000      -1.041558       -28.3422
  39   1.0000      -1.040642       -28.3173
  40   1.0000      -1.000819       -27.2337
  41   1.0000      -0.985974       -26.8297
  42   1.0000      -0.924155       -25.1475
  43   1.0000      -0.918940       -25.0056
  44   1.0000      -0.905615       -24.6430
  45   1.0000      -0.905595       -24.6425
  46   1.0000      -0.895987       -24.3810
  47   1.0000      -0.895581       -24.3700
  48   1.0000      -0.791803       -21.5461
  49   1.0000      -0.764736       -20.8095
  50   1.0000      -0.692950       -18.8561
  51   1.0000      -0.688540       -18.7361
  52   1.0000      -0.673603       -18.3297
  53   1.0000      -0.668108       -18.1802
  54   1.0000      -0.653907       -17.7937
  55   1.0000      -0.627826       -17.0840
  56   1.0000      -0.604257       -16.4427
  57   1.0000      -0.594368       -16.1736
  58   1.0000      -0.589778       -16.0487
  59   1.0000      -0.577959       -15.7271
  60   1.0000      -0.572476       -15.5779
  61   1.0000      -0.566459       -15.4141
  62   1.0000      -0.559483       -15.2243
  63   1.0000      -0.544177       -14.8078
  64   1.0000      -0.533054       -14.5051
  65   1.0000      -0.525700       -14.3050
  66   1.0000      -0.513062       -13.9611
  67   1.0000      -0.477624       -12.9968
  68   1.0000      -0.462302       -12.5799
  69   1.0000      -0.453340       -12.3360
  70   1.0000      -0.429663       -11.6917
  71   1.0000      -0.425812       -11.5869
  72   1.0000      -0.422886       -11.5073
  73   1.0000      -0.414673       -11.2838
  74   1.0000      -0.412897       -11.2355
  75   1.0000      -0.412374       -11.2213
  76   1.0000      -0.388746       -10.5783
  77   0.0000       0.006663         0.1813
  78   0.0000       0.017547         0.4775
  79   0.0000       0.019553         0.5321
  80   0.0000       0.021704         0.5906
  81   0.0000       0.029700         0.8082

                 SPIN DOWN ORBITALS
  NO   OCC          E(Eh)            E(eV)
   0   1.0000    -261.549646     -7117.1277
   1   1.0000    -104.774956     -2851.0715
   2   1.0000    -104.772341     -2851.0003
   3   1.0000    -104.772072     -2850.9930
   4   1.0000     -32.058979      -872.3692
   5   1.0000     -27.536959      -749.3188
   6   1.0000     -27.536885      -749.3167
   7   1.0000     -27.536550      -749.3076
   8   1.0000     -20.565413      -559.6133
   9   1.0000     -11.391857      -309.9882
  10   1.0000     -11.346469      -308.7531
  11   1.0000     -11.284353      -307.0629
  12   1.0000     -11.275782      -306.8296
  13   1.0000     -11.263536      -306.4964
  14   1.0000     -11.259660      -306.3909
  15   1.0000     -11.253191      -306.2149
  16   1.0000     -11.247543      -306.0612
  17   1.0000     -10.501509      -285.7606
  18   1.0000     -10.498871      -285.6888
  19   1.0000     -10.498573      -285.6807
  20   1.0000      -7.967410      -216.8042
  21   1.0000      -7.966778      -216.7871
  22   1.0000      -7.966716      -216.7854
  23   1.0000      -7.964777      -216.7326
  24   1.0000      -7.964550      -216.7264
  25   1.0000      -7.964137      -216.7152
  26   1.0000      -7.964043      -216.7126
  27   1.0000      -7.963804      -216.7061
  28   1.0000      -7.963704      -216.7034
  29   1.0000      -4.133995      -112.4917
  30   1.0000      -2.655708       -72.2655
  31   1.0000      -2.655648       -72.2639
  32   1.0000      -2.654981       -72.2457
  33   1.0000      -1.398002       -38.0416
  34   1.0000      -1.173125       -31.9224
  35   1.0000      -1.078683       -29.3524
  36   1.0000      -1.042791       -28.3758
  37   1.0000      -1.033096       -28.1120
  38   1.0000      -1.021340       -27.7921
  39   1.0000      -1.019600       -27.7447
  40   1.0000      -1.000710       -27.2307
  41   1.0000      -0.985418       -26.8146
  42   1.0000      -0.921636       -25.0790
  43   1.0000      -0.805744       -21.9254
  44   1.0000      -0.765552       -20.8317
  45   1.0000      -0.693959       -18.8836
  46   1.0000      -0.688261       -18.7285
  47   1.0000      -0.675676       -18.3861
  48   1.0000      -0.666955       -18.1488
  49   1.0000      -0.653580       -17.7848
  50   1.0000      -0.627192       -17.0668
  51   1.0000      -0.603862       -16.4319
  52   1.0000      -0.593878       -16.1602
  53   1.0000      -0.589672       -16.0458
  54   1.0000      -0.577889       -15.7252
  55   1.0000      -0.572276       -15.5724
  56   1.0000      -0.566176       -15.4064
  57   1.0000      -0.559361       -15.2210
  58   1.0000      -0.543504       -14.7895
  59   1.0000      -0.531234       -14.4556
  60   1.0000      -0.524541       -14.2735
  61   1.0000      -0.504591       -13.7306
  62   1.0000      -0.475218       -12.9313
  63   1.0000      -0.466640       -12.6979
  64   1.0000      -0.463967       -12.6252
  65   1.0000      -0.437625       -11.9084
  66   1.0000      -0.434716       -11.8292
  67   1.0000      -0.432648       -11.7729
  68   1.0000      -0.421166       -11.4605
  69   1.0000      -0.412498       -11.2246
  70   1.0000      -0.398230       -10.8364
  71   1.0000      -0.386074       -10.5056
  72   0.0000       0.006668         0.1814
  73   0.0000       0.018077         0.4919
  74   0.0000       0.019615         0.5337
  75   0.0000       0.021733         0.5914
  76   0.0000       0.029653         0.8069

E(0)                                       ...  -3028.430862308
E(0)                                       ...  -3028.430862308
E(CORR)(strong-pairs)                      ...     -2.874706200
E(CORR)(weak-pairs)                        ...     -0.035716239
E(CORR)(corrected)                         ...     -2.910422439
E(TOT)                                     ...  -3031.341284747
E(CCSD(T))                                 ...  -3031.461990578
FINAL SINGLE POINT ENERGY     -3031.461990578332

DIPOLE MOMENT
-------------
                                X             Y             Z
Electronic contribution:     44.27232       5.88343      -1.90812
Nuclear contribution   :    -49.40330      -6.52913       1.87350
                        -----------------------------------------
Total Dipole Moment    :     -5.13098      -0.64569      -0.03461
                        -----------------------------------------
Magnitude (a.u.)       :      5.17156
Magnitude (Debye)      :     13.14506

Rotational constants in cm-1:     0.020078     0.009962     0.009547
Rotational constants in MHz :   601.923652   298.638528   286.203402

                             ****ORCA TERMINATED NORMALLY****
TOTAL RUN TIME: 0 days 19 hours 16 minutes 29 seconds 664 msec
