                         Program Version 4.1.2  - RELEASE  -
|  1> ! aug-cc-pVTZ aug-cc-pVTZ/C DLPNO-CCSD(T1) TightSCF NormalPNO UNO MiniPrint AutoAux
|  2> %pal nproc 10 end
|  3> %maxcore 20000
|  4> %mdci
|  5>      density none
|  6> end
|  7>
|  8> * xyz 0 6
|  9>  O     -0.31550300     -0.15088600     -0.65368800
| 10>  C     -1.16197400     -1.09544900     -0.57055700
| 11>  C     -3.18137600      0.01659700      0.09680000
| 12>  C     -2.34892200      1.04361300     -0.20833900
| 13>  C     -2.30262300      1.63243000     -1.58659800
| 14> Fe      1.46603100      0.08048500      0.05526800
| 15> Cl      2.09750700      1.99021500     -0.79601800
| 16>  C     -1.55690100      1.79016500      0.82362700
| 17> Cl      2.46783200     -1.71864100     -0.70694800
| 18> Cl      1.35360200      0.07792000      2.25187600
| 19>  H     -3.80255100     -0.37452800     -0.70699400
| 20>  H     -2.17618600      2.61510600      1.20331300
| 21>  H     -1.26268400      1.17955300      1.67807500
| 22>  H     -0.65886600      2.23671000      0.38889000
| 23>  H     -2.60752300      2.68556400     -1.52803700
| 24>  H     -1.28007200      1.62188900     -1.97870800
| 25>  H     -2.97458000      1.12808100     -2.28587100
| 26>  C     -3.56935100     -0.42853700      1.48054900
| 27>  H     -4.48887100      0.08851800      1.78707000
| 28>  H     -3.78512200     -1.50104800      1.51908600
| 29>  H     -2.80795600     -0.20580000      2.23171500
| 30>  C     -1.10914700     -2.02670100      0.60306900
| 31>  H     -1.99789700     -2.65244500      0.68350200
| 32>  H     -0.24272500     -2.67978700      0.41778000
| 33>  H     -0.91676000     -1.49610800      1.53579200
| 34>  C     -1.72667200     -1.62372700     -1.85901500
| 35>  H     -0.94667100     -2.28350800     -2.26703900
| 36>  H     -2.63304100     -2.21280100     -1.71146000
| 37>  H     -1.89148500     -0.82666900     -2.58324700
| 38> *
| 39>
| 40>
| 41>                          ****END OF INPUT****

CARTESIAN COORDINATES (ANGSTROEM)
---------------------------------
  O     -0.315503   -0.150886   -0.653688
  C     -1.161974   -1.095449   -0.570557
  C     -3.181376    0.016597    0.096800
  C     -2.348922    1.043613   -0.208339
  C     -2.302623    1.632430   -1.586598
  Fe     1.466031    0.080485    0.055268
  Cl     2.097507    1.990215   -0.796018
  C     -1.556901    1.790165    0.823627
  Cl     2.467832   -1.718641   -0.706948
  Cl     1.353602    0.077920    2.251876
  H     -3.802551   -0.374528   -0.706994
  H     -2.176186    2.615106    1.203313
  H     -1.262684    1.179553    1.678075
  H     -0.658866    2.236710    0.388890
  H     -2.607523    2.685564   -1.528037
  H     -1.280072    1.621889   -1.978708
  H     -2.974580    1.128081   -2.285871
  C     -3.569351   -0.428537    1.480549
  H     -4.488871    0.088518    1.787070
  H     -3.785122   -1.501048    1.519086
  H     -2.807956   -0.205800    2.231715
  C     -1.109147   -2.026701    0.603069
  H     -1.997897   -2.652445    0.683502
  H     -0.242725   -2.679787    0.417780
  H     -0.916760   -1.496108    1.535792
  C     -1.726672   -1.623727   -1.859015
  H     -0.946671   -2.283508   -2.267039
  H     -2.633041   -2.212801   -1.711460
  H     -1.891485   -0.826669   -2.583247

ORBITAL ENERGIES
----------------
                 SPIN UP ORBITALS
  NO   OCC          E(Eh)            E(eV)
   0   1.0000    -261.569474     -7117.6672
   1   1.0000    -104.788455     -2851.4388
   2   1.0000    -104.786942     -2851.3977
   3   1.0000    -104.785776     -2851.3659
   4   1.0000     -32.237236      -877.2198
   5   1.0000     -27.713594      -754.1252
   6   1.0000     -27.712643      -754.0993
   7   1.0000     -27.712507      -754.0956
   8   1.0000     -20.596455      -560.4580
   9   1.0000     -11.420706      -310.7732
  10   1.0000     -11.289860      -307.2127
  11   1.0000     -11.274009      -306.7814
  12   1.0000     -11.268984      -306.6447
  13   1.0000     -11.252276      -306.1900
  14   1.0000     -11.248246      -306.0803
  15   1.0000     -11.245562      -306.0073
  16   1.0000     -11.239221      -305.8347
  17   1.0000     -10.515128      -286.1312
  18   1.0000     -10.513565      -286.0887
  19   1.0000     -10.512364      -286.0560
  20   1.0000      -7.981980      -217.2007
  21   1.0000      -7.981199      -217.1795
  22   1.0000      -7.981158      -217.1783
  23   1.0000      -7.980446      -217.1590
  24   1.0000      -7.979661      -217.1376
  25   1.0000      -7.979577      -217.1353
  26   1.0000      -7.979157      -217.1239
  27   1.0000      -7.978486      -217.1056
  28   1.0000      -7.978423      -217.1039
  29   1.0000      -4.592340      -124.9639
  30   1.0000      -3.205441       -87.2245
  31   1.0000      -3.203891       -87.1823
  32   1.0000      -3.203655       -87.1759
  33   1.0000      -1.450099       -39.4592
  34   1.0000      -1.140578       -31.0367
  35   1.0000      -1.097985       -29.8777
  36   1.0000      -1.061527       -28.8856
  37   1.0000      -1.056129       -28.7387
  38   1.0000      -1.054062       -28.6825
  39   1.0000      -1.027130       -27.9496
  40   1.0000      -1.009295       -27.4643
  41   1.0000      -0.968198       -26.3460
  42   1.0000      -0.938112       -25.5273
  43   1.0000      -0.921602       -25.0781
  44   1.0000      -0.921446       -25.0738
  45   1.0000      -0.911070       -24.7915
  46   1.0000      -0.910837       -24.7851
  47   1.0000      -0.907086       -24.6831
  48   1.0000      -0.805963       -21.9314
  49   1.0000      -0.739733       -20.1292
  50   1.0000      -0.704314       -19.1653
  51   1.0000      -0.698458       -19.0060
  52   1.0000      -0.690711       -18.7952
  53   1.0000      -0.662907       -18.0386
  54   1.0000      -0.630487       -17.1564
  55   1.0000      -0.620330       -16.8800
  56   1.0000      -0.602994       -16.4083
  57   1.0000      -0.600487       -16.3401
  58   1.0000      -0.583790       -15.8857
  59   1.0000      -0.578515       -15.7422
  60   1.0000      -0.563723       -15.3397
  61   1.0000      -0.561728       -15.2854
  62   1.0000      -0.552080       -15.0229
  63   1.0000      -0.544390       -14.8136
  64   1.0000      -0.535940       -14.5837
  65   1.0000      -0.525875       -14.3098
  66   1.0000      -0.504379       -13.7248
  67   1.0000      -0.495851       -13.4928
  68   1.0000      -0.474335       -12.9073
  69   1.0000      -0.469143       -12.7660
  70   1.0000      -0.442603       -12.0438
  71   1.0000      -0.436648       -11.8818
  72   1.0000      -0.435202       -11.8425
  73   1.0000      -0.426791       -11.6136
  74   1.0000      -0.425067       -11.5667
  75   1.0000      -0.424850       -11.5608
  76   1.0000      -0.363882        -9.9017
  77   0.0000       0.012429         0.3382
  78   0.0000       0.023361         0.6357
  79   0.0000       0.023557         0.6410
  80   0.0000       0.030363         0.8262
  81   0.0000       0.039474         1.0741

                 SPIN DOWN ORBITALS
  NO   OCC          E(Eh)            E(eV)
   0   1.0000    -261.565911     -7117.5703
   1   1.0000    -104.786983     -2851.3988
   2   1.0000    -104.785439     -2851.3567
   3   1.0000    -104.784277     -2851.3251
   4   1.0000     -32.075230      -872.8114
   5   1.0000     -27.553152      -749.7594
   6   1.0000     -27.553108      -749.7582
   7   1.0000     -27.552894      -749.7524
   8   1.0000     -20.592586      -560.3528
   9   1.0000     -11.420533      -310.7685
  10   1.0000     -11.289956      -307.2153
  11   1.0000     -11.273910      -306.7787
  12   1.0000     -11.268975      -306.6444
  13   1.0000     -11.252031      -306.1833
  14   1.0000     -11.248272      -306.0810
  15   1.0000     -11.245543      -306.0068
  16   1.0000     -11.239230      -305.8350
  17   1.0000     -10.513554      -286.0883
  18   1.0000     -10.511957      -286.0449
  19   1.0000     -10.510769      -286.0126
  20   1.0000      -7.979461      -217.1322
  21   1.0000      -7.978775      -217.1135
  22   1.0000      -7.978714      -217.1119
  23   1.0000      -7.977837      -217.0880
  24   1.0000      -7.977200      -217.0706
  25   1.0000      -7.977098      -217.0679
  26   1.0000      -7.976757      -217.0586
  27   1.0000      -7.975926      -217.0360
  28   1.0000      -7.975840      -217.0337
  29   1.0000      -4.150142      -112.9311
  30   1.0000      -2.671730       -72.7015
  31   1.0000      -2.671671       -72.6999
  32   1.0000      -2.671291       -72.6895
  33   1.0000      -1.440317       -39.1930
  34   1.0000      -1.140069       -31.0229
  35   1.0000      -1.095472       -29.8093
  36   1.0000      -1.046272       -28.4705
  37   1.0000      -1.034038       -28.1376
  38   1.0000      -1.032374       -28.0923
  39   1.0000      -1.026659       -27.9368
  40   1.0000      -1.008504       -27.4428
  41   1.0000      -0.968077       -26.3427
  42   1.0000      -0.907768       -24.7016
  43   1.0000      -0.819685       -22.3048
  44   1.0000      -0.739780       -20.1304
  45   1.0000      -0.707264       -19.2456
  46   1.0000      -0.698056       -18.9951
  47   1.0000      -0.689213       -18.7544
  48   1.0000      -0.662869       -18.0376
  49   1.0000      -0.630389       -17.1538
  50   1.0000      -0.619961       -16.8700
  51   1.0000      -0.602736       -16.4013
  52   1.0000      -0.600419       -16.3382
  53   1.0000      -0.583378       -15.8745
  54   1.0000      -0.577965       -15.7272
  55   1.0000      -0.563451       -15.3323
  56   1.0000      -0.561579       -15.2813
  57   1.0000      -0.549224       -14.9451
  58   1.0000      -0.544198       -14.8084
  59   1.0000      -0.535184       -14.5631
  60   1.0000      -0.516958       -14.0671
  61   1.0000      -0.504385       -13.7250
  62   1.0000      -0.495125       -13.4730
  63   1.0000      -0.479683       -13.0528
  64   1.0000      -0.478772       -13.0280
  65   1.0000      -0.449725       -12.2376
  66   1.0000      -0.446647       -12.1539
  67   1.0000      -0.444277       -12.0894
  68   1.0000      -0.429056       -11.6752
  69   1.0000      -0.425289       -11.5727
  70   1.0000      -0.410155       -11.1609
  71   1.0000      -0.362711        -9.8699
  72   0.0000       0.012419         0.3380
  73   0.0000       0.023331         0.6349
  74   0.0000       0.023531         0.6403
  75   0.0000       0.030354         0.8260
  76   0.0000       0.039425         1.0728

E(0)                                       ...  -3028.440495002
E(0)                                       ...  -3028.440495002
E(CORR)(strong-pairs)                      ...     -2.870915141
E(CORR)(weak-pairs)                        ...     -0.036499263
E(CORR)(corrected)                         ...     -2.907414404
E(TOT)                                     ...  -3031.347909406
E(CCSD(T))                                 ...  -3031.466816912
FINAL SINGLE POINT ENERGY     -3031.466816911677

DIPOLE MOMENT
-------------
                                X             Y             Z
Electronic contribution:     43.06842       2.46853       2.22942
Nuclear contribution   :    -46.78416      -3.36040      -2.80323
                        -----------------------------------------
Total Dipole Moment    :     -3.71575      -0.89187      -0.57380
                        -----------------------------------------
Magnitude (a.u.)       :      3.86412
Magnitude (Debye)      :      9.82182

Rotational constants in cm-1:     0.019404     0.010976     0.010338
Rotational constants in MHz :   581.727995   329.038991   309.936512

                             ****ORCA TERMINATED NORMALLY****
TOTAL RUN TIME: 0 days 19 hours 19 minutes 35 seconds 344 msec
