                         Program Version 4.1.2  - RELEASE  -
|  1> ! aug-cc-pVTZ aug-cc-pVTZ/C DLPNO-CCSD(T1) TightSCF NormalPNO UNO MiniPrint AutoAux
|  2> %pal nproc 10 end
|  3> %maxcore 20000
|  4> %mdci
|  5>      density none
|  6> end
|  7>
|  8> * xyz 0 6
|  9>  O     -0.31668800     -0.15823400     -0.46362500
| 10>  C     -1.17426900     -1.11351400     -0.25422100
| 11>  C     -2.63780000     -0.29061500      0.83247900
| 12>  C     -3.00630000      0.69734900     -0.06804800
| 13>  C     -4.08021000      0.48107800     -1.08172400
| 14> Fe      1.51864300      0.17563300     -0.09299900
| 15> Cl      1.83915800      2.15008300     -0.99107000
| 16>  C     -2.27310200      1.98306900     -0.11731200
| 17> Cl      2.54425500     -1.51604700     -1.04974900
| 18> Cl      1.79608400      0.18896600      2.09556100
| 19>  H     -3.30011500     -1.15546300      0.86708900
| 20>  H     -2.73550700      2.71133100     -0.78670900
| 21>  H     -2.12749000      2.42325800      0.87380200
| 22>  H     -1.25907700      1.74788400     -0.49361600
| 23>  H     -4.90692900      1.16918900     -0.85328400
| 24>  H     -3.73665000      0.74499300     -2.08971400
| 25>  H     -4.47305100     -0.53735100     -1.08105500
| 26>  C     -1.97165400      0.08342000      2.14545700
| 27>  H     -2.58226900      0.82244300      2.67679000
| 28>  H     -1.87177200     -0.78715500      2.79535400
| 29>  H     -0.97646600      0.50980200      2.00035000
| 30>  C     -0.75249000     -2.20134700      0.72541900
| 31>  H     -1.58035400     -2.85693000      1.00558200
| 32>  H      0.00065700     -2.79824200      0.19462600
| 33>  H     -0.27436300     -1.79039600      1.61368000
| 34>  C     -1.82470200     -1.65400400     -1.51612000
| 35>  H     -1.07567500     -2.29177300     -2.00078200
| 36>  H     -2.70853300     -2.26253600     -1.30778500
| 37>  H     -2.07190400     -0.85329400     -2.21354400
| 38> *
| 39>
| 40>
| 41>                          ****END OF INPUT****

CARTESIAN COORDINATES (ANGSTROEM)
---------------------------------
  O     -0.316688   -0.158234   -0.463625
  C     -1.174269   -1.113514   -0.254221
  C     -2.637800   -0.290615    0.832479
  C     -3.006300    0.697349   -0.068048
  C     -4.080210    0.481078   -1.081724
  Fe     1.518643    0.175633   -0.092999
  Cl     1.839158    2.150083   -0.991070
  C     -2.273102    1.983069   -0.117312
  Cl     2.544255   -1.516047   -1.049749
  Cl     1.796084    0.188966    2.095561
  H     -3.300115   -1.155463    0.867089
  H     -2.735507    2.711331   -0.786709
  H     -2.127490    2.423258    0.873802
  H     -1.259077    1.747884   -0.493616
  H     -4.906929    1.169189   -0.853284
  H     -3.736650    0.744993   -2.089714
  H     -4.473051   -0.537351   -1.081055
  C     -1.971654    0.083420    2.145457
  H     -2.582269    0.822443    2.676790
  H     -1.871772   -0.787155    2.795354
  H     -0.976466    0.509802    2.000350
  C     -0.752490   -2.201347    0.725419
  H     -1.580354   -2.856930    1.005582
  H      0.000657   -2.798242    0.194626
  H     -0.274363   -1.790396    1.613680
  C     -1.824702   -1.654004   -1.516120
  H     -1.075675   -2.291773   -2.000782
  H     -2.708533   -2.262536   -1.307785
  H     -2.071904   -0.853294   -2.213544

ORBITAL ENERGIES
----------------
                 SPIN UP ORBITALS
  NO   OCC          E(Eh)            E(eV)
   0   1.0000    -261.553784     -7117.2403
   1   1.0000    -104.777280     -2851.1347
   2   1.0000    -104.774604     -2851.0619
   3   1.0000    -104.774409     -2851.0566
   4   1.0000     -32.221649      -876.7957
   5   1.0000     -27.697806      -753.6956
   6   1.0000     -27.697172      -753.6784
   7   1.0000     -27.697018      -753.6742
   8   1.0000     -20.568992      -559.7107
   9   1.0000     -11.391863      -309.9883
  10   1.0000     -11.345322      -308.7219
  11   1.0000     -11.282630      -307.0160
  12   1.0000     -11.275676      -306.8267
  13   1.0000     -11.260193      -306.4054
  14   1.0000     -11.259560      -306.3882
  15   1.0000     -11.253307      -306.2181
  16   1.0000     -11.247784      -306.0678
  17   1.0000     -10.503924      -285.8263
  18   1.0000     -10.501233      -285.7531
  19   1.0000     -10.501004      -285.7468
  20   1.0000      -7.970782      -216.8960
  21   1.0000      -7.969977      -216.8741
  22   1.0000      -7.969945      -216.8732
  23   1.0000      -7.968095      -216.8229
  24   1.0000      -7.967820      -216.8154
  25   1.0000      -7.967332      -216.8021
  26   1.0000      -7.967250      -216.7999
  27   1.0000      -7.967126      -216.7965
  28   1.0000      -7.967034      -216.7940
  29   1.0000      -4.576935      -124.5447
  30   1.0000      -3.189786       -86.7985
  31   1.0000      -3.188750       -86.7703
  32   1.0000      -3.188396       -86.7607
  33   1.0000      -1.410084       -38.3703
  34   1.0000      -1.173958       -31.9450
  35   1.0000      -1.081920       -29.4405
  36   1.0000      -1.049048       -28.5461
  37   1.0000      -1.044239       -28.4152
  38   1.0000      -1.041753       -28.3476
  39   1.0000      -1.041389       -28.3376
  40   1.0000      -0.998916       -27.1819
  41   1.0000      -0.985849       -26.8263
  42   1.0000      -0.925260       -25.1776
  43   1.0000      -0.918847       -25.0031
  44   1.0000      -0.906257       -24.6605
  45   1.0000      -0.906227       -24.6597
  46   1.0000      -0.896676       -24.3998
  47   1.0000      -0.896288       -24.3892
  48   1.0000      -0.791694       -21.5431
  49   1.0000      -0.764303       -20.7977
  50   1.0000      -0.693307       -18.8658
  51   1.0000      -0.688755       -18.7420
  52   1.0000      -0.673809       -18.3353
  53   1.0000      -0.668228       -18.1834
  54   1.0000      -0.653006       -17.7692
  55   1.0000      -0.626741       -17.0545
  56   1.0000      -0.603265       -16.4157
  57   1.0000      -0.595606       -16.2073
  58   1.0000      -0.588161       -16.0047
  59   1.0000      -0.577531       -15.7154
  60   1.0000      -0.571708       -15.5570
  61   1.0000      -0.566813       -15.4238
  62   1.0000      -0.558356       -15.1937
  63   1.0000      -0.543806       -14.7977
  64   1.0000      -0.533381       -14.5140
  65   1.0000      -0.524797       -14.2804
  66   1.0000      -0.513938       -13.9850
  67   1.0000      -0.478138       -13.0108
  68   1.0000      -0.463215       -12.6047
  69   1.0000      -0.454009       -12.3542
  70   1.0000      -0.430260       -11.7080
  71   1.0000      -0.426620       -11.6089
  72   1.0000      -0.423759       -11.5311
  73   1.0000      -0.415568       -11.3082
  74   1.0000      -0.413743       -11.2585
  75   1.0000      -0.413259       -11.2454
  76   1.0000      -0.388534       -10.5725
  77   0.0000       0.007263         0.1976
  78   0.0000       0.019219         0.5230
  79   0.0000       0.020084         0.5465
  80   0.0000       0.022763         0.6194
  81   0.0000       0.030497         0.8299

                 SPIN DOWN ORBITALS
  NO   OCC          E(Eh)            E(eV)
   0   1.0000    -261.550226     -7117.1435
   1   1.0000    -104.775855     -2851.0960
   2   1.0000    -104.773140     -2851.0221
   3   1.0000    -104.772969     -2851.0174
   4   1.0000     -32.059575      -872.3854
   5   1.0000     -27.537560      -749.3351
   6   1.0000     -27.537473      -749.3327
   7   1.0000     -27.537137      -749.3236
   8   1.0000     -20.564517      -559.5890
   9   1.0000     -11.391860      -309.9883
  10   1.0000     -11.344787      -308.7073
  11   1.0000     -11.282703      -307.0180
  12   1.0000     -11.275807      -306.8303
  13   1.0000     -11.260265      -306.4074
  14   1.0000     -11.259455      -306.3853
  15   1.0000     -11.253311      -306.2182
  16   1.0000     -11.247788      -306.0679
  17   1.0000     -10.502395      -285.7847
  18   1.0000     -10.499666      -285.7104
  19   1.0000     -10.499467      -285.7050
  20   1.0000      -7.968291      -216.8282
  21   1.0000      -7.967671      -216.8114
  22   1.0000      -7.967604      -216.8095
  23   1.0000      -7.965580      -216.7544
  24   1.0000      -7.965439      -216.7506
  25   1.0000      -7.964924      -216.7366
  26   1.0000      -7.964832      -216.7341
  27   1.0000      -7.964705      -216.7307
  28   1.0000      -7.964605      -216.7279
  29   1.0000      -4.134615      -112.5086
  30   1.0000      -2.656329       -72.2824
  31   1.0000      -2.656284       -72.2812
  32   1.0000      -2.655595       -72.2624
  33   1.0000      -1.398645       -38.0591
  34   1.0000      -1.172560       -31.9070
  35   1.0000      -1.079376       -29.3713
  36   1.0000      -1.042504       -28.3680
  37   1.0000      -1.033909       -28.1341
  38   1.0000      -1.022212       -27.8158
  39   1.0000      -1.020492       -27.7690
  40   1.0000      -0.998812       -27.1791
  41   1.0000      -0.985217       -26.8091
  42   1.0000      -0.922101       -25.0916
  43   1.0000      -0.805562       -21.9205
  44   1.0000      -0.765027       -20.8175
  45   1.0000      -0.694382       -18.8951
  46   1.0000      -0.688378       -18.7317
  47   1.0000      -0.675580       -18.3835
  48   1.0000      -0.667169       -18.1546
  49   1.0000      -0.652682       -17.7604
  50   1.0000      -0.626148       -17.0383
  51   1.0000      -0.602939       -16.4068
  52   1.0000      -0.595117       -16.1940
  53   1.0000      -0.587990       -16.0000
  54   1.0000      -0.577407       -15.7120
  55   1.0000      -0.571527       -15.5520
  56   1.0000      -0.566368       -15.4117
  57   1.0000      -0.558226       -15.1901
  58   1.0000      -0.543187       -14.7809
  59   1.0000      -0.531424       -14.4608
  60   1.0000      -0.523232       -14.2379
  61   1.0000      -0.505477       -13.7547
  62   1.0000      -0.475772       -12.9464
  63   1.0000      -0.467440       -12.7197
  64   1.0000      -0.464417       -12.6374
  65   1.0000      -0.438477       -11.9316
  66   1.0000      -0.435437       -11.8488
  67   1.0000      -0.433467       -11.7952
  68   1.0000      -0.421978       -11.4826
  69   1.0000      -0.413381       -11.2487
  70   1.0000      -0.399152       -10.8615
  71   1.0000      -0.385607       -10.4929
  72   0.0000       0.007270         0.1978
  73   0.0000       0.019261         0.5241
  74   0.0000       0.020177         0.5490
  75   0.0000       0.022666         0.6168
  76   0.0000       0.030357         0.8260

E(0)                                       ...  -3028.430784895
E(0)                                       ...  -3028.430784895
E(CORR)(strong-pairs)                      ...     -2.875241901
E(CORR)(weak-pairs)                        ...     -0.035617786
E(CORR)(corrected)                         ...     -2.910859688
E(TOT)                                     ...  -3031.341644583
E(CCSD(T))                                 ...  -3031.462297373
FINAL SINGLE POINT ENERGY     -3031.462297373019

DIPOLE MOMENT
-------------
                                X             Y             Z
Electronic contribution:     43.50787       6.14116      -1.51463
Nuclear contribution   :    -48.49981      -6.79880       1.41732
                        -----------------------------------------
Total Dipole Moment    :     -4.99195      -0.65765      -0.09730
                        -----------------------------------------
Magnitude (a.u.)       :      5.03602
Magnitude (Debye)      :     12.80055

Rotational constants in cm-1:     0.019791     0.010229     0.009782
Rotational constants in MHz :   593.327722   306.666299   293.248296

                             ****ORCA TERMINATED NORMALLY****
TOTAL RUN TIME: 0 days 21 hours 17 minutes 49 seconds 717 msec
