                         Program Version 4.1.2  - RELEASE  -
|  1> ! aug-cc-pVTZ aug-cc-pVTZ/C DLPNO-CCSD(T1) TightSCF NormalPNO UNO MiniPrint AutoAux
|  2> %pal nproc 10 end
|  3> %maxcore 20000
|  4> %mdci
|  5>      density none
|  6> end
|  7>
|  8> * xyz 0 6
|  9>  O      0.21938800      0.32015600     -0.84307200
| 10>  C      1.06068300      1.24551100     -0.65716100
| 11>  C      2.92236300      0.22841500      0.56846900
| 12>  C      2.67597900     -0.92197400     -0.10503100
| 13>  C      3.27989200     -1.19445000     -1.45258900
| 14> Fe     -1.47702500     -0.15785400     -0.00818800
| 15> Cl     -2.03417200     -2.03347800     -0.96748800
| 16>  C      1.76617600     -1.99812600      0.40039100
| 17> Cl     -2.71771500      1.57859800     -0.49515800
| 18> Cl     -1.13234400     -0.35145000      2.15579300
| 19>  H      3.64410500      0.91405200      0.12601300
| 20>  H      2.30038800     -2.95613600      0.44029900
| 21>  H      1.34662200     -1.79328900      1.38465900
| 22>  H      0.93421000     -2.13986600     -0.30317200
| 23>  H      3.86515900     -2.12223000     -1.41257200
| 24>  H      2.49702800     -1.35785500     -2.20552300
| 25>  H      3.94215300     -0.39268500     -1.78889100
| 26>  C      2.63089700      0.45497200      2.03228700
| 27>  H      3.38710200     -0.05893700      2.64021700
| 28>  H      2.68484700      1.51510800      2.29213300
| 29>  H      1.65236800      0.08064100      2.34074500
| 30>  C      0.82660900      2.26011800      0.42440400
| 31>  H      1.70770400      2.87208100      0.62026900
| 32>  H      0.02738300      2.91178800      0.04112600
| 33>  H      0.45899200      1.80564600      1.34395000
| 34>  C      1.86329700      1.68095600     -1.85271000
| 35>  H      1.22668100      2.39925500     -2.38911500
| 36>  H      2.78738700      2.19136600     -1.57864200
| 37>  H      2.06195800      0.84906600     -2.52588000
| 38> *
| 39>
| 40>
| 41>                          ****END OF INPUT****

CARTESIAN COORDINATES (ANGSTROEM)
---------------------------------
  O      0.219388    0.320156   -0.843072
  C      1.060683    1.245511   -0.657161
  C      2.922363    0.228415    0.568469
  C      2.675979   -0.921974   -0.105031
  C      3.279892   -1.194450   -1.452589
  Fe    -1.477025   -0.157854   -0.008188
  Cl    -2.034172   -2.033478   -0.967488
  C      1.766176   -1.998126    0.400391
  Cl    -2.717715    1.578598   -0.495158
  Cl    -1.132344   -0.351450    2.155793
  H      3.644105    0.914052    0.126013
  H      2.300388   -2.956136    0.440299
  H      1.346622   -1.793289    1.384659
  H      0.934210   -2.139866   -0.303172
  H      3.865159   -2.122230   -1.412572
  H      2.497028   -1.357855   -2.205523
  H      3.942153   -0.392685   -1.788891
  C      2.630897    0.454972    2.032287
  H      3.387102   -0.058937    2.640217
  H      2.684847    1.515108    2.292133
  H      1.652368    0.080641    2.340745
  C      0.826609    2.260118    0.424404
  H      1.707704    2.872081    0.620269
  H      0.027383    2.911788    0.041126
  H      0.458992    1.805646    1.343950
  C      1.863297    1.680956   -1.852710
  H      1.226681    2.399255   -2.389115
  H      2.787387    2.191366   -1.578642
  H      2.061958    0.849066   -2.525880

ORBITAL ENERGIES
----------------
                 SPIN UP ORBITALS
  NO   OCC          E(Eh)            E(eV)
   0   1.0000    -261.571498     -7117.7223
   1   1.0000    -104.791373     -2851.5182
   2   1.0000    -104.787689     -2851.4180
   3   1.0000    -104.785662     -2851.3628
   4   1.0000     -32.239261      -877.2749
   5   1.0000     -27.715656      -754.1813
   6   1.0000     -27.714655      -754.1541
   7   1.0000     -27.714456      -754.1487
   8   1.0000     -20.610136      -560.8303
   9   1.0000     -11.419369      -310.7368
  10   1.0000     -11.281030      -306.9724
  11   1.0000     -11.274884      -306.8052
  12   1.0000     -11.269847      -306.6681
  13   1.0000     -11.250358      -306.1378
  14   1.0000     -11.250110      -306.1310
  15   1.0000     -11.238396      -305.8123
  16   1.0000     -11.234804      -305.7146
  17   1.0000     -10.518081      -286.2115
  18   1.0000     -10.514368      -286.1105
  19   1.0000     -10.512292      -286.0540
  20   1.0000      -7.984924      -217.2808
  21   1.0000      -7.984147      -217.2597
  22   1.0000      -7.984107      -217.2586
  23   1.0000      -7.981234      -217.1804
  24   1.0000      -7.980468      -217.1596
  25   1.0000      -7.980413      -217.1581
  26   1.0000      -7.979091      -217.1221
  27   1.0000      -7.978419      -217.1038
  28   1.0000      -7.978362      -217.1023
  29   1.0000      -4.594245      -125.0158
  30   1.0000      -3.207337       -87.2761
  31   1.0000      -3.205733       -87.2324
  32   1.0000      -3.205547       -87.2274
  33   1.0000      -1.453801       -39.5599
  34   1.0000      -1.135394       -30.8956
  35   1.0000      -1.097051       -29.8523
  36   1.0000      -1.063941       -28.9513
  37   1.0000      -1.058043       -28.7908
  38   1.0000      -1.054900       -28.7053
  39   1.0000      -1.024795       -27.8861
  40   1.0000      -1.006988       -27.4015
  41   1.0000      -0.965335       -26.2681
  42   1.0000      -0.939331       -25.5605
  43   1.0000      -0.923257       -25.1231
  44   1.0000      -0.923138       -25.1199
  45   1.0000      -0.912830       -24.8394
  46   1.0000      -0.912080       -24.8190
  47   1.0000      -0.901824       -24.5399
  48   1.0000      -0.809275       -22.0215
  49   1.0000      -0.737105       -20.0576
  50   1.0000      -0.706220       -19.2172
  51   1.0000      -0.696473       -18.9520
  52   1.0000      -0.683443       -18.5974
  53   1.0000      -0.660954       -17.9855
  54   1.0000      -0.627076       -17.0636
  55   1.0000      -0.621414       -16.9095
  56   1.0000      -0.605465       -16.4755
  57   1.0000      -0.598231       -16.2787
  58   1.0000      -0.584584       -15.9073
  59   1.0000      -0.576614       -15.6905
  60   1.0000      -0.561147       -15.2696
  61   1.0000      -0.556485       -15.1427
  62   1.0000      -0.546372       -14.8675
  63   1.0000      -0.545858       -14.8535
  64   1.0000      -0.534905       -14.5555
  65   1.0000      -0.529314       -14.4034
  66   1.0000      -0.500867       -13.6293
  67   1.0000      -0.497837       -13.5468
  68   1.0000      -0.474567       -12.9136
  69   1.0000      -0.472723       -12.8634
  70   1.0000      -0.443750       -12.0750
  71   1.0000      -0.438089       -11.9210
  72   1.0000      -0.436141       -11.8680
  73   1.0000      -0.427612       -11.6359
  74   1.0000      -0.426447       -11.6042
  75   1.0000      -0.425136       -11.5685
  76   1.0000      -0.364507        -9.9187
  77   0.0000       0.012270         0.3339
  78   0.0000       0.022864         0.6222
  79   0.0000       0.023756         0.6464
  80   0.0000       0.030240         0.8229
  81   0.0000       0.038897         1.0584

                 SPIN DOWN ORBITALS
  NO   OCC          E(Eh)            E(eV)
   0   1.0000    -261.567924     -7117.6251
   1   1.0000    -104.789907     -2851.4783
   2   1.0000    -104.786148     -2851.3760
   3   1.0000    -104.784123     -2851.3210
   4   1.0000     -32.077244      -872.8662
   5   1.0000     -27.555155      -749.8139
   6   1.0000     -27.555103      -749.8125
   7   1.0000     -27.554958      -749.8085
   8   1.0000     -20.606400      -560.7287
   9   1.0000     -11.419280      -310.7344
  10   1.0000     -11.280987      -306.9713
  11   1.0000     -11.274773      -306.8022
  12   1.0000     -11.269834      -306.6678
  13   1.0000     -11.250350      -306.1376
  14   1.0000     -11.250115      -306.1312
  15   1.0000     -11.238394      -305.8123
  16   1.0000     -11.234824      -305.7151
  17   1.0000     -10.516513      -286.1689
  18   1.0000     -10.512722      -286.0657
  19   1.0000     -10.510656      -286.0095
  20   1.0000      -7.982421      -217.2127
  21   1.0000      -7.981725      -217.1938
  22   1.0000      -7.981683      -217.1926
  23   1.0000      -7.978619      -217.1093
  24   1.0000      -7.977918      -217.0902
  25   1.0000      -7.977831      -217.0878
  26   1.0000      -7.976638      -217.0554
  27   1.0000      -7.975783      -217.0321
  28   1.0000      -7.975697      -217.0298
  29   1.0000      -4.152087      -112.9840
  30   1.0000      -2.673675       -72.7544
  31   1.0000      -2.673643       -72.7535
  32   1.0000      -2.673121       -72.7393
  33   1.0000      -1.444535       -39.3078
  34   1.0000      -1.135026       -30.8856
  35   1.0000      -1.094503       -29.7829
  36   1.0000      -1.048483       -28.5307
  37   1.0000      -1.036021       -28.1916
  38   1.0000      -1.032519       -28.0963
  39   1.0000      -1.024228       -27.8707
  40   1.0000      -1.006328       -27.3836
  41   1.0000      -0.965253       -26.2659
  42   1.0000      -0.902057       -24.5462
  43   1.0000      -0.822912       -22.3926
  44   1.0000      -0.737188       -20.0599
  45   1.0000      -0.708601       -19.2820
  46   1.0000      -0.695515       -18.9259
  47   1.0000      -0.682768       -18.5791
  48   1.0000      -0.660865       -17.9831
  49   1.0000      -0.627040       -17.0626
  50   1.0000      -0.620915       -16.8959
  51   1.0000      -0.605095       -16.4655
  52   1.0000      -0.598108       -16.2753
  53   1.0000      -0.584289       -15.8993
  54   1.0000      -0.575122       -15.6499
  55   1.0000      -0.560676       -15.2568
  56   1.0000      -0.556309       -15.1379
  57   1.0000      -0.545896       -14.8546
  58   1.0000      -0.544568       -14.8185
  59   1.0000      -0.530948       -14.4478
  60   1.0000      -0.521128       -14.1806
  61   1.0000      -0.501333       -13.6420
  62   1.0000      -0.498690       -13.5700
  63   1.0000      -0.482333       -13.1250
  64   1.0000      -0.479561       -13.0495
  65   1.0000      -0.451630       -12.2895
  66   1.0000      -0.448110       -12.1937
  67   1.0000      -0.445351       -12.1186
  68   1.0000      -0.429413       -11.6849
  69   1.0000      -0.426096       -11.5947
  70   1.0000      -0.410979       -11.1833
  71   1.0000      -0.363611        -9.8944
  72   0.0000       0.012254         0.3335
  73   0.0000       0.022839         0.6215
  74   0.0000       0.023725         0.6456
  75   0.0000       0.030127         0.8198
  76   0.0000       0.038713         1.0534

E(0)                                       ...  -3028.455341027
E(0)                                       ...  -3028.455341027
E(CORR)(strong-pairs)                      ...     -2.869493844
E(CORR)(weak-pairs)                        ...     -0.036178586
E(CORR)(corrected)                         ...     -2.905672429
E(TOT)                                     ...  -3031.361013457
E(CCSD(T))                                 ...  -3031.479633146
FINAL SINGLE POINT ENERGY     -3031.479633146435

DIPOLE MOMENT
-------------
                                X             Y             Z
Electronic contribution:    -43.22028      -4.99417       1.27843
Nuclear contribution   :     46.82462       6.24424      -1.87696
                        -----------------------------------------
Total Dipole Moment    :      3.60434       1.25007      -0.59853
                        -----------------------------------------
Magnitude (a.u.)       :      3.86163
Magnitude (Debye)      :      9.81548

Rotational constants in cm-1:     0.019006     0.010794     0.010157
Rotational constants in MHz :   569.784378   323.583623   304.487687

                             ****ORCA TERMINATED NORMALLY****
TOTAL RUN TIME: 0 days 17 hours 33 minutes 1 seconds 170 msec
