                         Program Version 4.1.2  - RELEASE  -
|  1> ! aug-cc-pVTZ aug-cc-pVTZ/C DLPNO-CCSD(T1) TightSCF NormalPNO UNO MiniPrint AutoAux
|  2> %pal nproc 10 end
|  3> %maxcore 20000
|  4> %mdci
|  5>      density none
|  6> end
|  7>
|  8> * xyz 0 6
|  9>  O     -0.30645500     -0.13055300     -0.42912400
| 10>  C     -1.19559600     -1.07355100     -0.20406400
| 11>  C     -2.58416600     -0.29065800      0.82983900
| 12>  C     -3.07028700      0.66929500     -0.06653400
| 13>  C     -4.20316200      0.38346200     -0.98896100
| 14> Fe      1.53037400      0.17186200     -0.09924900
| 15> Cl      1.86586700      2.14429200     -1.00379800
| 16>  C     -2.36522600      1.95772100     -0.20892800
| 17> Cl      2.52757800     -1.53080200     -1.07177500
| 18> Cl      1.84580200      0.18563200      2.08703300
| 19>  H     -3.23600900     -1.15765200      0.94235600
| 20>  H     -2.84053900      2.63856600     -0.91724900
| 21>  H     -2.20700300      2.45790400      0.75206500
| 22>  H     -1.34682700      1.69818400     -0.56862000
| 23>  H     -5.03572600      1.04904000     -0.71611500
| 24>  H     -3.94496800      0.63376700     -2.02546100
| 25>  H     -4.55460300     -0.64815600     -0.93190400
| 26>  C     -1.91333800      0.17687800      2.11645600
| 27>  H     -2.54748600      0.90985300      2.62695100
| 28>  H     -1.76322300     -0.66035600      2.79921700
| 29>  H     -0.93975300      0.63423500      1.92991400
| 30>  C     -0.74446200     -2.17883200      0.75149400
| 31>  H     -1.56333700     -2.84520400      1.03412800
| 32>  H      0.00695900     -2.75998200      0.20293300
| 33>  H     -0.25981600     -1.77636800      1.64049200
| 34>  C     -1.81636800     -1.62294700     -1.48239000
| 35>  H     -1.05051300     -2.23927000     -1.96634400
| 36>  H     -2.69115900     -2.25039400     -1.28907700
| 37>  H     -2.07565000     -0.82142600     -2.17612700
| 38> *
| 39>
| 40>
| 41>                          ****END OF INPUT****

CARTESIAN COORDINATES (ANGSTROEM)
---------------------------------
  O     -0.306455   -0.130553   -0.429124
  C     -1.195596   -1.073551   -0.204064
  C     -2.584166   -0.290658    0.829839
  C     -3.070287    0.669295   -0.066534
  C     -4.203162    0.383462   -0.988961
  Fe     1.530374    0.171862   -0.099249
  Cl     1.865867    2.144292   -1.003798
  C     -2.365226    1.957721   -0.208928
  Cl     2.527578   -1.530802   -1.071775
  Cl     1.845802    0.185632    2.087033
  H     -3.236009   -1.157652    0.942356
  H     -2.840539    2.638566   -0.917249
  H     -2.207003    2.457904    0.752065
  H     -1.346827    1.698184   -0.568620
  H     -5.035726    1.049040   -0.716115
  H     -3.944968    0.633767   -2.025461
  H     -4.554603   -0.648156   -0.931904
  C     -1.913338    0.176878    2.116456
  H     -2.547486    0.909853    2.626951
  H     -1.763223   -0.660356    2.799217
  H     -0.939753    0.634235    1.929914
  C     -0.744462   -2.178832    0.751494
  H     -1.563337   -2.845204    1.034128
  H      0.006959   -2.759982    0.202933
  H     -0.259816   -1.776368    1.640492
  C     -1.816368   -1.622947   -1.482390
  H     -1.050513   -2.239270   -1.966344
  H     -2.691159   -2.250394   -1.289077
  H     -2.075650   -0.821426   -2.176127

ORBITAL ENERGIES
----------------
                 SPIN UP ORBITALS
  NO   OCC          E(Eh)            E(eV)
   0   1.0000    -261.547635     -7117.0730
   1   1.0000    -104.772681     -2851.0096
   2   1.0000    -104.770310     -2850.9451
   3   1.0000    -104.769841     -2850.9323
   4   1.0000     -32.215525      -876.6290
   5   1.0000     -27.691596      -753.5266
   6   1.0000     -27.691095      -753.5130
   7   1.0000     -27.690939      -753.5087
   8   1.0000     -20.557079      -559.3866
   9   1.0000     -11.378709      -309.6304
  10   1.0000     -11.367307      -309.3201
  11   1.0000     -11.293300      -307.3063
  12   1.0000     -11.282217      -307.0047
  13   1.0000     -11.269895      -306.6694
  14   1.0000     -11.254427      -306.2485
  15   1.0000     -11.250361      -306.1379
  16   1.0000     -11.246383      -306.0296
  17   1.0000     -10.499325      -285.7012
  18   1.0000     -10.496906      -285.6353
  19   1.0000     -10.496470      -285.6235
  20   1.0000      -7.966189      -216.7710
  21   1.0000      -7.965380      -216.7490
  22   1.0000      -7.965338      -216.7479
  23   1.0000      -7.963724      -216.7039
  24   1.0000      -7.963332      -216.6933
  25   1.0000      -7.963026      -216.6849
  26   1.0000      -7.962929      -216.6823
  27   1.0000      -7.962566      -216.6724
  28   1.0000      -7.962484      -216.6702
  29   1.0000      -4.570876      -124.3799
  30   1.0000      -3.183611       -86.6305
  31   1.0000      -3.182806       -86.6085
  32   1.0000      -3.182397       -86.5974
  33   1.0000      -1.394760       -37.9533
  34   1.0000      -1.185763       -32.2663
  35   1.0000      -1.080219       -29.3943
  36   1.0000      -1.045914       -28.4608
  37   1.0000      -1.043945       -28.4072
  38   1.0000      -1.038650       -28.2631
  39   1.0000      -1.036724       -28.2107
  40   1.0000      -1.009941       -27.4819
  41   1.0000      -0.979117       -26.6431
  42   1.0000      -0.927535       -25.2395
  43   1.0000      -0.914600       -24.8875
  44   1.0000      -0.900266       -24.4975
  45   1.0000      -0.900253       -24.4971
  46   1.0000      -0.891062       -24.2470
  47   1.0000      -0.890662       -24.2362
  48   1.0000      -0.790897       -21.5214
  49   1.0000      -0.769012       -20.9259
  50   1.0000      -0.700762       -19.0687
  51   1.0000      -0.691585       -18.8190
  52   1.0000      -0.668132       -18.1808
  53   1.0000      -0.662573       -18.0295
  54   1.0000      -0.655506       -17.8372
  55   1.0000      -0.631368       -17.1804
  56   1.0000      -0.604373       -16.4458
  57   1.0000      -0.597084       -16.2475
  58   1.0000      -0.591759       -16.1026
  59   1.0000      -0.578868       -15.7518
  60   1.0000      -0.577067       -15.7028
  61   1.0000      -0.564014       -15.3476
  62   1.0000      -0.558794       -15.2055
  63   1.0000      -0.541892       -14.7456
  64   1.0000      -0.534402       -14.5418
  65   1.0000      -0.524123       -14.2621
  66   1.0000      -0.508298       -13.8315
  67   1.0000      -0.471616       -12.8333
  68   1.0000      -0.459226       -12.4962
  69   1.0000      -0.447791       -12.1850
  70   1.0000      -0.426295       -11.6001
  71   1.0000      -0.423043       -11.5116
  72   1.0000      -0.419391       -11.4122
  73   1.0000      -0.411309       -11.1923
  74   1.0000      -0.409421       -11.1409
  75   1.0000      -0.408976       -11.1288
  76   1.0000      -0.396737       -10.7958
  77   0.0000       0.004514         0.1228
  78   0.0000       0.010386         0.2826
  79   0.0000       0.018438         0.5017
  80   0.0000       0.019670         0.5353
  81   0.0000       0.028301         0.7701

                 SPIN DOWN ORBITALS
  NO   OCC          E(Eh)            E(eV)
   0   1.0000    -261.544079     -7116.9762
   1   1.0000    -104.771277     -2850.9714
   2   1.0000    -104.768900     -2850.9067
   3   1.0000    -104.768396     -2850.8930
   4   1.0000     -32.053437      -872.2184
   5   1.0000     -27.531449      -749.1688
   6   1.0000     -27.531349      -749.1661
   7   1.0000     -27.530954      -749.1554
   8   1.0000     -20.552199      -559.2538
   9   1.0000     -11.378688      -309.6298
  10   1.0000     -11.367023      -309.3124
  11   1.0000     -11.293339      -307.3074
  12   1.0000     -11.282166      -307.0034
  13   1.0000     -11.269933      -306.6705
  14   1.0000     -11.254322      -306.2457
  15   1.0000     -11.250387      -306.1386
  16   1.0000     -11.246374      -306.0294
  17   1.0000     -10.497818      -285.6601
  18   1.0000     -10.495398      -285.5943
  19   1.0000     -10.494921      -285.5813
  20   1.0000      -7.963715      -216.7037
  21   1.0000      -7.963117      -216.6874
  22   1.0000      -7.963049      -216.6856
  23   1.0000      -7.961373      -216.6400
  24   1.0000      -7.960838      -216.6254
  25   1.0000      -7.960666      -216.6207
  26   1.0000      -7.960563      -216.6179
  27   1.0000      -7.960194      -216.6079
  28   1.0000      -7.960106      -216.6055
  29   1.0000      -4.128542      -112.3434
  30   1.0000      -2.650314       -72.1187
  31   1.0000      -2.650262       -72.1173
  32   1.0000      -2.649478       -72.0960
  33   1.0000      -1.382259       -37.6132
  34   1.0000      -1.184640       -32.2357
  35   1.0000      -1.077652       -29.3244
  36   1.0000      -1.045192       -28.4411
  37   1.0000      -1.029397       -28.0113
  38   1.0000      -1.017771       -27.6950
  39   1.0000      -1.016073       -27.6488
  40   1.0000      -1.009689       -27.4750
  41   1.0000      -0.978493       -26.6262
  42   1.0000      -0.926782       -25.2190
  43   1.0000      -0.802109       -21.8265
  44   1.0000      -0.771938       -21.0055
  45   1.0000      -0.701317       -19.0838
  46   1.0000      -0.690931       -18.8012
  47   1.0000      -0.668977       -18.2038
  48   1.0000      -0.664172       -18.0731
  49   1.0000      -0.654072       -17.7982
  50   1.0000      -0.630921       -17.1682
  51   1.0000      -0.604224       -16.4418
  52   1.0000      -0.596937       -16.2435
  53   1.0000      -0.590918       -16.0797
  54   1.0000      -0.578717       -15.7477
  55   1.0000      -0.576751       -15.6942
  56   1.0000      -0.563600       -15.3363
  57   1.0000      -0.558793       -15.2055
  58   1.0000      -0.541030       -14.7222
  59   1.0000      -0.534084       -14.5332
  60   1.0000      -0.520068       -14.1518
  61   1.0000      -0.500552       -13.6207
  62   1.0000      -0.469167       -12.7667
  63   1.0000      -0.462925       -12.5968
  64   1.0000      -0.457588       -12.4516
  65   1.0000      -0.433937       -11.8080
  66   1.0000      -0.431254       -11.7350
  67   1.0000      -0.429236       -11.6801
  68   1.0000      -0.422147       -11.4872
  69   1.0000      -0.408774       -11.1233
  70   1.0000      -0.395095       -10.7511
  71   1.0000      -0.391232       -10.6460
  72   0.0000       0.004519         0.1230
  73   0.0000       0.010423         0.2836
  74   0.0000       0.018438         0.5017
  75   0.0000       0.019630         0.5342
  76   0.0000       0.028284         0.7697

E(0)                                       ...  -3028.427889940
E(0)                                       ...  -3028.427889940
E(CORR)(strong-pairs)                      ...     -2.874893134
E(CORR)(weak-pairs)                        ...     -0.035625489
E(CORR)(corrected)                         ...     -2.910518622
E(TOT)                                     ...  -3031.338408562
E(CCSD(T))                                 ...  -3031.458888921
FINAL SINGLE POINT ENERGY     -3031.458888920502

DIPOLE MOMENT
-------------
                                X             Y             Z
Electronic contribution:     43.50112       6.25517      -1.67826
Nuclear contribution   :    -48.98192      -6.68703       1.63195
                        -----------------------------------------
Total Dipole Moment    :     -5.48081      -0.43186      -0.04630
                        -----------------------------------------
Magnitude (a.u.)       :      5.49799
Magnitude (Debye)      :     13.97477

Rotational constants in cm-1:     0.020063     0.010087     0.009660
Rotational constants in MHz :   601.473394   302.385848   289.613270

                             ****ORCA TERMINATED NORMALLY****
TOTAL RUN TIME: 0 days 21 hours 0 minutes 26 seconds 814 msec
