                         Program Version 4.1.2  - RELEASE  -
|  1> ! aug-cc-pVTZ aug-cc-pVTZ/C DLPNO-CCSD(T1) TightSCF NormalPNO UNO MiniPrint AutoAux
|  2> %pal nproc 10 end
|  3> %maxcore 20000
|  4> %mdci
|  5>      density none
|  6> end
|  7>
|  8> * xyz 0 6
|  9>  O     -0.34302800     -0.13026900     -0.47992200
| 10>  C     -1.20813000     -1.10746100     -0.32113000
| 11>  C     -2.62219500     -0.38088400      0.71930800
| 12>  C     -2.85990400      0.75265300     -0.06064100
| 13>  C     -3.83787700      0.73541800     -1.18523900
| 14> Fe      1.47589800      0.17215600     -0.07532500
| 15> Cl      1.79306300      2.19545300     -0.87719800
| 16>  C     -2.09105600      1.99214300      0.13732400
| 17> Cl      2.56192700     -1.45850800     -1.07215200
| 18> Cl      1.68783300      0.11098400      2.12570600
| 19>  H     -3.35707400     -1.17619800      0.59166400
| 20>  H     -2.50465200      2.84372800     -0.40649500
| 21>  H     -1.93631900      2.24152700      1.19002300
| 22>  H     -1.08410800      1.77232300     -0.27093600
| 23>  H     -4.65086500      1.43146900     -0.93185200
| 24>  H     -3.38567900      1.12255200     -2.10711900
| 25>  H     -4.27213400     -0.24850400     -1.36746300
| 26>  C     -2.09723900     -0.20973200      2.13766600
| 27>  H     -2.75622200      0.46138900      2.69992500
| 28>  H     -2.07884700     -1.16658400      2.66144300
| 29>  H     -1.08703800      0.20579500      2.15829400
| 30>  C     -0.75423400     -2.25934900      0.57373300
| 31>  H     -1.56922600     -2.95013100      0.80531400
| 32>  H      0.00986300     -2.79923500      0.00115200
| 33>  H     -0.28628300     -1.90635900      1.49178300
| 34>  C     -1.80375700     -1.60117100     -1.63452000
| 35>  H     -1.02383700     -2.19390800     -2.12553800
| 36>  H     -2.67859900     -2.24102400     -1.48733400
| 37>  H     -2.04972900     -0.77523500     -2.30208700
| 38> *
| 39>
| 40>
| 41>                          ****END OF INPUT****

CARTESIAN COORDINATES (ANGSTROEM)
---------------------------------
  O     -0.343028   -0.130269   -0.479922
  C     -1.208130   -1.107461   -0.321130
  C     -2.622195   -0.380884    0.719308
  C     -2.859904    0.752653   -0.060641
  C     -3.837877    0.735418   -1.185239
  Fe     1.475898    0.172156   -0.075325
  Cl     1.793063    2.195453   -0.877198
  C     -2.091056    1.992143    0.137324
  Cl     2.561927   -1.458508   -1.072152
  Cl     1.687833    0.110984    2.125706
  H     -3.357074   -1.176198    0.591664
  H     -2.504652    2.843728   -0.406495
  H     -1.936319    2.241527    1.190023
  H     -1.084108    1.772323   -0.270936
  H     -4.650865    1.431469   -0.931852
  H     -3.385679    1.122552   -2.107119
  H     -4.272134   -0.248504   -1.367463
  C     -2.097239   -0.209732    2.137666
  H     -2.756222    0.461389    2.699925
  H     -2.078847   -1.166584    2.661443
  H     -1.087038    0.205795    2.158294
  C     -0.754234   -2.259349    0.573733
  H     -1.569226   -2.950131    0.805314
  H      0.009863   -2.799235    0.001152
  H     -0.286283   -1.906359    1.491783
  C     -1.803757   -1.601171   -1.634520
  H     -1.023837   -2.193908   -2.125538
  H     -2.678599   -2.241024   -1.487334
  H     -2.049729   -0.775235   -2.302087

ORBITAL ENERGIES
----------------
                 SPIN UP ORBITALS
  NO   OCC          E(Eh)            E(eV)
   0   1.0000    -261.549098     -7117.1128
   1   1.0000    -104.774643     -2851.0630
   2   1.0000    -104.772410     -2851.0022
   3   1.0000    -104.771890     -2850.9881
   4   1.0000     -32.217004      -876.6692
   5   1.0000     -27.693028      -753.5656
   6   1.0000     -27.692617      -753.5544
   7   1.0000     -27.692420      -753.5490
   8   1.0000     -20.555306      -559.3383
   9   1.0000     -11.378886      -309.6352
  10   1.0000     -11.364025      -309.2308
  11   1.0000     -11.289592      -307.2054
  12   1.0000     -11.281593      -306.9878
  13   1.0000     -11.264142      -306.5129
  14   1.0000     -11.253734      -306.2297
  15   1.0000     -11.250554      -306.1431
  16   1.0000     -11.246458      -306.0317
  17   1.0000     -10.501259      -285.7538
  18   1.0000     -10.498987      -285.6920
  19   1.0000     -10.498509      -285.6789
  20   1.0000      -7.968129      -216.8238
  21   1.0000      -7.967308      -216.8015
  22   1.0000      -7.967263      -216.8002
  23   1.0000      -7.965810      -216.7607
  24   1.0000      -7.965352      -216.7482
  25   1.0000      -7.965096      -216.7413
  26   1.0000      -7.965005      -216.7388
  27   1.0000      -7.964609      -216.7280
  28   1.0000      -7.964532      -216.7259
  29   1.0000      -4.572379      -124.4208
  30   1.0000      -3.185048       -86.6696
  31   1.0000      -3.184375       -86.6513
  32   1.0000      -3.183903       -86.6384
  33   1.0000      -1.396808       -38.0091
  34   1.0000      -1.183855       -32.2143
  35   1.0000      -1.081767       -29.4364
  36   1.0000      -1.046219       -28.4691
  37   1.0000      -1.045075       -28.4379
  38   1.0000      -1.040474       -28.3127
  39   1.0000      -1.038704       -28.2646
  40   1.0000      -1.006102       -27.3774
  41   1.0000      -0.979053       -26.6414
  42   1.0000      -0.929264       -25.2866
  43   1.0000      -0.915162       -24.9028
  44   1.0000      -0.901818       -24.5397
  45   1.0000      -0.901775       -24.5386
  46   1.0000      -0.892768       -24.2935
  47   1.0000      -0.892364       -24.2825
  48   1.0000      -0.789434       -21.4816
  49   1.0000      -0.768672       -20.9166
  50   1.0000      -0.700414       -19.0592
  51   1.0000      -0.692443       -18.8423
  52   1.0000      -0.669409       -18.2156
  53   1.0000      -0.661483       -17.9999
  54   1.0000      -0.653678       -17.7875
  55   1.0000      -0.628711       -17.1081
  56   1.0000      -0.601841       -16.3769
  57   1.0000      -0.596841       -16.2409
  58   1.0000      -0.592457       -16.1216
  59   1.0000      -0.577567       -15.7164
  60   1.0000      -0.575229       -15.6528
  61   1.0000      -0.564561       -15.3625
  62   1.0000      -0.557617       -15.1735
  63   1.0000      -0.542371       -14.7587
  64   1.0000      -0.533322       -14.5124
  65   1.0000      -0.523260       -14.2386
  66   1.0000      -0.510217       -13.8837
  67   1.0000      -0.472970       -12.8702
  68   1.0000      -0.461277       -12.5520
  69   1.0000      -0.449494       -12.2313
  70   1.0000      -0.427562       -11.6346
  71   1.0000      -0.424706       -11.5568
  72   1.0000      -0.421339       -11.4652
  73   1.0000      -0.413353       -11.2479
  74   1.0000      -0.411458       -11.1964
  75   1.0000      -0.411050       -11.1852
  76   1.0000      -0.396096       -10.7783
  77   0.0000       0.005884         0.1601
  78   0.0000       0.015497         0.4217
  79   0.0000       0.019125         0.5204
  80   0.0000       0.020624         0.5612
  81   0.0000       0.029411         0.8003

                 SPIN DOWN ORBITALS
  NO   OCC          E(Eh)            E(eV)
   0   1.0000    -261.545545     -7117.0161
   1   1.0000    -104.773250     -2851.0251
   2   1.0000    -104.771011     -2850.9642
   3   1.0000    -104.770446     -2850.9488
   4   1.0000     -32.054940      -872.2593
   5   1.0000     -27.532967      -749.2101
   6   1.0000     -27.532834      -749.2065
   7   1.0000     -27.532438      -749.1957
   8   1.0000     -20.550232      -559.2002
   9   1.0000     -11.378860      -309.6345
  10   1.0000     -11.363873      -309.2267
  11   1.0000     -11.289614      -307.2060
  12   1.0000     -11.281463      -306.9842
  13   1.0000     -11.264176      -306.5138
  14   1.0000     -11.253627      -306.2268
  15   1.0000     -11.250579      -306.1438
  16   1.0000     -11.246433      -306.0310
  17   1.0000     -10.499763      -285.7131
  18   1.0000     -10.497491      -285.6512
  19   1.0000     -10.496962      -285.6369
  20   1.0000      -7.965651      -216.7564
  21   1.0000      -7.965080      -216.7409
  22   1.0000      -7.965005      -216.7388
  23   1.0000      -7.963454      -216.6966
  24   1.0000      -7.962899      -216.6815
  25   1.0000      -7.962770      -216.6780
  26   1.0000      -7.962669      -216.6752
  27   1.0000      -7.962218      -216.6630
  28   1.0000      -7.962136      -216.6607
  29   1.0000      -4.130098      -112.3857
  30   1.0000      -2.651898       -72.1618
  31   1.0000      -2.651839       -72.1602
  32   1.0000      -2.651011       -72.1377
  33   1.0000      -1.383864       -37.6569
  34   1.0000      -1.182883       -32.1879
  35   1.0000      -1.079129       -29.3646
  36   1.0000      -1.044599       -28.4250
  37   1.0000      -1.031356       -28.0646
  38   1.0000      -1.019814       -27.7506
  39   1.0000      -1.018212       -27.7070
  40   1.0000      -1.005888       -27.3716
  41   1.0000      -0.978314       -26.6213
  42   1.0000      -0.927889       -25.2491
  43   1.0000      -0.800831       -21.7917
  44   1.0000      -0.771054       -20.9814
  45   1.0000      -0.701032       -19.0760
  46   1.0000      -0.691776       -18.8242
  47   1.0000      -0.670277       -18.2392
  48   1.0000      -0.662654       -18.0317
  49   1.0000      -0.652364       -17.7517
  50   1.0000      -0.628168       -17.0933
  51   1.0000      -0.601924       -16.3792
  52   1.0000      -0.596370       -16.2281
  53   1.0000      -0.591709       -16.1012
  54   1.0000      -0.577549       -15.7159
  55   1.0000      -0.574748       -15.6397
  56   1.0000      -0.564001       -15.3472
  57   1.0000      -0.557522       -15.1710
  58   1.0000      -0.541387       -14.7319
  59   1.0000      -0.532916       -14.5014
  60   1.0000      -0.518924       -14.1206
  61   1.0000      -0.502524       -13.6744
  62   1.0000      -0.470876       -12.8132
  63   1.0000      -0.464915       -12.6510
  64   1.0000      -0.458621       -12.4797
  65   1.0000      -0.435860       -11.8604
  66   1.0000      -0.432921       -11.7804
  67   1.0000      -0.431125       -11.7315
  68   1.0000      -0.423397       -11.5212
  69   1.0000      -0.410762       -11.1774
  70   1.0000      -0.397308       -10.8113
  71   1.0000      -0.390709       -10.6317
  72   0.0000       0.005891         0.1603
  73   0.0000       0.015270         0.4155
  74   0.0000       0.019130         0.5206
  75   0.0000       0.020575         0.5599
  76   0.0000       0.029380         0.7995

E(0)                                       ...  -3028.426427437
E(0)                                       ...  -3028.426427437
E(CORR)(strong-pairs)                      ...     -2.875565742
E(CORR)(weak-pairs)                        ...     -0.035609106
E(CORR)(corrected)                         ...     -2.911174847
E(TOT)                                     ...  -3031.337602284
E(CCSD(T))                                 ...  -3031.457892151
FINAL SINGLE POINT ENERGY     -3031.457892150913

DIPOLE MOMENT
-------------
                                X             Y             Z
Electronic contribution:     42.05265       6.55948      -0.77986
Nuclear contribution   :    -47.22081      -6.98773       0.60615
                        -----------------------------------------
Total Dipole Moment    :     -5.16817      -0.42824      -0.17371
                        -----------------------------------------
Magnitude (a.u.)       :      5.18879
Magnitude (Debye)      :     13.18886

Rotational constants in cm-1:     0.019527     0.010646     0.010127
Rotational constants in MHz :   585.395528   319.152073   303.603269

                             ****ORCA TERMINATED NORMALLY****
TOTAL RUN TIME: 0 days 23 hours 5 minutes 9 seconds 495 msec
