                         Program Version 4.1.2  - RELEASE  -
|  1> ! aug-cc-pVTZ aug-cc-pVTZ/C DLPNO-CCSD(T1) TightSCF NormalPNO UNO MiniPrint AutoAux
|  2> %pal nproc 10 end
|  3> %maxcore 20000
|  4> %mdci
|  5>      density none
|  6> end
|  7>
|  8> * xyz 0 6
|  9>  O     -0.29100700     -0.24175800     -0.52716100
| 10>  C     -1.09970200     -1.19474300     -0.27631600
| 11>  C     -2.73400500     -0.19367200      0.90241800
| 12>  C     -3.05403500      0.69291900     -0.08615100
| 13>  C     -4.11195900      0.40149300     -1.10577600
| 14> Fe      1.54340700      0.18242400     -0.09512500
| 15> Cl      1.86175400      2.09161100     -1.10551400
| 16>  C     -2.32188600      1.98728000     -0.22773400
| 17> Cl      2.59240200     -1.55751200     -0.92235100
| 18> Cl      1.76508900      0.31666300      2.08721900
| 19>  H     -3.34990400     -1.08880300      0.97796600
| 20>  H     -2.82850200      2.67513500     -0.90946500
| 21>  H     -2.16297400      2.48518300      0.73337900
| 22>  H     -1.32163100      1.77597400     -0.64019300
| 23>  H     -4.93555200      1.11667000     -0.97367000
| 24>  H     -3.73985400      0.55161900     -2.12725500
| 25>  H     -4.52246200     -0.60709000     -1.01606700
| 26>  C     -1.98471100      0.22264900      2.14747000
| 27>  H     -2.53944600      1.00985800      2.67286300
| 28>  H     -1.86959600     -0.61160500      2.84191100
| 29>  H     -0.98893100      0.61674300      1.92954000
| 30>  C     -0.74565400     -2.17387600      0.81798100
| 31>  H     -1.59696600     -2.78022500      1.13264800
| 32>  H      0.00846500     -2.84010200      0.37460500
| 33>  H     -0.28156100     -1.68463000      1.67323100
| 34>  C     -1.84854700     -1.76232900     -1.45598100
| 35>  H     -1.16199500     -2.47444100     -1.93403900
| 36>  H     -2.74931100     -2.30489200     -1.16279700
| 37>  H     -2.08448300     -0.98962300     -2.18658600
| 38> *
| 39>
| 40>
| 41>                          ****END OF INPUT****

CARTESIAN COORDINATES (ANGSTROEM)
---------------------------------
  O     -0.291007   -0.241758   -0.527161
  C     -1.099702   -1.194743   -0.276316
  C     -2.734005   -0.193672    0.902418
  C     -3.054035    0.692919   -0.086151
  C     -4.111959    0.401493   -1.105776
  Fe     1.543407    0.182424   -0.095125
  Cl     1.861754    2.091611   -1.105514
  C     -2.321886    1.987280   -0.227734
  Cl     2.592402   -1.557512   -0.922351
  Cl     1.765089    0.316663    2.087219
  H     -3.349904   -1.088803    0.977966
  H     -2.828502    2.675135   -0.909465
  H     -2.162974    2.485183    0.733379
  H     -1.321631    1.775974   -0.640193
  H     -4.935552    1.116670   -0.973670
  H     -3.739854    0.551619   -2.127255
  H     -4.522462   -0.607090   -1.016067
  C     -1.984711    0.222649    2.147470
  H     -2.539446    1.009858    2.672863
  H     -1.869596   -0.611605    2.841911
  H     -0.988931    0.616743    1.929540
  C     -0.745654   -2.173876    0.817981
  H     -1.596966   -2.780225    1.132648
  H      0.008465   -2.840102    0.374605
  H     -0.281561   -1.684630    1.673231
  C     -1.848547   -1.762329   -1.455981
  H     -1.161995   -2.474441   -1.934039
  H     -2.749311   -2.304892   -1.162797
  H     -2.084483   -0.989623   -2.186586

ORBITAL ENERGIES
----------------
                 SPIN UP ORBITALS
  NO   OCC          E(Eh)            E(eV)
   0   1.0000    -261.565496     -7117.5590
   1   1.0000    -104.785599     -2851.3611
   2   1.0000    -104.783136     -2851.2941
   3   1.0000    -104.781482     -2851.2491
   4   1.0000     -32.233274      -877.1120
   5   1.0000     -27.709640      -754.0176
   6   1.0000     -27.708682      -753.9916
   7   1.0000     -27.708526      -753.9873
   8   1.0000     -20.597811      -560.4949
   9   1.0000     -11.412952      -310.5622
  10   1.0000     -11.302275      -307.5505
  11   1.0000     -11.270388      -306.6829
  12   1.0000     -11.266265      -306.5707
  13   1.0000     -11.263754      -306.5023
  14   1.0000     -11.259200      -306.3784
  15   1.0000     -11.245503      -306.0057
  16   1.0000     -11.241054      -305.8846
  17   1.0000     -10.512264      -286.0532
  18   1.0000     -10.509780      -285.9857
  19   1.0000     -10.508088      -285.9396
  20   1.0000      -7.979104      -217.1225
  21   1.0000      -7.978319      -217.1011
  22   1.0000      -7.978312      -217.1009
  23   1.0000      -7.976653      -217.0558
  24   1.0000      -7.975881      -217.0347
  25   1.0000      -7.975801      -217.0326
  26   1.0000      -7.974896      -217.0080
  27   1.0000      -7.974225      -216.9897
  28   1.0000      -7.974139      -216.9874
  29   1.0000      -4.588384      -124.8563
  30   1.0000      -3.201514       -87.1176
  31   1.0000      -3.199906       -87.0739
  32   1.0000      -3.199710       -87.0685
  33   1.0000      -1.440904       -39.2090
  34   1.0000      -1.149629       -31.2830
  35   1.0000      -1.091577       -29.7033
  36   1.0000      -1.058041       -28.7908
  37   1.0000      -1.052673       -28.6447
  38   1.0000      -1.049936       -28.5702
  39   1.0000      -1.031266       -28.0622
  40   1.0000      -1.000381       -27.2218
  41   1.0000      -0.978762       -26.6335
  42   1.0000      -0.934422       -25.4269
  43   1.0000      -0.917527       -24.9672
  44   1.0000      -0.917517       -24.9669
  45   1.0000      -0.908767       -24.7288
  46   1.0000      -0.906889       -24.6777
  47   1.0000      -0.906662       -24.6715
  48   1.0000      -0.803627       -21.8678
  49   1.0000      -0.748169       -20.3587
  50   1.0000      -0.698510       -19.0074
  51   1.0000      -0.688421       -18.7329
  52   1.0000      -0.683397       -18.5962
  53   1.0000      -0.670950       -18.2575
  54   1.0000      -0.638087       -17.3632
  55   1.0000      -0.622665       -16.9436
  56   1.0000      -0.605008       -16.4631
  57   1.0000      -0.596938       -16.2435
  58   1.0000      -0.582681       -15.8556
  59   1.0000      -0.575592       -15.6627
  60   1.0000      -0.570870       -15.5342
  61   1.0000      -0.560627       -15.2554
  62   1.0000      -0.555702       -15.1214
  63   1.0000      -0.543433       -14.7876
  64   1.0000      -0.535335       -14.5672
  65   1.0000      -0.525153       -14.2901
  66   1.0000      -0.511815       -13.9272
  67   1.0000      -0.492064       -13.3898
  68   1.0000      -0.471035       -12.8175
  69   1.0000      -0.465550       -12.6683
  70   1.0000      -0.439058       -11.9474
  71   1.0000      -0.433577       -11.7982
  72   1.0000      -0.431228       -11.7343
  73   1.0000      -0.423042       -11.5115
  74   1.0000      -0.421553       -11.4710
  75   1.0000      -0.420504       -11.4425
  76   1.0000      -0.371767       -10.1163
  77   0.0000       0.010825         0.2946
  78   0.0000       0.021628         0.5885
  79   0.0000       0.022567         0.6141
  80   0.0000       0.028923         0.7870
  81   0.0000       0.037867         1.0304

                 SPIN DOWN ORBITALS
  NO   OCC          E(Eh)            E(eV)
   0   1.0000    -261.561926     -7117.4618
   1   1.0000    -104.784117     -2851.3208
   2   1.0000    -104.781630     -2851.2531
   3   1.0000    -104.779968     -2851.2079
   4   1.0000     -32.071241      -872.7028
   5   1.0000     -27.549187      -749.6515
   6   1.0000     -27.549110      -749.6494
   7   1.0000     -27.548902      -749.6437
   8   1.0000     -20.594007      -560.3914
   9   1.0000     -11.412791      -310.5578
  10   1.0000     -11.301776      -307.5370
  11   1.0000     -11.270287      -306.6801
  12   1.0000     -11.266266      -306.5707
  13   1.0000     -11.263818      -306.5041
  14   1.0000     -11.259514      -306.3869
  15   1.0000     -11.245566      -306.0074
  16   1.0000     -11.241031      -305.8840
  17   1.0000     -10.510680      -286.0101
  18   1.0000     -10.508170      -285.9418
  19   1.0000     -10.506476      -285.8957
  20   1.0000      -7.976585      -217.0539
  21   1.0000      -7.975887      -217.0349
  22   1.0000      -7.975833      -217.0334
  23   1.0000      -7.974064      -216.9853
  24   1.0000      -7.973403      -216.9673
  25   1.0000      -7.973304      -216.9646
  26   1.0000      -7.972452      -216.9414
  27   1.0000      -7.971640      -216.9194
  28   1.0000      -7.971546      -216.9168
  29   1.0000      -4.146155      -112.8226
  30   1.0000      -2.667775       -72.5938
  31   1.0000      -2.667688       -72.5915
  32   1.0000      -2.667265       -72.5800
  33   1.0000      -1.431241       -38.9460
  34   1.0000      -1.148754       -31.2592
  35   1.0000      -1.088954       -29.6319
  36   1.0000      -1.042810       -28.3763
  37   1.0000      -1.032262       -28.0893
  38   1.0000      -1.029441       -28.0125
  39   1.0000      -1.027913       -27.9709
  40   1.0000      -0.999783       -27.2055
  41   1.0000      -0.978684       -26.6313
  42   1.0000      -0.908881       -24.7319
  43   1.0000      -0.818353       -22.2685
  44   1.0000      -0.748175       -20.3589
  45   1.0000      -0.701646       -19.0928
  46   1.0000      -0.686854       -18.6902
  47   1.0000      -0.683156       -18.5896
  48   1.0000      -0.670831       -18.2542
  49   1.0000      -0.638068       -17.3627
  50   1.0000      -0.621896       -16.9227
  51   1.0000      -0.604661       -16.4537
  52   1.0000      -0.596656       -16.2358
  53   1.0000      -0.582529       -15.8514
  54   1.0000      -0.574998       -15.6465
  55   1.0000      -0.570395       -15.5212
  56   1.0000      -0.560601       -15.2547
  57   1.0000      -0.555661       -15.1203
  58   1.0000      -0.541322       -14.7301
  59   1.0000      -0.534939       -14.5564
  60   1.0000      -0.514716       -14.0061
  61   1.0000      -0.511787       -13.9264
  62   1.0000      -0.491639       -13.3782
  63   1.0000      -0.476480       -12.9657
  64   1.0000      -0.474742       -12.9184
  65   1.0000      -0.446759       -12.1569
  66   1.0000      -0.443143       -12.0585
  67   1.0000      -0.440967       -11.9993
  68   1.0000      -0.425876       -11.5887
  69   1.0000      -0.421354       -11.4656
  70   1.0000      -0.406074       -11.0498
  71   1.0000      -0.370638       -10.0856
  72   0.0000       0.010818         0.2944
  73   0.0000       0.021615         0.5882
  74   0.0000       0.022549         0.6136
  75   0.0000       0.028767         0.7828
  76   0.0000       0.037163         1.0112

E(0)                                       ...  -3028.444046416
E(0)                                       ...  -3028.444046416
E(CORR)(strong-pairs)                      ...     -2.872363863
E(CORR)(weak-pairs)                        ...     -0.035159581
E(CORR)(corrected)                         ...     -2.907523444
E(TOT)                                     ...  -3031.351569860
E(CCSD(T))                                 ...  -3031.471149105
FINAL SINGLE POINT ENERGY     -3031.471149105091

DIPOLE MOMENT
-------------
                                X             Y             Z
Electronic contribution:     44.87172       5.67499      -1.71404
Nuclear contribution   :    -49.07447      -6.81133       1.59637
                        -----------------------------------------
Total Dipole Moment    :     -4.20276      -1.13634      -0.11767
                        -----------------------------------------
Magnitude (a.u.)       :      4.35526
Magnitude (Debye)      :     11.07019

Rotational constants in cm-1:     0.019651     0.010040     0.009599
Rotational constants in MHz :   589.122195   300.998193   287.773480

                             ****ORCA TERMINATED NORMALLY****
TOTAL RUN TIME: 0 days 18 hours 10 minutes 35 seconds 372 msec
