                         Program Version 4.1.2  - RELEASE  -
|  1> ! aug-cc-pVTZ aug-cc-pVTZ/C DLPNO-CCSD(T1) TightSCF NormalPNO UNO MiniPrint AutoAux
|  2> %pal nproc 10 end
|  3> %maxcore 20000
|  4> %mdci
|  5>      density none
|  6> end
|  7>
|  8> * xyz 0 6
|  9>  O     -0.34897300     -0.06138000     -0.39286600
| 10>  C     -1.29331000     -1.04722800     -0.25779800
| 11>  C     -2.48009700     -0.47315000      0.64882900
| 12>  C     -2.89976700      0.74438200     -0.02652800
| 13>  C     -4.03799400      0.72822400     -0.97967600
| 14> Fe      1.47912200      0.17150500     -0.07707100
| 15> Cl      1.73858100      2.27035200     -0.71271700
| 16>  C     -2.09512900      1.92254600      0.08746900
| 17> Cl      2.53837400     -1.34857900     -1.26217400
| 18> Cl      1.79401000     -0.06499600      2.10504800
| 19>  H     -3.27738300     -1.22134900      0.59386700
| 20>  H     -2.43729300      2.79980500     -0.45921200
| 21>  H     -1.72887800      2.15355500      1.09057300
| 22>  H     -1.15114300      1.46596400     -0.38658700
| 23>  H     -4.87588900      1.24271800     -0.48161100
| 24>  H     -3.81569700      1.31074300     -1.88072000
| 25>  H     -4.36603700     -0.27802300     -1.24409500
| 26>  C     -2.02360500     -0.26350900      2.10503500
| 27>  H     -2.73140400      0.37659000      2.64123700
| 28>  H     -1.98624800     -1.22258300      2.62401500
| 29>  H     -1.02881300      0.18351900      2.15608300
| 30>  C     -0.72888000     -2.28313900      0.47586800
| 31>  H     -1.51515400     -3.01822400      0.67636200
| 32>  H      0.02311900     -2.73776300     -0.17506600
| 33>  H     -0.23867400     -2.00771000      1.41016400
| 34>  C     -1.78821100     -1.46905100     -1.65359700
| 35>  H     -0.94862300     -1.93268000     -2.17796500
| 36>  H     -2.60837500     -2.19395200     -1.60084100
| 37>  H     -2.10334700     -0.60835300     -2.24971700
| 38> *
| 39>
| 40>
| 41>                          ****END OF INPUT****

CARTESIAN COORDINATES (ANGSTROEM)
---------------------------------
  O     -0.348973   -0.061380   -0.392866
  C     -1.293310   -1.047228   -0.257798
  C     -2.480097   -0.473150    0.648829
  C     -2.899767    0.744382   -0.026528
  C     -4.037994    0.728224   -0.979676
  Fe     1.479122    0.171505   -0.077071
  Cl     1.738581    2.270352   -0.712717
  C     -2.095129    1.922546    0.087469
  Cl     2.538374   -1.348579   -1.262174
  Cl     1.794010   -0.064996    2.105048
  H     -3.277383   -1.221349    0.593867
  H     -2.437293    2.799805   -0.459212
  H     -1.728878    2.153555    1.090573
  H     -1.151143    1.465964   -0.386587
  H     -4.875889    1.242718   -0.481611
  H     -3.815697    1.310743   -1.880720
  H     -4.366037   -0.278023   -1.244095
  C     -2.023605   -0.263509    2.105035
  H     -2.731404    0.376590    2.641237
  H     -1.986248   -1.222583    2.624015
  H     -1.028813    0.183519    2.156083
  C     -0.728880   -2.283139    0.475868
  H     -1.515154   -3.018224    0.676362
  H      0.023119   -2.737763   -0.175066
  H     -0.238674   -2.007710    1.410164
  C     -1.788211   -1.469051   -1.653597
  H     -0.948623   -1.932680   -2.177965
  H     -2.608375   -2.193952   -1.600841
  H     -2.103347   -0.608353   -2.249717

ORBITAL ENERGIES
----------------
                 SPIN UP ORBITALS
  NO   OCC          E(Eh)            E(eV)
   0   1.0000    -261.539087     -7116.8404
   1   1.0000    -104.767258     -2850.8620
   2   1.0000    -104.766784     -2850.8491
   3   1.0000    -104.764964     -2850.7996
   4   1.0000     -32.207024      -876.3977
   5   1.0000     -27.682892      -753.2898
   6   1.0000     -27.682748      -753.2859
   7   1.0000     -27.682487      -753.2788
   8   1.0000     -20.535929      -558.8110
   9   1.0000     -11.403142      -310.2953
  10   1.0000     -11.335236      -308.4474
  11   1.0000     -11.309117      -307.7367
  12   1.0000     -11.292821      -307.2933
  13   1.0000     -11.276816      -306.8578
  14   1.0000     -11.255879      -306.2880
  15   1.0000     -11.242549      -305.9253
  16   1.0000     -11.231079      -305.6132
  17   1.0000     -10.493856      -285.5523
  18   1.0000     -10.493359      -285.5388
  19   1.0000     -10.491574      -285.4902
  20   1.0000      -7.960736      -216.6226
  21   1.0000      -7.960196      -216.6080
  22   1.0000      -7.959907      -216.6001
  23   1.0000      -7.959844      -216.5984
  24   1.0000      -7.959455      -216.5878
  25   1.0000      -7.959362      -216.5852
  26   1.0000      -7.958394      -216.5589
  27   1.0000      -7.957676      -216.5394
  28   1.0000      -7.957605      -216.5374
  29   1.0000      -4.562505      -124.1521
  30   1.0000      -3.174973       -86.3954
  31   1.0000      -3.174686       -86.3876
  32   1.0000      -3.174132       -86.3725
  33   1.0000      -1.365678       -37.1620
  34   1.0000      -1.207228       -32.8503
  35   1.0000      -1.095776       -29.8176
  36   1.0000      -1.047049       -28.4916
  37   1.0000      -1.038524       -28.2597
  38   1.0000      -1.033262       -28.1165
  39   1.0000      -1.031681       -28.0735
  40   1.0000      -1.021988       -27.8097
  41   1.0000      -0.965063       -26.2607
  42   1.0000      -0.932812       -25.3831
  43   1.0000      -0.903446       -24.5840
  44   1.0000      -0.892155       -24.2768
  45   1.0000      -0.892021       -24.2731
  46   1.0000      -0.883733       -24.0476
  47   1.0000      -0.883391       -24.0383
  48   1.0000      -0.809498       -22.0276
  49   1.0000      -0.769702       -20.9447
  50   1.0000      -0.719418       -19.5764
  51   1.0000      -0.701352       -19.0848
  52   1.0000      -0.679192       -18.4817
  53   1.0000      -0.650331       -17.6964
  54   1.0000      -0.647399       -17.6166
  55   1.0000      -0.635186       -17.2843
  56   1.0000      -0.614212       -16.7135
  57   1.0000      -0.597212       -16.2510
  58   1.0000      -0.591488       -16.0952
  59   1.0000      -0.581687       -15.8285
  60   1.0000      -0.571308       -15.5461
  61   1.0000      -0.561497       -15.2791
  62   1.0000      -0.551732       -15.0134
  63   1.0000      -0.537586       -14.6285
  64   1.0000      -0.527873       -14.3641
  65   1.0000      -0.509185       -13.8556
  66   1.0000      -0.498593       -13.5674
  67   1.0000      -0.465813       -12.6754
  68   1.0000      -0.459067       -12.4919
  69   1.0000      -0.438710       -11.9379
  70   1.0000      -0.434504       -11.8234
  71   1.0000      -0.418107       -11.3773
  72   1.0000      -0.413906       -11.2630
  73   1.0000      -0.410844       -11.1796
  74   1.0000      -0.406686       -11.0665
  75   1.0000      -0.405210       -11.0263
  76   1.0000      -0.404456       -11.0058
  77   0.0000      -0.000182        -0.0050
  78   0.0000       0.000974         0.0265
  79   0.0000       0.017100         0.4653
  80   0.0000       0.017627         0.4797
  81   0.0000       0.027103         0.7375

                 SPIN DOWN ORBITALS
  NO   OCC          E(Eh)            E(eV)
   0   1.0000    -261.535541     -7116.7439
   1   1.0000    -104.765900     -2850.8251
   2   1.0000    -104.765437     -2850.8125
   3   1.0000    -104.763552     -2850.7612
   4   1.0000     -32.044974      -871.9881
   5   1.0000     -27.523061      -748.9406
   6   1.0000     -27.522872      -748.9354
   7   1.0000     -27.522390      -748.9223
   8   1.0000     -20.530145      -558.6536
   9   1.0000     -11.403138      -310.2952
  10   1.0000     -11.335071      -308.4430
  11   1.0000     -11.309120      -307.7368
  12   1.0000     -11.292713      -307.2903
  13   1.0000     -11.276809      -306.8576
  14   1.0000     -11.255900      -306.2886
  15   1.0000     -11.242462      -305.9230
  16   1.0000     -11.231044      -305.6123
  17   1.0000     -10.492395      -285.5126
  18   1.0000     -10.491914      -285.4995
  19   1.0000     -10.490061      -285.4491
  20   1.0000      -7.958283      -216.5559
  21   1.0000      -7.957863      -216.5445
  22   1.0000      -7.957751      -216.5414
  23   1.0000      -7.957673      -216.5393
  24   1.0000      -7.957258      -216.5280
  25   1.0000      -7.957153      -216.5251
  26   1.0000      -7.956032      -216.4946
  27   1.0000      -7.955321      -216.4753
  28   1.0000      -7.955250      -216.4734
  29   1.0000      -4.120297      -112.1190
  30   1.0000      -2.642235       -71.8989
  31   1.0000      -2.642107       -71.8954
  32   1.0000      -2.641162       -71.8697
  33   1.0000      -1.351189       -36.7677
  34   1.0000      -1.205900       -32.8142
  35   1.0000      -1.093265       -29.7493
  36   1.0000      -1.046480       -28.4762
  37   1.0000      -1.024554       -27.8795
  38   1.0000      -1.020419       -27.7670
  39   1.0000      -1.013133       -27.5688
  40   1.0000      -1.011672       -27.5290
  41   1.0000      -0.964392       -26.2425
  42   1.0000      -0.932272       -25.3684
  43   1.0000      -0.814112       -22.1531
  44   1.0000      -0.776130       -21.1196
  45   1.0000      -0.720077       -19.5943
  46   1.0000      -0.700953       -19.0739
  47   1.0000      -0.679395       -18.4873
  48   1.0000      -0.649597       -17.6764
  49   1.0000      -0.648451       -17.6452
  50   1.0000      -0.634928       -17.2773
  51   1.0000      -0.614279       -16.7154
  52   1.0000      -0.597054       -16.2467
  53   1.0000      -0.591428       -16.0936
  54   1.0000      -0.580057       -15.7841
  55   1.0000      -0.569970       -15.5097
  56   1.0000      -0.561067       -15.2674
  57   1.0000      -0.551505       -15.0072
  58   1.0000      -0.537416       -14.6238
  59   1.0000      -0.525144       -14.2899
  60   1.0000      -0.506424       -13.7805
  61   1.0000      -0.494174       -13.4472
  62   1.0000      -0.461876       -12.5683
  63   1.0000      -0.460152       -12.5214
  64   1.0000      -0.445619       -12.1259
  65   1.0000      -0.440297       -11.9811
  66   1.0000      -0.428765       -11.6673
  67   1.0000      -0.425830       -11.5874
  68   1.0000      -0.424614       -11.5543
  69   1.0000      -0.404361       -11.0032
  70   1.0000      -0.398086       -10.8325
  71   1.0000      -0.391329       -10.6486
  72   0.0000      -0.000224        -0.0061
  73   0.0000       0.000933         0.0254
  74   0.0000       0.017090         0.4650
  75   0.0000       0.017610         0.4792
  76   0.0000       0.027122         0.7380

E(0)                                       ...  -3028.421724297
E(0)                                       ...  -3028.421724297
E(CORR)(strong-pairs)                      ...     -2.875504135
E(CORR)(weak-pairs)                        ...     -0.035463630
E(CORR)(corrected)                         ...     -2.910967765
E(TOT)                                     ...  -3031.332692062
E(CCSD(T))                                 ...  -3031.451412646
FINAL SINGLE POINT ENERGY     -3031.451412645987

DIPOLE MOMENT
-------------
                                X             Y             Z
Electronic contribution:     41.44507       7.30813      -0.67355
Nuclear contribution   :    -47.34779      -7.29454       0.61565
                        -----------------------------------------
Total Dipole Moment    :     -5.90272       0.01358      -0.05790
                        -----------------------------------------
Magnitude (a.u.)       :      5.90302
Magnitude (Debye)      :     15.00429

Rotational constants in cm-1:     0.019972     0.010596     0.010082
Rotational constants in MHz :   598.751203   317.672533   302.257045

                             ****ORCA TERMINATED NORMALLY****
TOTAL RUN TIME: 0 days 19 hours 51 minutes 9 seconds 50 msec
