 Gaussian 16, Revision A.03,
 Gaussian 16:  ES64L-G16RevA.03 25-Dec-2016

 ----------------------------------------------------------------------
 #p opt=(calcfc,ts,noeigentest,maxstep=5) freq=noraman b3lyp scrf=(solv
 ent=water,pcm) pop=none empiricaldispersion=gd3bj jul-cc-pvdz
 ----------------------------------------------------------------------

 -----
 title
 -----
 Symbolic Z-matrix:
 Charge =  0 Multiplicity = 6

 SCF Done:  E(UB3LYP) =  -3684.02222571     A.U. after   24 cycles
 SCF Done:  E(UB3LYP) =  -3684.02222603     A.U. after   10 cycles
 Optimization completed.
    -- Stationary point found.
 Normal termination of Gaussian 16 at Wed Jul 14 17:45:45 2021.

 ----------------------------------------------------------------------
 #P Geom=AllCheck Guess=TCheck SCRF=Check GenChk UB3LYP/Jul-CC-pVDZ Fre
 q
 ----------------------------------------------------------------------

 Structure from the checkpoint file:  "/scratch/kwaneu.3017403.bmbhpcps002/Gau-41191.chk"
 -----
 title
 -----
 Charge =  0 Multiplicity = 6

                         Standard orientation:
 ---------------------------------------------------------------------
 Center     Atomic      Atomic             Coordinates (Angstroms)
 Number     Number       Type             X           Y           Z
 ---------------------------------------------------------------------
      1          6           0        1.441555    3.377795   -0.276583
      2          6           0        0.484288    2.357978   -0.202496
      3          6           0       -0.637945    2.428065   -1.045374
      4          6           0       -0.790295    3.479358   -1.948649
      5          6           0        0.174695    4.490328   -2.020013
      6          6           0        1.288772    4.435611   -1.179062
      7          6           0        0.572454    1.204690    0.780306
      8          6           0        1.949331    1.072209    1.504428
      9          6           0        1.776295    1.868991    2.807200
     10          6           0        0.321412    1.624213    3.260970
     11          6           0       -0.474910    1.354361    1.961704
     12          6           0       -1.124624    0.015629    1.920145
     13          8           0        0.179984   -0.021520    0.167179
     14         26           0        0.056840   -1.082215   -1.329887
     15         17           0       -2.044275   -0.855600   -2.135648
     16         17           0        0.251329   -3.233019   -0.667534
     17         17           0        1.590664   -0.578770   -2.893165
     18          1           0       -1.387607    1.640004   -1.015684
     19          1           0       -1.663563    3.506884   -2.601258
     20          1           0        0.059130    5.312928   -2.726648
     21          1           0        2.049020    5.216005   -1.224260
     22          1           0        2.321177    3.368680    0.363378
     23          1           0        2.750732    1.459767    0.870975
     24          6           0        2.256459   -0.391676    1.757098
     25          1           0        2.505548    1.575580    3.570671
     26          1           0        1.930225    2.934313    2.595311
     27          1           0        0.272506    0.755425    3.926764
     28          1           0       -0.093601    2.481162    3.802220
     29          1           0       -1.177772    2.158081    1.739199
     30          8           0        3.086634   -0.876617    0.829224
     31          8           0        1.811403   -1.049793    2.682846
     32          6           0        3.428258   -2.290812    0.924308
     33          6           0        4.188780   -2.654206   -0.331391
     34          1           0        4.027777   -2.432092    1.833277
     35          1           0        2.497027   -2.859354    1.018888
     36          1           0        4.468687   -3.715968   -0.288546
     37          1           0        3.564466   -2.492628   -1.220143
     38          1           0        5.106130   -2.056845   -0.425240
     39          6           0       -2.432243   -0.285175    1.497342
     40          6           0       -2.841158   -1.648457    1.507291
     41          6           0       -3.332457    0.709548    1.024061
     42          6           0       -4.101344   -2.003858    1.056569
     43          1           0       -2.140704   -2.406518    1.857346
     44          6           0       -4.592362    0.345241    0.580645
     45          1           0       -3.035887    1.755916    1.014290
     46          6           0       -4.974069   -1.006738    0.594920
     47          1           0       -4.413225   -3.047192    1.055998
     48          1           0       -5.286418    1.102200    0.218471
     49          1           0       -5.966751   -1.285680    0.239605
     50          1           0       -0.535470   -0.802607    2.335825
 ---------------------------------------------------------------------

 SCF Done:  E(UB3LYP) =  -3684.02222603     A.U. after    2 cycles

 Isotropic polarizability for W=    0.000000      509.35 Bohr**3.
 End of Minotr F.D. properties file   721 does not exist.

 ******    1 imaginary frequencies (negative Signs) ******

                      1                      2                      3
                      A                      A                      A
 Frequencies --   -118.2079                23.9335                31.9359
 Red. masses --     10.2491                 5.7131                 9.0863
 Frc consts  --      0.0844                 0.0019                 0.0055
 IR Inten    --    462.5725                 2.6228                 1.5137

                      4                      5                      6
                      A                      A                      A
 Frequencies --     41.0946                46.1982                48.4189
 Red. masses --      4.1074                 4.4369                 4.6247
 Frc consts  --      0.0041                 0.0056                 0.0064
 IR Inten    --      0.9383                 2.1080                 6.0166

                      7                      8                      9
                      A                      A                      A
 Frequencies --     56.2407                67.1510                68.3732
 Red. masses --      7.9436                 9.7383                 5.6821
 Frc consts  --      0.0148                 0.0259                 0.0157
 IR Inten    --      2.6421                 1.5435                 0.9960

                     10                     11                     12
                      A                      A                      A
 Frequencies --     80.8201                86.5210                90.9784
 Red. masses --      5.1379                 4.7208                10.3425
 Frc consts  --      0.0198                 0.0208                 0.0504
 IR Inten    --      3.9554                 2.9717                 4.6615

                     13                     14                     15
                      A                      A                      A
 Frequencies --    100.8228               103.2262               114.7607
 Red. masses --      8.1322                13.2939                10.4208
 Frc consts  --      0.0487                 0.0835                 0.0809
 IR Inten    --      2.0792                 8.1808                11.1643

                     16                     17                     18
                      A                      A                      A
 Frequencies --    128.7408               130.2725               135.9872
 Red. masses --     32.3673                 3.3005                 3.9242
 Frc consts  --      0.3161                 0.0330                 0.0428
 IR Inten    --      7.0201                20.2246                23.7332

                     19                     20                     21
                      A                      A                      A
 Frequencies --    152.6303               164.7552               184.2512
 Red. masses --      4.7953                 2.7697                 2.8538
 Frc consts  --      0.0658                 0.0443                 0.0571
 IR Inten    --     22.3758                12.9966                 0.9101

                     22                     23                     24
                      A                      A                      A
 Frequencies --    207.6544               212.2704               235.3234
 Red. masses --      4.1429                 3.4866                 5.8407
 Frc consts  --      0.1053                 0.0926                 0.1906
 IR Inten    --     19.8109                 2.8666                16.7505

                     25                     26                     27
                      A                      A                      A
 Frequencies --    250.2914               268.2521               277.2837
 Red. masses --      4.1181                 1.7754                 2.8819
 Frc consts  --      0.1520                 0.0753                 0.1305
 IR Inten    --     69.3858                 4.8686                 2.7497

                     28                     29                     30
                      A                      A                      A
 Frequencies --    295.3754               320.5547               339.4944
 Red. masses --      5.9953                 9.4263                 9.2097
 Frc consts  --      0.3082                 0.5707                 0.6254
 IR Inten    --     21.0857                29.4472                22.3904

                     31                     32                     33
                      A                      A                      A
 Frequencies --    342.5519               351.4605               357.1304
 Red. masses --     27.2015                 7.8070                14.9459
 Frc consts  --      1.8806                 0.5682                 1.1231
 IR Inten    --    187.4726                72.4824               200.1106

                     34                     35                     36
                      A                      A                      A
 Frequencies --    381.2248               399.4573               416.6323
 Red. masses --      3.5852                 3.2994                 2.9119
 Frc consts  --      0.3070                 0.3102                 0.2978
 IR Inten    --      7.4820                 5.2033                 0.2962

                     37                     38                     39
                      A                      A                      A
 Frequencies --    422.5579               437.9320               454.2086
 Red. masses --      3.5844                 3.5898                 3.9812
 Frc consts  --      0.3771                 0.4056                 0.4839
 IR Inten    --      0.4983                 7.5902                 6.5045

                     40                     41                     42
                      A                      A                      A
 Frequencies --    494.9937               545.9040               587.2890
 Red. masses --      3.8849                 3.5014                 5.0458
 Frc consts  --      0.5608                 0.6148                 1.0254
 IR Inten    --     81.0155                 8.0113                32.9746

                     43                     44                     45
                      A                      A                      A
 Frequencies --    605.1693               619.8547               630.0288
 Red. masses --      3.2029                 5.5896                 6.2312
 Frc consts  --      0.6911                 1.2653                 1.4573
 IR Inten    --     11.8702                 3.2658                 0.3563

                     46                     47                     48
                      A                      A                      A
 Frequencies --    654.4179               663.7357               704.4707
 Red. masses --      3.1526                 1.6585                 3.2732
 Frc consts  --      0.7955                 0.4305                 0.9571
 IR Inten    --      7.8626                93.6399                99.5087

                     49                     50                     51
                      A                      A                      A
 Frequencies --    705.9885               726.3813               749.2770
 Red. masses --      1.7468                 5.8194                 4.1074
 Frc consts  --      0.5130                 1.8091                 1.3586
 IR Inten    --     22.2987                30.5112                 8.9330

                     52                     53                     54
                      A                      A                      A
 Frequencies --    773.5258               779.9614               810.9051
 Red. masses --      2.5328                 1.8580                 1.1157
 Frc consts  --      0.8929                 0.6659                 0.4323
 IR Inten    --     88.7771                32.5764                 2.9054

                     55                     56                     57
                      A                      A                      A
 Frequencies --    823.9343               831.0589               840.7577
 Red. masses --      2.0112                 1.4462                 3.2849
 Frc consts  --      0.8044                 0.5885                 1.3681
 IR Inten    --      8.5564                 4.5220                18.7647

                     58                     59                     60
                      A                      A                      A
 Frequencies --    844.5073               864.7179               880.3134
 Red. masses --      1.3116                 2.9452                 2.7614
 Frc consts  --      0.5511                 1.2975                 1.2608
 IR Inten    --      0.3537                36.7692                 9.0804

                     61                     62                     63
                      A                      A                      A
 Frequencies --    902.5399               921.5247               926.8072
 Red. masses --      3.3742                 1.9296                 2.7982
 Frc consts  --      1.6194                 0.9655                 1.4162
 IR Inten    --     24.5638                 7.5008                 8.5402

                     64                     65                     66
                      A                      A                      A
 Frequencies --    938.5694               963.4200               986.5158
 Red. masses --      1.9142                 1.3647                 1.3902
 Frc consts  --      0.9935                 0.7463                 0.7971
 IR Inten    --     17.0629                 8.9980                 4.8378

                     67                     68                     69
                      A                      A                      A
 Frequencies --    993.1837               999.9678              1001.2621
 Red. masses --      1.5728                 2.3201                 4.7044
 Frc consts  --      0.9141                 1.3669                 2.7787
 IR Inten    --     28.1527                19.7892                28.7221

                     70                     71                     72
                      A                      A                      A
 Frequencies --   1005.1912              1008.3716              1013.9831
 Red. masses --      1.4465                 2.7171                 2.4061
 Frc consts  --      0.8611                 1.6278                 1.4575
 IR Inten    --     11.3585                45.4978                21.0672

                     73                     74                     75
                      A                      A                      A
 Frequencies --   1015.4426              1025.5649              1039.2474
 Red. masses --      2.3311                 1.3799                 2.3003
 Frc consts  --      1.4162                 0.8551                 1.4638
 IR Inten    --     76.2924                 0.9223                 1.8518

                     76                     77                     78
                      A                      A                      A
 Frequencies --   1041.8900              1051.0633              1056.2655
 Red. masses --      3.1641                 2.3375                 2.3490
 Frc consts  --      2.0237                 1.5215                 1.5441
 IR Inten    --      2.9053                93.6669                81.2833

                     79                     80                     81
                      A                      A                      A
 Frequencies --   1077.9326              1088.7755              1102.7754
 Red. masses --      3.7844                 2.5107                 1.7099
 Frc consts  --      2.5908                 1.7536                 1.2251
 IR Inten    --    202.5811                46.8870                14.0746

                     82                     83                     84
                      A                      A                      A
 Frequencies --   1118.8457              1132.5780              1145.1489
 Red. masses --      1.7567                 2.1838                 2.0521
 Frc consts  --      1.2956                 1.6504                 1.5856
 IR Inten    --     33.9912                18.1483                45.8947

                     85                     86                     87
                      A                      A                      A
 Frequencies --   1168.0170              1168.9563              1179.4681
 Red. masses --      1.5264                 1.0945                 1.1160
 Frc consts  --      1.2269                 0.8812                 0.9147
 IR Inten    --     11.5596                 0.3830                 8.4212

                     88                     89                     90
                      A                      A                      A
 Frequencies --   1181.0973              1189.1455              1199.7806
 Red. masses --      1.6274                 1.2059                 1.1831
 Frc consts  --      1.3376                 1.0047                 1.0034
 IR Inten    --     66.3723                91.4972                11.8368

                     91                     92                     93
                      A                      A                      A
 Frequencies --   1211.1450              1215.3556              1219.7069
 Red. masses --      1.3249                 2.2022                 1.4660
 Frc consts  --      1.1451                 1.9166                 1.2850
 IR Inten    --     39.9709               320.8034               115.1233

                     94                     95                     96
                      A                      A                      A
 Frequencies --   1247.0670              1274.5889              1286.9466
 Red. masses --      1.7235                 1.7213                 1.1108
 Frc consts  --      1.5792                 1.6475                 1.0839
 IR Inten    --     71.6970               163.6846                10.7484

                     97                     98                     99
                      A                      A                      A
 Frequencies --   1300.9090              1311.1819              1328.1205
 Red. masses --      1.5673                 1.4219                 1.5214
 Frc consts  --      1.5627                 1.4402                 1.5811
 IR Inten    --     35.9248                63.3526                41.0675

                    100                    101                    102
                      A                      A                      A
 Frequencies --   1337.2909              1342.0405              1349.4851
 Red. masses --      1.9009                 1.4720                 1.4727
 Frc consts  --      2.0029                 1.5620                 1.5802
 IR Inten    --     31.6552                16.6691               124.6033

                    103                    104                    105
                      A                      A                      A
 Frequencies --   1359.4099              1367.5910              1393.7764
 Red. masses --      2.2083                 1.3578                 1.4848
 Frc consts  --      2.4045                 1.4962                 1.6994
 IR Inten    --      6.2546                39.4610               129.6779

                    106                    107                    108
                      A                      A                      A
 Frequencies --   1399.3601              1415.6249              1458.2247
 Red. masses --      6.0268                 1.7052                 2.1033
 Frc consts  --      6.9534                 2.0134                 2.6351
 IR Inten    --     83.4124                47.9655               124.2004

                    109                    110                    111
                      A                      A                      A
 Frequencies --   1465.6343              1468.4099              1473.5444
 Red. masses --      1.0395                 2.1165                 1.1442
 Frc consts  --      1.3156                 2.6888                 1.4638
 IR Inten    --      5.8958                12.5292                29.2932

                    112                    113                    114
                      A                      A                      A
 Frequencies --   1474.5821              1485.6849              1489.9666
 Red. masses --      1.0540                 1.1892                 1.8101
 Frc consts  --      1.3502                 1.5465                 2.3676
 IR Inten    --      2.4348                27.0179                52.5302

                    115                    116                    117
                      A                      A                      A
 Frequencies --   1497.7305              1522.2218              1546.0168
 Red. masses --      1.0916                 2.2219                 3.2112
 Frc consts  --      1.4428                 3.0334                 4.5221
 IR Inten    --     19.7224                 5.3147               343.8252

                    118                    119                    120
                      A                      A                      A
 Frequencies --   1599.1697              1624.3803              1638.1227
 Red. masses --      4.6537                 5.7090                 5.6821
 Frc consts  --      7.0120                 8.8754                 8.9836
 IR Inten    --      3.0078                 2.5845               491.7207

                    121                    122                    123
                      A                      A                      A
 Frequencies --   1644.4538              1733.1368              3038.5700
 Red. masses --      5.8476                10.7950                 1.0350
 Frc consts  --      9.3170                19.1046                 5.6305
 IR Inten    --      1.0538               446.6847                23.9410

                    124                    125                    126
                      A                      A                      A
 Frequencies --   3067.7237              3070.2519              3079.3005
 Red. masses --      1.0616                 1.0620                 1.0619
 Frc consts  --      5.8865                 5.8981                 5.9322
 IR Inten    --     36.4651                40.8560                40.6608

                    127                    128                    129
                      A                      A                      A
 Frequencies --   3113.0335              3117.5224              3121.5944
 Red. masses --      1.1029                 1.1034                 1.1012
 Frc consts  --      6.2974                 6.3182                 6.3220
 IR Inten    --     19.2671                28.4571                25.2771

                    130                    131                    132
                      A                      A                      A
 Frequencies --   3131.2838              3132.9546              3140.6845
 Red. masses --      1.1041                 1.0861                 1.1063
 Frc consts  --      6.3785                 6.2809                 6.4293
 IR Inten    --     19.3329                11.4016                34.1053

                    133                    134                    135
                      A                      A                      A
 Frequencies --   3148.1779              3173.9361              3183.0879
 Red. masses --      1.0894                 1.0855                 1.0901
 Frc consts  --      6.3614                 6.4427                 6.5072
 IR Inten    --     24.7224                 0.2280                15.7947

                    136                    137                    138
                      A                      A                      A
 Frequencies --   3189.0445              3190.8730              3195.2003
 Red. masses --      1.0905                 1.0879                 1.0950
 Frc consts  --      6.5340                 6.5259                 6.5863
 IR Inten    --      4.7305                 2.0725                31.7359

                    139                    140                    141
                      A                      A                      A
 Frequencies --   3198.4639              3206.9766              3208.2716
 Red. masses --      1.0904                 1.0922                 1.0922
 Frc consts  --      6.5725                 6.6185                 6.6234
 IR Inten    --      0.4047                10.5586                 9.5926

                    142                    143                    144
                      A                      A                      A
 Frequencies --   3209.2191              3214.8803              3225.4321
 Red. masses --      1.0948                 1.0979                 1.0950
 Frc consts  --      6.6433                 6.6858                 6.7115
 IR Inten    --     10.8734                11.3477                 3.8346

 - Thermochemistry -
 -------------------
 Temperature   298.150 Kelvin.  Pressure   1.00000 Atm.
 Atom     1 has atomic number  6 and mass  12.00000

 Molecular mass:   482.99839 amu.
 Principal axes and moments of inertia in atomic units:
                           1         2         3
     Eigenvalues --  ******************************
           X            0.99907  -0.04247   0.00803
           Y            0.04274   0.99843  -0.03633
           Z           -0.00647   0.03664   0.99931
 This molecule is an asymmetric top.
 Rotational symmetry number  1.
 Warning -- assumption of classical behavior for rotation
           may cause significant error
 Rotational temperatures (Kelvin)      0.00729     0.00660     0.00573
 Rotational constants (GHZ):           0.15180     0.13742     0.11950
    1 imaginary frequencies ignored.
 Zero-point vibrational energy    1013504.1 (Joules/Mol)
                                  242.23329 (Kcal/Mol)
 Warning -- explicit consideration of  43 degrees of freedom as
           vibrations may cause significant error
 Vibrational temperatures:     34.43    45.95    59.13    66.47    69.66
          (Kelvin)             80.92    96.62    98.37   116.28   124.48
                              130.90   145.06   148.52   165.12   185.23
                              187.43   195.66   219.60   237.05   265.10
                              298.77   305.41   338.58   360.11   385.95
                              398.95   424.98   461.21   488.46   492.86
                              505.67   513.83   548.50   574.73   599.44
                              607.97   630.09   653.50   712.19   785.43
                              844.98   870.70   891.83   906.47   941.56
                              954.97  1013.58  1015.76  1045.10  1078.04
                             1112.93  1122.19  1166.71  1185.46  1195.71
                             1209.66  1215.06  1244.14  1266.57  1298.55
                             1325.87  1333.47  1350.39  1386.15  1419.38
                             1428.97  1438.73  1440.59  1446.25  1450.82
                             1458.90  1461.00  1475.56  1495.25  1499.05
                             1512.25  1519.73  1550.90  1566.51  1586.65
                             1609.77  1629.53  1647.61  1680.52  1681.87
                             1696.99  1699.34  1710.92  1726.22  1742.57
                             1748.63  1754.89  1794.25  1833.85  1851.63
                             1871.72  1886.50  1910.87  1924.06  1930.90
                             1941.61  1955.89  1967.66  2005.33  2013.37
                             2036.77  2098.06  2108.72  2112.71  2120.10
                             2121.59  2137.57  2143.73  2154.90  2190.14
                             2224.37  2300.85  2337.12  2356.89  2366.00
                             2493.60  4371.82  4413.77  4417.41  4430.43
                             4478.96  4485.42  4491.28  4505.22  4507.62
                             4518.74  4529.53  4566.59  4579.75  4588.32
                             4590.95  4597.18  4601.88  4614.12  4615.99
                             4617.35  4625.50  4640.68

 Zero-point correction=                           0.386023 (Hartree/Particle)
 Thermal correction to Energy=                    0.414471
 Thermal correction to Enthalpy=                  0.415415
 Thermal correction to Gibbs Free Energy=         0.322885
 Sum of electronic and zero-point Energies=          -3683.636203
 Sum of electronic and thermal Energies=             -3683.607755
 Sum of electronic and thermal Enthalpies=           -3683.606811
 Sum of electronic and thermal Free Energies=        -3683.699341

                     E (Thermal)             CV                S
                      KCal/Mol        Cal/Mol-Kelvin    Cal/Mol-Kelvin
 Total                  260.084            103.996            194.745
 Electronic               0.000              0.000              3.561
 Translational            0.889              2.981             44.412
 Rotational               0.889              2.981             36.110
 Vibrational            258.307             98.035            110.662
 Vibration     1          0.593              1.985              6.278
 Vibration     2          0.594              1.983              5.705
 Vibration     3          0.594              1.981              5.206
 Vibration     4          0.595              1.979              4.974
 Vibration     5          0.595              1.978              4.881
 Vibration     6          0.596              1.975              4.585
 Vibration     7          0.598              1.970              4.235
 Vibration     8          0.598              1.969              4.200
 Vibration     9          0.600              1.962              3.871
 Vibration    10          0.601              1.959              3.737
 Vibration    11          0.602              1.956              3.639
 Vibration    12          0.604              1.948              3.438
 Vibration    13          0.605              1.947              3.392
 Vibration    14          0.608              1.937              3.187
 Vibration    15          0.611              1.925              2.965
 Vibration    16          0.612              1.923              2.942
 Vibration    17          0.614              1.917              2.860
 Vibration    18          0.619              1.900              2.639
 Vibration    19          0.623              1.886              2.494
 Vibration    20          0.631              1.861              2.285
 Vibration    21          0.641              1.829              2.064
 Vibration    22          0.643              1.822              2.024
 Vibration    23          0.655              1.787              1.838
 Vibration    24          0.663              1.762              1.729
 Vibration    25          0.673              1.731              1.607
 Vibration    26          0.678              1.715              1.550
 Vibration    27          0.690              1.682              1.443
 Vibration    28          0.706              1.634              1.307
 Vibration    29          0.719              1.597              1.215
 Vibration    30          0.722              1.590              1.200
 Vibration    31          0.728              1.572              1.160
 Vibration    32          0.732              1.561              1.135
 Vibration    33          0.751              1.510              1.034
 Vibration    34          0.766              1.471              0.965
 Vibration    35          0.780              1.434              0.903
 Vibration    36          0.785              1.421              0.883
 Vibration    37          0.798              1.387              0.833
 Vibration    38          0.813              1.352              0.783
 Vibration    39          0.851              1.261              0.671
 Vibration    40          0.901              1.149              0.553
 Vibration    41          0.944              1.059              0.472
 Vibration    42          0.964              1.021              0.441
 Vibration    43          0.980              0.990              0.417

 Optimization completed.
    -- Stationary point found.
 Normal termination of Gaussian 16 at Thu Jul 15 03:15:45 2021.
