 Gaussian 16, Revision A.03,
 Gaussian 16:  ES64L-G16RevA.03 25-Dec-2016

 -------------------------------------------------------------------
 #p freq=noraman ub3lyp scrf=(solvent=water,pcm) jul-cc-pvdz pop=cm5
 -------------------------------------------------------------------

 -----
 title
 -----
 Symbolic Z-matrix:
 Charge =  0 Multiplicity = 6

                         Standard orientation:
 ---------------------------------------------------------------------
 Center     Atomic      Atomic             Coordinates (Angstroms)
 Number     Number       Type             X           Y           Z
 ---------------------------------------------------------------------
      1          6           0        1.398134   -2.345446    0.900497
      2          6           0        0.789217   -1.086170    1.040514
      3          6           0        0.494812   -0.623728    2.330277
      4          6           0        0.801142   -1.399901    3.453790
      5          6           0        1.406834   -2.651159    3.305702
      6          6           0        1.705624   -3.120584    2.021748
      7          6           0        0.444447   -0.236959   -0.189019
      8          6           0        1.679058    0.109023   -1.149727
      9          6           0        1.400399   -0.559666   -2.502252
     10          6           0       -0.129129   -0.582911   -2.592524
     11          6           0       -0.521701   -1.081402   -1.169171
     12          6           0       -1.936485   -0.868275   -0.892280
     13          8           0       -0.189402    0.933468    0.197942
     14         26           0       -0.583381    2.709305    0.175948
     15         17           0        0.934338    3.956028   -0.951821
     16         17           0       -0.665265    3.441173    2.328976
     17         17           0       -2.630543    2.941619   -0.817251
     18          1           0        0.027754    0.351214    2.454235
     19          1           0        0.564831   -1.020683    4.449351
     20          1           0        1.644467   -3.256463    4.181760
     21          1           0        2.178859   -4.094647    1.889565
     22          1           0        1.647703   -2.735628   -0.086631
     23          1           0        1.610844    1.196140   -1.271604
     24          6           0        3.044096   -0.110441   -0.521751
     25          1           0        1.854094   -0.004811   -3.333259
     26          1           0        1.794790   -1.582896   -2.529380
     27          1           0       -0.534718    0.421455   -2.771931
     28          1           0       -0.512770   -1.256095   -3.367805
     29          1           0       -0.242303   -2.135104   -1.091780
     30          8           0        3.736717   -1.110943   -1.084285
     31          8           0        3.473597    0.576214    0.389768
     32          6           0        5.066298   -1.376361   -0.547242
     33          6           0        5.661585   -2.520902   -1.340432
     34          1           0        5.660231   -0.457534   -0.635495
     35          1           0        4.961349   -1.620713    0.517768
     36          1           0        6.666237   -2.741679   -0.953282
     37          1           0        5.048481   -3.427892   -1.247237
     38          1           0        5.750627   -2.260619   -2.404206
     39          6           0       -2.926011   -1.827983   -0.653825
     40          6           0       -4.264851   -1.368784   -0.432822
     41          6           0       -2.657813   -3.233732   -0.614076
     42          6           0       -5.283596   -2.271551   -0.184464
     43          1           0       -4.465307   -0.297367   -0.463557
     44          6           0       -3.683785   -4.124770   -0.362510
     45          1           0       -1.648009   -3.602645   -0.781400
     46          6           0       -4.991135   -3.645584   -0.149202
     47          1           0       -6.302278   -1.924728   -0.016182
     48          1           0       -3.486575   -5.195421   -0.329421
     49          1           0       -5.793514   -4.358182    0.047643
     50          1           0       -2.262040    0.176221   -0.884943
 ---------------------------------------------------------------------

 SCF Done:  E(UB3LYP) =  -3683.89305077     A.U. after   24 cycles

 The electronic state is 6-A.
 Alpha  occ. eigenvalues -- -256.19392-101.51366-101.51165-101.51014 -30.18788
 Alpha  occ. eigenvalues --  -26.04100 -26.04060 -26.03893 -19.20299 -19.15808
 Alpha  occ. eigenvalues --  -19.14762 -10.32727 -10.28979 -10.28658 -10.25219
 Alpha  occ. eigenvalues --  -10.25125 -10.24933 -10.24853 -10.24820 -10.23223
 Alpha  occ. eigenvalues --  -10.23138 -10.23100 -10.21518 -10.21287 -10.20996
 Alpha  occ. eigenvalues --  -10.20167 -10.20067 -10.20008 -10.19963 -10.19912
 Alpha  occ. eigenvalues --  -10.19639 -10.18743  -9.43059  -9.42834  -9.42702
 Alpha  occ. eigenvalues --   -7.18922  -7.18707  -7.18605  -7.18602  -7.18575
 Alpha  occ. eigenvalues --   -7.18387  -7.18358  -7.18258  -7.18218  -3.66525
 Alpha  occ. eigenvalues --   -2.44026  -2.43901  -2.43697  -1.11900  -1.03300
 Alpha  occ. eigenvalues --   -1.02937  -0.91365  -0.87622  -0.86371  -0.83433
 Alpha  occ. eigenvalues --   -0.79745  -0.79098  -0.78910  -0.78257  -0.78065
 Alpha  occ. eigenvalues --   -0.77456  -0.76756  -0.75615  -0.72463  -0.69807
 Alpha  occ. eigenvalues --   -0.66147  -0.65106  -0.63409  -0.61868  -0.61662
 Alpha  occ. eigenvalues --   -0.60146  -0.58792  -0.57264  -0.56147  -0.54124
 Alpha  occ. eigenvalues --   -0.53446  -0.51628  -0.50768  -0.50249  -0.49123
 Alpha  occ. eigenvalues --   -0.48843  -0.48119  -0.47537  -0.47045  -0.46895
 Alpha  occ. eigenvalues --   -0.46571  -0.46503  -0.46332  -0.45915  -0.45230
 Alpha  occ. eigenvalues --   -0.44713  -0.44021  -0.43259  -0.42858  -0.42558
 Alpha  occ. eigenvalues --   -0.41644  -0.41173  -0.40675  -0.40062  -0.39761
 Alpha  occ. eigenvalues --   -0.39183  -0.38690  -0.37807  -0.37457  -0.37363
 Alpha  occ. eigenvalues --   -0.36707  -0.36483  -0.36116  -0.35801  -0.34958
 Alpha  occ. eigenvalues --   -0.34623  -0.33715  -0.33331  -0.32213  -0.31674
 Alpha  occ. eigenvalues --   -0.30619  -0.30331  -0.30232  -0.30188  -0.29857
 Alpha  occ. eigenvalues --   -0.29675  -0.29420  -0.29067  -0.28350  -0.28217
 Alpha  occ. eigenvalues --   -0.26511  -0.25931
 Alpha virt. eigenvalues --   -0.16104  -0.05165  -0.03189  -0.02922  -0.02195
 Alpha virt. eigenvalues --   -0.01522  -0.01053  -0.00544  -0.00271   0.00097
 Alpha virt. eigenvalues --    0.01026   0.01187   0.01365   0.01694   0.02412

  Beta  occ. eigenvalues -- -256.19209-101.51207-101.51019-101.50865 -30.09831
  Beta  occ. eigenvalues --  -25.96619 -25.96595 -25.96446 -19.20298 -19.14896
  Beta  occ. eigenvalues --  -19.14760 -10.32727 -10.28957 -10.28657 -10.25217
  Beta  occ. eigenvalues --  -10.25125 -10.24932 -10.24853 -10.24819 -10.23224
  Beta  occ. eigenvalues --  -10.23139 -10.23070 -10.21494 -10.21288 -10.20970
  Beta  occ. eigenvalues --  -10.20165 -10.20065 -10.20007 -10.19964 -10.19912
  Beta  occ. eigenvalues --  -10.19640 -10.18743  -9.42902  -9.42690  -9.42554
  Beta  occ. eigenvalues --   -7.18647  -7.18437  -7.18398  -7.18394  -7.18304
  Beta  occ. eigenvalues --   -7.18193  -7.18191  -7.18055  -7.18046  -3.45657
  Beta  occ. eigenvalues --   -2.21971  -2.21901  -2.21781  -1.11897  -1.03083
  Beta  occ. eigenvalues --   -1.01334  -0.91343  -0.87397  -0.86349  -0.83394
  Beta  occ. eigenvalues --   -0.79742  -0.79080  -0.77935  -0.77310  -0.77211
  Beta  occ. eigenvalues --   -0.77034  -0.76725  -0.75602  -0.72398  -0.69648
  Beta  occ. eigenvalues --   -0.66038  -0.65103  -0.63327  -0.61795  -0.61612
  Beta  occ. eigenvalues --   -0.60094  -0.58421  -0.56932  -0.56075  -0.53987
  Beta  occ. eigenvalues --   -0.52370  -0.51543  -0.50629  -0.50233  -0.48848
  Beta  occ. eigenvalues --   -0.48357  -0.47806  -0.47240  -0.46472  -0.45894
  Beta  occ. eigenvalues --   -0.45560  -0.44429  -0.44017  -0.42984  -0.42545
  Beta  occ. eigenvalues --   -0.41640  -0.41303  -0.40737  -0.40041  -0.39718
  Beta  occ. eigenvalues --   -0.39170  -0.38678  -0.37704  -0.37405  -0.37298
  Beta  occ. eigenvalues --   -0.36693  -0.36625  -0.36402  -0.35751  -0.35143
  Beta  occ. eigenvalues --   -0.34813  -0.34534  -0.34420  -0.32601  -0.32147
  Beta  occ. eigenvalues --   -0.31954  -0.31721  -0.31702  -0.31150  -0.31077
  Beta  occ. eigenvalues --   -0.30194  -0.29109  -0.28891  -0.28488  -0.28241
  Beta  occ. eigenvalues --   -0.26514  -0.25925
  Beta virt. eigenvalues --   -0.16128  -0.13143  -0.13093  -0.11961  -0.11755
  Beta virt. eigenvalues --   -0.10840  -0.05160  -0.03140  -0.02895  -0.02179
  Beta virt. eigenvalues --   -0.01411  -0.01013  -0.00496  -0.00255   0.00121

 Mulliken charges and spin densities:
               1          2
     1  C   -0.186679   0.001277
     2  C    2.341872   0.008984
     3  C   -0.503968  -0.009084
     4  C   -0.066305   0.005087
     5  C    0.239104  -0.001505
     6  C   -0.123603   0.001641
     7  C   -0.310318  -0.007876
     8  C    0.403912   0.004323
     9  C    0.611154   0.001551
    10  C    0.861627   0.003581
    11  C   -1.205909   0.039583
    12  C   -0.150606  -0.016829
    13  O   -0.611645   0.307249
    14  Fe   0.724259   4.040016
    15  Cl  -0.526467   0.210338
    16  Cl  -0.551934   0.201071
    17  Cl  -0.547405   0.193004
    18  H   -0.215906   0.002249
    19  H   -0.159935   0.000033
    20  H   -0.167246   0.000019
    21  H   -0.164666   0.000224
    22  H   -0.217476   0.000027
    23  H   -0.233546  -0.000011
    24  C    0.907502   0.006521
    25  H   -0.161071   0.000611
    26  H   -0.062851  -0.000135
    27  H   -0.054023  -0.000182
    28  H   -0.157049   0.000429
    29  H   -0.198519   0.000978
    30  O   -0.774898   0.000532
    31  O   -0.711306   0.000097
    32  C    0.456844   0.000236
    33  C    0.078507  -0.000001
    34  H   -0.044709   0.000013
    35  H   -0.042505   0.000021
    36  H   -0.003110   0.000009
    37  H    0.020801  -0.000001
    38  H    0.021446   0.000003
    39  C    2.791460   0.003064
    40  C   -0.362309   0.000347
    41  C    0.153977   0.000175
    42  C   -0.160838  -0.000671
    43  H   -0.148560  -0.000287
    44  C   -0.181858  -0.000783
    45  H   -0.205589  -0.000124
    46  C    0.255088   0.001475
    47  H   -0.143770   0.000008
    48  H   -0.135121   0.000004
    49  H   -0.121513  -0.000021
    50  H   -0.254338   0.002732
 Sum of Mulliken charges =  -0.00000   5.00000

 Dipole moment (field-independent basis, Debye):
    X=             -7.5748    Y=            -26.3451    Z=             -6.5219  Tot=             28.1776
 Quadrupole moment (field-independent basis, Debye-Ang):
   XX=           -146.4799   YY=           -213.7609   ZZ=           -199.4563
   XY=             26.8754   XZ=             -2.9516   YZ=             -2.4060

  Exact polarizability: 576.515  31.009 552.669 -10.863  -9.299 449.860
 Approx polarizability: 596.643  28.533 589.526 -22.976  -8.611 495.390

 ******    1 imaginary frequencies (negative Signs) ******

                      1                      2                      3
                      A                      A                      A
 Frequencies --    -24.2302                 8.9437                17.3888
 Red. masses --     18.8230                 4.7575                 5.3752
 Frc consts  --      0.0065                 0.0002                 0.0010
 IR Inten    --      2.1770                 1.0161                 3.1094

                      4                      5                      6
                      A                      A                      A
 Frequencies --     24.8209                29.6539                40.7041
 Red. masses --      4.1515                10.5752                 6.5003
 Frc consts  --      0.0015                 0.0055                 0.0063
 IR Inten    --      0.2241                 3.3973                 2.7532

                      7                      8                      9
                      A                      A                      A
 Frequencies --     50.1169                53.9646                68.1520
 Red. masses --      4.0295                 3.5513                 5.4202
 Frc consts  --      0.0060                 0.0061                 0.0148
 IR Inten    --      0.5960                 0.0488                 0.4107

                     10                     11                     12
                      A                      A                      A
 Frequencies --     76.5088                78.0737                84.1814
 Red. masses --      5.1237                 5.1649                 8.8193
 Frc consts  --      0.0177                 0.0185                 0.0368
 IR Inten    --      4.5824                 5.1894                 0.8652

                     13                     14                     15
                      A                      A                      A
 Frequencies --     85.3716                99.4084               110.9905
 Red. masses --     10.3996                16.6305                 6.9140
 Frc consts  --      0.0447                 0.0968                 0.0502
 IR Inten    --      8.9873                10.8732                 7.9854

                     16                     17                     18
                      A                      A                      A
 Frequencies --    119.2225               124.3041               128.7769
 Red. masses --      4.2226                 5.0531                 6.2053
 Frc consts  --      0.0354                 0.0460                 0.0606
 IR Inten    --      1.5372                 3.2897                 4.4510

                     19                     20                     21
                      A                      A                      A
 Frequencies --    151.2746               156.2643               189.8028
 Red. masses --      3.8053                 6.4940                 3.0320
 Frc consts  --      0.0513                 0.0934                 0.0644
 IR Inten    --      2.7128                 3.2281                 3.2279

                     22                     23                     24
                      A                      A                      A
 Frequencies --    214.5342               230.2641               253.8645
 Red. masses --      3.4092                 5.5047                 2.8834
 Frc consts  --      0.0924                 0.1720                 0.1095
 IR Inten    --      2.5966                 1.1536                 5.9723

                     25                     26                     27
                      A                      A                      A
 Frequencies --    261.4872               272.0989               283.4013
 Red. masses --      1.6701                 3.6785                 7.0606
 Frc consts  --      0.0673                 0.1605                 0.3341
 IR Inten    --      1.2659                 3.9376                30.4721

                     28                     29                     30
                      A                      A                      A
 Frequencies --    299.9883               319.8082               327.8569
 Red. masses --      6.9783                17.8403                 7.8622
 Frc consts  --      0.3700                 1.0751                 0.4979
 IR Inten    --     12.0712               147.0661               101.8302

                     31                     32                     33
                      A                      A                      A
 Frequencies --    337.8800               339.1696               367.4615
 Red. masses --     21.3983                 9.9438                 3.0845
 Frc consts  --      1.4393                 0.6740                 0.2454
 IR Inten    --    140.5214               127.1534                 2.6951

                     34                     35                     36
                      A                      A                      A
 Frequencies --    385.1406               411.9043               415.7307
 Red. masses --      3.4987                 3.7022                 2.9623
 Frc consts  --      0.3058                 0.3701                 0.3016
 IR Inten    --     15.9953                 5.6254                 3.8620

                     37                     38                     39
                      A                      A                      A
 Frequencies --    429.5669               431.0406               468.6026
 Red. masses --      3.9219                 4.2619                 2.8853
 Frc consts  --      0.4264                 0.4665                 0.3733
 IR Inten    --     22.9140                32.1008                10.0915

                     40                     41                     42
                      A                      A                      A
 Frequencies --    487.3736               539.3674               545.9847
 Red. masses --      3.9584                 3.1647                 3.1102
 Frc consts  --      0.5540                 0.5424                 0.5463
 IR Inten    --     17.4188                29.1963                 8.4946

                     43                     44                     45
                      A                      A                      A
 Frequencies --    579.7128               612.6720               625.2078
 Red. masses --      4.9946                 6.2664                 4.6758
 Frc consts  --      0.9890                 1.3859                 1.0768
 IR Inten    --     41.8523                13.7025                65.4078

                     46                     47                     48
                      A                      A                      A
 Frequencies --    626.7389               651.5039               654.4133
 Red. masses --      6.2940                 2.3826                 2.2568
 Frc consts  --      1.4566                 0.5959                 0.5694
 IR Inten    --      1.3592                29.7157                44.9235

                     49                     50                     51
                      A                      A                      A
 Frequencies --    704.7128               709.0769               746.5369
 Red. masses --      3.6296                 1.7715                 3.0701
 Frc consts  --      1.0620                 0.5248                 1.0081
 IR Inten    --      8.2191               133.0635               129.4394

                     52                     53                     54
                      A                      A                      A
 Frequencies --    765.5323               784.3679               785.6671
 Red. masses --      2.9904                 2.1272                 2.9988
 Frc consts  --      1.0325                 0.7711                 1.0906
 IR Inten    --      8.9181                63.9282                85.1998

                     55                     56                     57
                      A                      A                      A
 Frequencies --    807.6065               828.9478               844.7931
 Red. masses --      1.1542                 1.3273                 3.2673
 Frc consts  --      0.4435                 0.5374                 1.3739
 IR Inten    --      1.8386                 2.9740                 7.8295

                     58                     59                     60
                      A                      A                      A
 Frequencies --    849.6385               864.6371               873.5329
 Red. masses --      1.3043                 3.0457                 3.1210
 Frc consts  --      0.5548                 1.3415                 1.4032
 IR Inten    --      1.3692                 6.6790               103.3979

                     61                     62                     63
                      A                      A                      A
 Frequencies --    893.5791               905.7498               936.0609
 Red. masses --      2.7971                 2.0164                 2.3595
 Frc consts  --      1.3159                 0.9746                 1.2181
 IR Inten    --    131.5025                16.4824                34.2605

                     64                     65                     66
                      A                      A                      A
 Frequencies --    942.7563               974.3190               978.7478
 Red. masses --      2.0228                 1.3774                 2.1813
 Frc consts  --      1.0592                 0.7704                 1.2312
 IR Inten    --     37.0115                 2.6540                23.6667

                     67                     68                     69
                      A                      A                      A
 Frequencies --    987.5465               991.6132               998.3917
 Red. masses --      1.3767                 5.0492                 2.7144
 Frc consts  --      0.7910                 2.9252                 1.5941
 IR Inten    --      0.1690                35.3054                34.3031

                     70                     71                     72
                      A                      A                      A
 Frequencies --   1001.4472              1003.3598              1004.4823
 Red. masses --      1.4920                 2.2951                 2.1027
 Frc consts  --      0.8816                 1.3613                 1.2500
 IR Inten    --      1.5819                 8.4956                11.2644

                     73                     74                     75
                      A                      A                      A
 Frequencies --   1010.7953              1029.6393              1032.6792
 Red. masses --      2.2345                 1.8491                 2.2084
 Frc consts  --      1.3451                 1.1550                 1.3876
 IR Inten    --    100.0963               103.3396                 0.4523

                     76                     77                     78
                      A                      A                      A
 Frequencies --   1033.7456              1043.0603              1046.8517
 Red. masses --      1.4690                 3.5672                 2.3034
 Frc consts  --      0.9249                 2.2867                 1.4873
 IR Inten    --     10.0967               206.6635                24.3448

                     79                     80                     81
                      A                      A                      A
 Frequencies --   1079.8623              1085.8837              1104.8445
 Red. masses --      3.0664                 2.2748                 1.7036
 Frc consts  --      2.1067                 1.5804                 1.2253
 IR Inten    --    463.4253               282.5918                61.9427

                     82                     83                     84
                      A                      A                      A
 Frequencies --   1106.9505              1126.5270              1144.6589
 Red. masses --      1.7136                 2.0813                 2.0497
 Frc consts  --      1.2372                 1.5562                 1.5823
 IR Inten    --    132.9651                11.5159               180.5283

                     85                     86                     87
                      A                      A                      A
 Frequencies --   1165.0750              1166.1857              1181.3343
 Red. masses --      1.5434                 1.0809                 1.1058
 Frc consts  --      1.2344                 0.8661                 0.9092
 IR Inten    --      6.7230                 0.7181                 4.5233

                     88                     89                     90
                      A                      A                      A
 Frequencies --   1185.6510              1187.8451              1192.6514
 Red. masses --      1.4281                 1.5239                 1.2181
 Frc consts  --      1.1829                 1.2668                 1.0208
 IR Inten    --      6.5565                14.1793                99.0294

                     91                     92                     93
                      A                      A                      A
 Frequencies --   1196.6767              1211.5666              1250.1300
 Red. masses --      1.8018                 1.7838                 1.2888
 Frc consts  --      1.5203                 1.5427                 1.1867
 IR Inten    --     67.6874               130.6171               134.5131

                     94                     95                     96
                      A                      A                      A
 Frequencies --   1266.6149              1280.7005              1281.1354
 Red. masses --      3.6785                 1.2461                 1.2685
 Frc consts  --      3.4771                 1.2042                 1.2266
 IR Inten    --    649.9559                 7.3676                 3.3505

                     97                     98                     99
                      A                      A                      A
 Frequencies --   1289.9386              1304.4427              1310.2741
 Red. masses --      1.3526                 1.3800                 1.3427
 Frc consts  --      1.3260                 1.3835                 1.3581
 IR Inten    --     69.3407                96.7336                71.4351

                    100                    101                    102
                      A                      A                      A
 Frequencies --   1330.0252              1338.6188              1352.3795
 Red. masses --      1.8175                 1.4019                 2.1317
 Frc consts  --      1.8942                 1.4800                 2.2970
 IR Inten    --      7.3794                21.9346                46.6875

                    103                    104                    105
                      A                      A                      A
 Frequencies --   1353.5054              1360.8552              1377.5417
 Red. masses --      1.9232                 1.4773                 1.3444
 Frc consts  --      2.0758                 1.6119                 1.5030
 IR Inten    --    134.5455                18.7656                22.7769

                    106                    107                    108
                      A                      A                      A
 Frequencies --   1405.5541              1406.3832              1459.3556
 Red. masses --      5.0433                 1.4705                 2.2733
 Frc consts  --      5.8703                 1.7137                 2.8525
 IR Inten    --    101.1590                 7.6170               128.4090

                    109                    110                    111
                      A                      A                      A
 Frequencies --   1465.8690              1465.9987              1473.2415
 Red. masses --      2.2629                 1.0422                 1.0548
 Frc consts  --      2.8649                 1.3197                 1.3488
 IR Inten    --     14.8143                 7.9797                 2.4051

                    112                    113                    114
                      A                      A                      A
 Frequencies --   1475.9465              1487.1035              1491.4850
 Red. masses --      1.0954                 1.1076                 1.9445
 Frc consts  --      1.4060                 1.4432                 2.5486
 IR Inten    --     37.0090                16.6025                75.0730

                    115                    116                    117
                      A                      A                      A
 Frequencies --   1498.5071              1515.1152              1556.8099
 Red. masses --      1.0871                 2.2011                 3.4203
 Frc consts  --      1.4382                 2.9770                 4.8841
 IR Inten    --     12.2695                15.8248               716.3049

                    118                    119                    120
                      A                      A                      A
 Frequencies --   1584.9343              1621.3520              1633.7799
 Red. masses --      4.1957                 5.8675                 5.6209
 Frc consts  --      6.2098                 9.0879                 8.8398
 IR Inten    --      8.2464                 2.7756               696.0978

                    121                    122                    123
                      A                      A                      A
 Frequencies --   1639.7108              1725.2054              3039.0611
 Red. masses --      5.8475                11.7005                 1.0351
 Frc consts  --      9.2631                20.5181                 5.6327
 IR Inten    --     12.3493               450.6980                24.6197

                    124                    125                    126
                      A                      A                      A
 Frequencies --   3063.8625              3064.2066              3067.4579
 Red. masses --      1.0598                 1.0580                 1.0614
 Frc consts  --      5.8614                 5.8527                 5.8844
 IR Inten    --     30.1562                20.3204                38.0452

                    127                    128                    129
                      A                      A                      A
 Frequencies --   3086.5182              3106.6396              3116.2124
 Red. masses --      1.0851                 1.1059                 1.1030
 Frc consts  --      6.0907                 6.2886                 6.3105
 IR Inten    --      4.8760                 0.0305                17.8500

                    130                    131                    132
                      A                      A                      A
 Frequencies --   3118.2742              3121.6181              3128.1128
 Red. masses --      1.1014                 1.0947                 1.1075
 Frc consts  --      6.3100                 6.2849                 6.3852
 IR Inten    --     32.9501                 3.3432                64.0110

                    133                    134                    135
                      A                      A                      A
 Frequencies --   3133.1907              3157.1307              3168.5784
 Red. masses --      1.0985                 1.0899                 1.0851
 Frc consts  --      6.3534                 6.4003                 6.4185
 IR Inten    --     48.2754                23.3939                 1.6874

                    136                    137                    138
                      A                      A                      A
 Frequencies --   3175.8852              3185.1174              3192.6088
 Red. masses --      1.0887                 1.0931                 1.0881
 Frc consts  --      6.4695                 6.5339                 6.5346
 IR Inten    --      8.2315                33.7805                 0.9898

                    139                    140                    141
                      A                      A                      A
 Frequencies --   3194.9267              3198.6801              3209.1942
 Red. masses --      1.0980                 1.0913                 1.0917
 Frc consts  --      6.6036                 6.5787                 6.6246
 IR Inten    --     24.9385                 0.0655                 2.2653

                    142                    143                    144
                      A                      A                      A
 Frequencies --   3212.0783              3215.9283              3225.1396
 Red. masses --      1.0928                 1.0977                 1.0961
 Frc consts  --      6.6429                 6.6889                 6.7174
 IR Inten    --      6.2302                 7.2092                 3.9639

 - Thermochemistry -
 -------------------
 Temperature   298.150 Kelvin.  Pressure   1.00000 Atm.
 Atom     1 has atomic number  6 and mass  12.00000

 Molecular mass:   482.99839 amu.
 Principal axes and moments of inertia in atomic units:
                           1         2         3
     Eigenvalues --  ******************************
           X            0.99981  -0.01807  -0.00749
           Y            0.01806   0.99984  -0.00169
           Z            0.00752   0.00156   0.99997
 This molecule is an asymmetric top.
 Rotational symmetry number  1.
 Warning -- assumption of classical behavior for rotation
           may cause significant error
 Rotational temperatures (Kelvin)      0.00620     0.00571     0.00396
 Rotational constants (GHZ):           0.12910     0.11888     0.08243
    1 imaginary frequencies ignored.
 Zero-point vibrational energy    1009464.1 (Joules/Mol)
                                  241.26772 (Kcal/Mol)
 Warning -- explicit consideration of  43 degrees of freedom as
           vibrations may cause significant error
 Vibrational temperatures:     12.87    25.02    35.71    42.67    58.56
          (Kelvin)             72.11    77.64    98.06   110.08   112.33
                              121.12   122.83   143.03   159.69   171.53
                              178.85   185.28   217.65   224.83   273.08
                              308.67   331.30   365.25   376.22   391.49
                              407.75   431.62   460.13   471.71   486.13
                              487.99   528.70   554.13   592.64   598.14
                              618.05   620.17   674.21   701.22   776.03
                              785.55   834.08   881.50   899.53   901.74
                              937.37   941.55  1013.92  1020.20  1074.10
                             1101.43  1128.53  1130.40  1161.97  1192.67
                             1215.47  1222.44  1244.02  1256.82  1285.66
                             1303.17  1346.78  1356.42  1401.83  1408.20
                             1420.86  1426.71  1436.46  1440.86  1443.61
                             1445.23  1454.31  1481.42  1485.80  1487.33
                             1500.73  1506.19  1553.68  1562.34  1589.62
                             1592.65  1620.82  1646.91  1676.28  1677.88
                             1699.68  1705.89  1709.04  1715.96  1721.75
                             1743.17  1798.66  1822.38  1842.64  1843.27
                             1855.93  1876.80  1885.19  1913.61  1925.97
                             1945.77  1947.39  1957.97  1981.98  2022.28
                             2023.47  2099.69  2109.06  2109.25  2119.67
                             2123.56  2139.61  2145.91  2156.02  2179.91
                             2239.90  2280.37  2332.76  2350.64  2359.18
                             2482.19  4372.53  4408.21  4408.71  4413.39
                             4440.81  4469.76  4483.53  4486.50  4491.31
                             4500.66  4507.96  4542.41  4558.88  4569.39
                             4582.67  4593.45  4596.79  4602.19  4617.31
                             4621.46  4627.00  4640.26

 Zero-point correction=                           0.384485 (Hartree/Particle)
 Thermal correction to Energy=                    0.413285
 Thermal correction to Enthalpy=                  0.414229
 Thermal correction to Gibbs Free Energy=         0.317927
 Sum of electronic and zero-point Energies=          -3683.508566
 Sum of electronic and thermal Energies=             -3683.479766
 Sum of electronic and thermal Enthalpies=           -3683.478822
 Sum of electronic and thermal Free Energies=        -3683.575124

                     E (Thermal)             CV                S
                      KCal/Mol        Cal/Mol-Kelvin    Cal/Mol-Kelvin
 Total                  259.340            104.550            202.684
 Electronic               0.000              0.000              3.561
 Translational            0.889              2.981             44.412
 Rotational               0.889              2.981             36.783
 Vibrational            257.563             98.588            117.928
 Vibration     1          0.593              1.987              8.233
 Vibration     2          0.593              1.986              6.912
 Vibration     3          0.593              1.985              6.205
 Vibration     4          0.593              1.984              5.852
 Vibration     5          0.594              1.981              5.225
 Vibration     6          0.595              1.978              4.813
 Vibration     7          0.596              1.976              4.667
 Vibration     8          0.598              1.969              4.206
 Vibration     9          0.599              1.965              3.978
 Vibration    10          0.599              1.964              3.939
 Vibration    11          0.601              1.960              3.791
 Vibration    12          0.601              1.959              3.763
 Vibration    13          0.604              1.950              3.466
 Vibration    14          0.607              1.940              3.252
 Vibration    15          0.609              1.933              3.113
 Vibration    16          0.610              1.929              3.032
 Vibration    17          0.611              1.924              2.964
 Vibration    18          0.619              1.901              2.656
 Vibration    19          0.620              1.896              2.595
 Vibration    20          0.633              1.854              2.230
 Vibration    21          0.644              1.819              2.005
 Vibration    22          0.652              1.795              1.877
 Vibration    23          0.665              1.756              1.704
 Vibration    24          0.669              1.743              1.652
 Vibration    25          0.675              1.725              1.583
 Vibration    26          0.682              1.704              1.513
 Vibration    27          0.693              1.674              1.417
 Vibration    28          0.706              1.636              1.311
 Vibration    29          0.711              1.620              1.271
 Vibration    30          0.718              1.600              1.222
 Vibration    31          0.719              1.597              1.216
 Vibration    32          0.740              1.539              1.090
 Vibration    33          0.754              1.502              1.019
 Vibration    34          0.776              1.444              0.920
 Vibration    35          0.779              1.436              0.907
 Vibration    36          0.791              1.406              0.860
 Vibration    37          0.792              1.403              0.855
 Vibration    38          0.826              1.320              0.741
 Vibration    39          0.843              1.278              0.690
 Vibration    40          0.894              1.163              0.567
 Vibration    41          0.901              1.148              0.553
 Vibration    42          0.936              1.075              0.486
 Vibration    43          0.972              1.005              0.428

 Normal termination of Gaussian 16 at Sun Jul  4 06:25:57 2021.
