 Gaussian 16, Revision A.03,
 Gaussian 16:  ES64L-G16RevA.03 25-Dec-2016

 ----------------------------------------------------------------------
 #p opt=(calcfc,ts,noeigentest,maxstep=5) freq=noraman b3lyp jul-cc-pvd
 z scrf=(solvent=water,pcm) pop=none empiricaldispersion=gd3bj
 ----------------------------------------------------------------------

 -----
 title
 -----
 Symbolic Z-matrix:
 Charge =  0 Multiplicity = 6

 SCF Done:  E(UB3LYP) =  -3684.01708154     A.U. after   23 cycles
 SCF Done:  E(UB3LYP) =  -3684.01760206     A.U. after   17 cycles
 SCF Done:  E(UB3LYP) =  -3684.01766376     A.U. after   14 cycles
 SCF Done:  E(UB3LYP) =  -3684.01766494     A.U. after   13 cycles
 SCF Done:  E(UB3LYP) =  -3684.01766566     A.U. after   11 cycles
 SCF Done:  E(UB3LYP) =  -3684.01766598     A.U. after   11 cycles
 SCF Done:  E(UB3LYP) =  -3684.01764066     A.U. after   16 cycles
 SCF Done:  E(UB3LYP) =  -3684.01766663     A.U. after   16 cycles
 Optimization completed.
    -- Stationary point found.
 Normal termination of Gaussian 16 at Wed Jul 14 03:18:58 2021.

 ----------------------------------------------------------------------
 #P Geom=AllCheck Guess=TCheck SCRF=Check GenChk UB3LYP/Jul-CC-pVDZ Fre
 q
 ----------------------------------------------------------------------

 Structure from the checkpoint file:  "/scratch/kwaneu.3017206.bmbhpcps002/Gau-58528.chk"
 -----
 title
 -----
 Charge =  0 Multiplicity = 6

                         Standard orientation:
 ---------------------------------------------------------------------
 Center     Atomic      Atomic             Coordinates (Angstroms)
 Number     Number       Type             X           Y           Z
 ---------------------------------------------------------------------
      1          6           0        1.629274    3.332119    0.256491
      2          6           0        1.225782    1.998686    0.440676
      3          6           0        1.930177    1.200283    1.348004
      4          6           0        3.005672    1.727816    2.072528
      5          6           0        3.397730    3.054337    1.889266
      6          6           0        2.704684    3.855949    0.972688
      7          6           0        0.094566    1.439221   -0.399988
      8          6           0       -1.151965    2.397936   -0.451072
      9          6           0       -1.214980    2.891837   -1.918716
     10          6           0       -0.645871    1.740792   -2.758636
     11          6           0        0.511331    1.210500   -1.901528
     12          6           0        0.667348   -0.278687   -1.870086
     13          8           0       -0.207942    0.085602   -0.030914
     14         26           0       -0.783359   -1.312160    1.046198
     15         17           0        1.000997   -2.390582    1.916130
     16         17           0       -1.742128   -2.761995   -0.397588
     17         17           0       -2.171271   -0.735450    2.691354
     18          1           0        1.654536    0.160288    1.488175
     19          1           0        3.540857    1.089656    2.776622
     20          1           0        4.238279    3.464039    2.450436
     21          1           0        3.003379    4.892854    0.815391
     22          1           0        1.110863    3.972043   -0.457399
     23          1           0       -0.993988    3.227661    0.241162
     24          6           0       -2.456362    1.766474   -0.003279
     25          1           0       -2.229539    3.176741   -2.220253
     26          1           0       -0.581099    3.783125   -2.017706
     27          1           0       -1.406742    0.963090   -2.892043
     28          1           0       -0.308012    2.064635   -3.749479
     29          1           0        1.445606    1.725686   -2.139044
     30          8           0       -2.911686    0.846558   -0.860907
     31          8           0       -3.050212    2.109304    1.003169
     32          6           0       -4.187588    0.219743   -0.545908
     33          6           0       -4.582412   -0.619957   -1.740450
     34          1           0       -4.050088   -0.382102    0.360581
     35          1           0       -4.916339    1.012019   -0.334807
     36          1           0       -5.540740   -1.115570   -1.531539
     37          1           0       -4.702832    0.005324   -2.635892
     38          1           0       -3.826993   -1.390840   -1.938108
     39          6           0        1.882037   -0.976314   -1.656942
     40          6           0        1.865438   -2.395133   -1.720520
     41          6           0        3.097553   -0.305891   -1.356308
     42          6           0        3.026423   -3.118997   -1.497220
     43          1           0        0.924124   -2.902613   -1.930163
     44          6           0        4.251997   -1.038464   -1.125822
     45          1           0        3.127631    0.779414   -1.306968
     46          6           0        4.216713   -2.439936   -1.197778
     47          1           0        3.014387   -4.206885   -1.546416
     48          1           0        5.185744   -0.528200   -0.893639
     49          1           0        5.129973   -3.008878   -1.019699
     50          1           0       -0.187410   -0.874426   -2.191802
 ---------------------------------------------------------------------

 SCF Done:  E(UB3LYP) =  -3684.01766663     A.U. after    2 cycles

 Isotropic polarizability for W=    0.000000      504.82 Bohr**3.
 End of Minotr F.D. properties file   721 does not exist.

 ******    1 imaginary frequencies (negative Signs) ******

                      1                      2                      3
                      A                      A                      A
 Frequencies --   -241.9222                18.3803                40.2692
 Red. masses --     12.0832                 5.5076                 6.3361
 Frc consts  --      0.4167                 0.0011                 0.0061
 IR Inten    --    963.1895                 2.2728                 3.1501

                      4                      5                      6
                      A                      A                      A
 Frequencies --     49.1943                51.3541                58.5984
 Red. masses --      5.6827                15.1852                 7.0874
 Frc consts  --      0.0081                 0.0236                 0.0143
 IR Inten    --      3.9495                 0.9291                 4.4057

                      7                      8                      9
                      A                      A                      A
 Frequencies --     63.3509                66.6092                77.1571
 Red. masses --      6.1666                 4.8075                 6.3842
 Frc consts  --      0.0146                 0.0126                 0.0224
 IR Inten    --      2.7141                 0.2821                 5.2934

                     10                     11                     12
                      A                      A                      A
 Frequencies --     81.7282                83.7705                93.8879
 Red. masses --      4.0834                 4.9618                 6.2793
 Frc consts  --      0.0161                 0.0205                 0.0326
 IR Inten    --      2.1340                 4.8193                 0.7300

                     13                     14                     15
                      A                      A                      A
 Frequencies --    104.5177               109.2706               115.1544
 Red. masses --     10.4325                 5.8209                10.1787
 Frc consts  --      0.0671                 0.0409                 0.0795
 IR Inten    --      2.9215                 0.3532                 6.2513

                     16                     17                     18
                      A                      A                      A
 Frequencies --    119.4672               128.9080               143.3881
 Red. masses --      4.9403                 3.6045                 3.9507
 Frc consts  --      0.0415                 0.0353                 0.0479
 IR Inten    --      2.1175                 7.3755                 7.0769

                     19                     20                     21
                      A                      A                      A
 Frequencies --    148.6891               170.9231               187.8953
 Red. masses --     17.6312                 4.6023                 3.1037
 Frc consts  --      0.2297                 0.0792                 0.0646
 IR Inten    --     10.4455                16.5805                 1.6775

                     22                     23                     24
                      A                      A                      A
 Frequencies --    210.3051               235.6701               237.5688
 Red. masses --      4.0885                 3.8703                 3.3146
 Frc consts  --      0.1065                 0.1266                 0.1102
 IR Inten    --      7.4201                44.0683                 6.5075

                     25                     26                     27
                      A                      A                      A
 Frequencies --    258.4569               269.4427               289.5671
 Red. masses --      2.4304                 2.5492                 3.5294
 Frc consts  --      0.0957                 0.1090                 0.1744
 IR Inten    --      7.6117                 6.8181                 7.1224

                     28                     29                     30
                      A                      A                      A
 Frequencies --    304.3382               319.9813               334.7611
 Red. masses --      4.9851                 7.6426                23.6003
 Frc consts  --      0.2720                 0.4610                 1.5582
 IR Inten    --     31.6667                 1.6183               168.9236

                     31                     32                     33
                      A                      A                      A
 Frequencies --    340.3197               364.1635               368.4752
 Red. masses --     16.7395                 4.3097                27.4090
 Frc consts  --      1.1423                 0.3367                 2.1926
 IR Inten    --    111.6473                24.3018               184.9684

                     34                     35                     36
                      A                      A                      A
 Frequencies --    387.8619               404.4302               415.7978
 Red. masses --      3.7711                 2.9915                 3.0004
 Frc consts  --      0.3343                 0.2883                 0.3056
 IR Inten    --      7.8650                 4.8282                 0.1500

                     37                     38                     39
                      A                      A                      A
 Frequencies --    419.2912               421.9941               481.6310
 Red. masses --      4.3445                 3.8340                 3.8337
 Frc consts  --      0.4500                 0.4023                 0.5240
 IR Inten    --     17.4879                 8.0109                 3.1231

                     40                     41                     42
                      A                      A                      A
 Frequencies --    503.8154               559.7048               582.5658
 Red. masses --      3.6749                 3.6122                 3.2899
 Frc consts  --      0.5496                 0.6667                 0.6578
 IR Inten    --     69.0971                 6.2016                28.0276

                     43                     44                     45
                      A                      A                      A
 Frequencies --    602.6955               622.1767               629.8791
 Red. masses --      5.1707                 5.9000                 6.2425
 Frc consts  --      1.1066                 1.3456                 1.4592
 IR Inten    --     10.0974                 2.7282                 0.7570

                     46                     47                     48
                      A                      A                      A
 Frequencies --    645.5421               673.0157               702.1607
 Red. masses --      3.1866                 1.5718                 4.1444
 Frc consts  --      0.7824                 0.4195                 1.2039
 IR Inten    --      4.6849                88.9345                19.0742

                     49                     50                     51
                      A                      A                      A
 Frequencies --    710.5409               712.8542               746.5214
 Red. masses --      4.0915                 1.6505                 5.2852
 Frc consts  --      1.2171                 0.4942                 1.7354
 IR Inten    --     23.4773                97.3539                26.6087

                     52                     53                     54
                      A                      A                      A
 Frequencies --    764.7870               780.2035               808.2487
 Red. masses --      2.2787                 1.8875                 1.1098
 Frc consts  --      0.7853                 0.6769                 0.4271
 IR Inten    --     43.2718                28.5347                 3.1173

                     55                     56                     57
                      A                      A                      A
 Frequencies --    832.8341               839.4533               850.5437
 Red. masses --      1.4412                 2.9099                 3.1286
 Frc consts  --      0.5889                 1.2082                 1.3335
 IR Inten    --      0.4079                16.6109                33.8874

                     58                     59                     60
                      A                      A                      A
 Frequencies --    853.6909               865.4949               881.3596
 Red. masses --      1.2806                 2.5732                 3.0155
 Frc consts  --      0.5499                 1.1357                 1.3801
 IR Inten    --      1.9442                24.2718                22.1027

                     61                     62                     63
                      A                      A                      A
 Frequencies --    913.9886               931.7132               939.7709
 Red. masses --      4.0471                 1.6926                 2.2129
 Frc consts  --      1.9919                 0.8657                 1.1515
 IR Inten    --     59.0220                 7.7597                11.6066

                     64                     65                     66
                      A                      A                      A
 Frequencies --    950.4329               960.2182               982.1749
 Red. masses --      1.7278                 1.5367                 2.0231
 Frc consts  --      0.9196                 0.8348                 1.1499
 IR Inten    --      7.2135                16.6069                75.2931

                     67                     68                     69
                      A                      A                      A
 Frequencies --    992.7817               993.7850               999.4909
 Red. masses --      1.4616                 1.6393                 2.3985
 Frc consts  --      0.8488                 0.9539                 1.4117
 IR Inten    --      8.6028                 5.4752                63.3782

                     70                     71                     72
                      A                      A                      A
 Frequencies --   1003.7350              1008.2407              1011.5647
 Red. masses --      3.3492                 2.0743                 1.9952
 Frc consts  --      1.9881                 1.2424                 1.2029
 IR Inten    --     19.7668                10.7592                 3.8669

                     73                     74                     75
                      A                      A                      A
 Frequencies --   1023.4288              1029.4994              1039.8683
 Red. masses --      1.3796                 2.0796                 2.6186
 Frc consts  --      0.8514                 1.2986                 1.6683
 IR Inten    --      2.3348                42.3145                55.0041

                     76                     77                     78
                      A                      A                      A
 Frequencies --   1042.9703              1050.3361              1056.0230
 Red. masses --      2.2588                 2.8373                 2.4740
 Frc consts  --      1.4477                 1.8442                 1.6255
 IR Inten    --      1.3253                53.3771                16.4760

                     79                     80                     81
                      A                      A                      A
 Frequencies --   1076.5990              1088.0177              1105.5064
 Red. masses --      4.2330                 2.5922                 1.7923
 Frc consts  --      2.8907                 1.8080                 1.2905
 IR Inten    --    204.7383               157.7194                 4.0974

                     82                     83                     84
                      A                      A                      A
 Frequencies --   1119.3893              1131.5549              1145.0345
 Red. masses --      1.6774                 2.1511                 2.1256
 Frc consts  --      1.2383                 1.6228                 1.6420
 IR Inten    --      5.7764                13.2990                41.1107

                     85                     86                     87
                      A                      A                      A
 Frequencies --   1166.8857              1170.0190              1171.0626
 Red. masses --      1.4817                 1.2214                 1.4635
 Frc consts  --      1.1887                 0.9851                 1.1825
 IR Inten    --      7.8408                 2.7800                 5.7308

                     88                     89                     90
                      A                      A                      A
 Frequencies --   1178.8342              1184.8669              1198.4612
 Red. masses --      1.0845                 1.4735                 1.1672
 Frc consts  --      0.8879                 1.2188                 0.9877
 IR Inten    --      8.9724                80.0996                74.6505

                     91                     92                     93
                      A                      A                      A
 Frequencies --   1208.6031              1219.6107              1241.8463
 Red. masses --      1.1469                 1.3647                 2.3666
 Frc consts  --      0.9871                 1.1960                 2.1504
 IR Inten    --      0.7674                23.6136                21.3668

                     94                     95                     96
                      A                      A                      A
 Frequencies --   1261.3412              1282.3245              1286.2803
 Red. masses --      1.5773                 1.3269                 1.5579
 Frc consts  --      1.4786                 1.2856                 1.5187
 IR Inten    --     85.0787                79.7752               112.3469

                     97                     98                     99
                      A                      A                      A
 Frequencies --   1300.7841              1304.6570              1336.0154
 Red. masses --      1.6157                 1.5320                 1.6007
 Frc consts  --      1.6108                 1.5364                 1.6834
 IR Inten    --    250.4093               119.5302                19.6846

                    100                    101                    102
                      A                      A                      A
 Frequencies --   1345.1742              1349.6775              1350.4928
 Red. masses --      1.9401                 1.4722                 1.4543
 Frc consts  --      2.0684                 1.5801                 1.5627
 IR Inten    --     23.9648                35.2582                84.4429

                    103                    104                    105
                      A                      A                      A
 Frequencies --   1360.1679              1363.6717              1378.3753
 Red. masses --      1.3708                 2.1970                 1.3468
 Frc consts  --      1.4942                 2.4071                 1.5076
 IR Inten    --     24.0079                 0.5949                42.1787

                    106                    107                    108
                      A                      A                      A
 Frequencies --   1390.7337              1408.8643              1452.8918
 Red. masses --      5.5152                 1.5004                 2.1293
 Frc consts  --      6.2849                 1.7547                 2.6483
 IR Inten    --     65.3213                 8.0380               138.6272

                    109                    110                    111
                      A                      A                      A
 Frequencies --   1466.3831              1468.9748              1477.3556
 Red. masses --      1.0402                 2.2774                 1.0551
 Frc consts  --      1.3178                 2.8954                 1.3568
 IR Inten    --      4.9759                13.8639                 2.5104

                    112                    113                    114
                      A                      A                      A
 Frequencies --   1477.9726              1488.6856              1490.6185
 Red. masses --      1.1016                 1.7605                 1.2375
 Frc consts  --      1.4178                 2.2987                 1.6201
 IR Inten    --     36.1790                56.2803                26.8860

                    115                    116                    117
                      A                      A                      A
 Frequencies --   1504.4463              1523.9674              1535.1199
 Red. masses --      1.0906                 2.1889                 2.9387
 Frc consts  --      1.4544                 2.9953                 4.0803
 IR Inten    --     15.6391                11.3709               197.0111

                    118                    119                    120
                      A                      A                      A
 Frequencies --   1602.8772              1625.9216              1638.6339
 Red. masses --      4.7806                 5.7318                 5.6551
 Frc consts  --      7.2366                 8.9277                 8.9465
 IR Inten    --      4.8278                 0.2253               375.4047

                    121                    122                    123
                      A                      A                      A
 Frequencies --   1645.6475              1735.1386              3040.6903
 Red. masses --      5.7556                11.0031                 1.0354
 Frc consts  --      9.1836                19.5180                 5.6403
 IR Inten    --      3.4608               559.9964                27.8194

                    124                    125                    126
                      A                      A                      A
 Frequencies --   3061.5298              3069.7112              3074.9848
 Red. masses --      1.0637                 1.0579                 1.0605
 Frc consts  --      5.8743                 5.8732                 5.9082
 IR Inten    --     45.9487                26.7070                37.4955

                    127                    128                    129
                      A                      A                      A
 Frequencies --   3111.9241              3114.3624              3120.6360
 Red. masses --      1.1038                 1.0999                 1.0946
 Frc consts  --      6.2977                 6.2853                 6.2806
 IR Inten    --     16.6692                32.8675                 3.6570

                    130                    131                    132
                      A                      A                      A
 Frequencies --   3121.9951              3133.9677              3137.3468
 Red. masses --      1.1035                 1.0991                 1.1063
 Frc consts  --      6.3373                 6.3600                 6.4155
 IR Inten    --     23.8258                34.6209                43.8746

                    133                    134                    135
                      A                      A                      A
 Frequencies --   3137.8818              3172.2765              3179.7750
 Red. masses --      1.0882                 1.0851                 1.0889
 Frc consts  --      6.3130                 6.4340                 6.4866
 IR Inten    --     22.3590                 1.4506                 5.5034

                    136                    137                    138
                      A                      A                      A
 Frequencies --   3183.6986              3188.9204              3189.0302
 Red. masses --      1.0911                 1.0936                 1.0873
 Frc consts  --      6.5158                 6.5522                 6.5152
 IR Inten    --      1.4148                37.6185                 1.2252

                    139                    140                    141
                      A                      A                      A
 Frequencies --   3198.0370              3198.6171              3205.9122
 Red. masses --      1.0902                 1.0986                 1.0932
 Frc consts  --      6.5696                 6.6222                 6.6197
 IR Inten    --      1.5062                27.5323                 7.3918

                    142                    143                    144
                      A                      A                      A
 Frequencies --   3213.3698              3229.6970              3243.8877
 Red. masses --      1.0983                 1.0939                 1.0902
 Frc consts  --      6.6817                 6.7231                 6.7592
 IR Inten    --     13.4550                 3.0686                14.2400

 - Thermochemistry -
 -------------------
 Temperature   298.150 Kelvin.  Pressure   1.00000 Atm.
 Atom     1 has atomic number  6 and mass  12.00000

 Molecular mass:   482.99839 amu.
 Principal axes and moments of inertia in atomic units:
                           1         2         3
     Eigenvalues --  ******************************
           X            0.99950  -0.00745   0.03072
           Y            0.00687   0.99980   0.01897
           Z           -0.03086  -0.01875   0.99935
 This molecule is an asymmetric top.
 Rotational symmetry number  1.
 Warning -- assumption of classical behavior for rotation
           may cause significant error
 Rotational temperatures (Kelvin)      0.00808     0.00653     0.00537
 Rotational constants (GHZ):           0.16844     0.13606     0.11193
    1 imaginary frequencies ignored.
 Zero-point vibrational energy    1014806.6 (Joules/Mol)
                                  242.54460 (Kcal/Mol)
 Warning -- explicit consideration of  42 degrees of freedom as
           vibrations may cause significant error
 Vibrational temperatures:     26.45    57.94    70.78    73.89    84.31
          (Kelvin)             91.15    95.84   111.01   117.59   120.53
                              135.08   150.38   157.22   165.68   171.89
                              185.47   206.30   213.93   245.92   270.34
                              302.58   339.08   341.81   371.86   387.67
                              416.62   437.87   460.38   481.65   489.64
                              523.95   530.15   558.05   581.88   598.24
                              603.27   607.16   692.96   724.88   805.29
                              838.18   867.14   895.17   906.26   928.79
                              968.32  1010.25  1022.31  1025.64  1074.08
                             1100.36  1122.54  1162.89  1198.26  1207.79
                             1223.74  1228.27  1245.25  1268.08  1315.03
                             1340.53  1352.12  1367.46  1381.54  1413.13
                             1428.39  1429.84  1438.04  1444.15  1450.63
                             1455.42  1472.49  1481.22  1496.14  1500.60
                             1511.20  1519.38  1548.99  1565.41  1590.58
                             1610.55  1628.06  1647.45  1678.89  1683.40
                             1684.90  1696.08  1704.76  1724.32  1738.91
                             1754.75  1786.74  1814.79  1844.98  1850.67
                             1871.54  1877.11  1922.23  1935.41  1941.88
                             1943.06  1956.98  1962.02  1983.17  2000.96
                             2027.04  2090.39  2109.80  2113.53  2125.59
                             2126.47  2141.89  2144.67  2164.56  2192.65
                             2208.70  2306.18  2339.34  2357.63  2367.72
                             2496.48  4374.88  4404.86  4416.63  4424.22
                             4477.36  4480.87  4489.90  4491.85  4509.08
                             4513.94  4514.71  4564.20  4574.99  4580.63
                             4588.15  4588.30  4601.26  4602.10  4612.59
                             4623.32  4646.81  4667.23

 Zero-point correction=                           0.386519 (Hartree/Particle)
 Thermal correction to Energy=                    0.414720
 Thermal correction to Enthalpy=                  0.415664
 Thermal correction to Gibbs Free Energy=         0.324165
 Sum of electronic and zero-point Energies=          -3683.631147
 Sum of electronic and thermal Energies=             -3683.602947
 Sum of electronic and thermal Enthalpies=           -3683.602003
 Sum of electronic and thermal Free Energies=        -3683.693502

                     E (Thermal)             CV                S
                      KCal/Mol        Cal/Mol-Kelvin    Cal/Mol-Kelvin
 Total                  260.240            103.673            192.576
 Electronic               0.000              0.000              3.561
 Translational            0.889              2.981             44.412
 Rotational               0.889              2.981             36.081
 Vibrational            258.463             97.711            108.522
 Vibration     1          0.593              1.986              6.802
 Vibration     2          0.594              1.981              5.246
 Vibration     3          0.595              1.978              4.850
 Vibration     4          0.596              1.977              4.765
 Vibration     5          0.596              1.974              4.504
 Vibration     6          0.597              1.972              4.350
 Vibration     7          0.598              1.970              4.251
 Vibration     8          0.599              1.964              3.962
 Vibration     9          0.600              1.962              3.849
 Vibration    10          0.601              1.960              3.801
 Vibration    11          0.603              1.954              3.577
 Vibration    12          0.605              1.946              3.368
 Vibration    13          0.606              1.942              3.282
 Vibration    14          0.608              1.937              3.180
 Vibration    15          0.609              1.933              3.109
 Vibration    16          0.611              1.924              2.962
 Vibration    17          0.616              1.910              2.758
 Vibration    18          0.618              1.904              2.689
 Vibration    19          0.626              1.878              2.425
 Vibration    20          0.633              1.856              2.248
 Vibration    21          0.642              1.825              2.041
 Vibration    22          0.655              1.786              1.835
 Vibration    23          0.656              1.783              1.821
 Vibration    24          0.667              1.748              1.672
 Vibration    25          0.674              1.729              1.600
 Vibration    26          0.686              1.693              1.476
 Vibration    27          0.695              1.665              1.393
 Vibration    28          0.706              1.635              1.310
 Vibration    29          0.716              1.606              1.237
 Vibration    30          0.720              1.595              1.211
 Vibration    31          0.738              1.546              1.104
 Vibration    32          0.741              1.537              1.086
 Vibration    33          0.756              1.496              1.008
 Vibration    34          0.770              1.461              0.947
 Vibration    35          0.779              1.436              0.906
 Vibration    36          0.782              1.428              0.894
 Vibration    37          0.784              1.422              0.885
 Vibration    38          0.838              1.291              0.706
 Vibration    39          0.859              1.242              0.649
 Vibration    40          0.915              1.118              0.524
 Vibration    41          0.939              1.069              0.481
 Vibration    42          0.961              1.026              0.445

 Optimization completed.
    -- Stationary point found.
 Normal termination of Gaussian 16 at Wed Jul 14 11:41:15 2021.
