 Gaussian 16, Revision A.03,
 Gaussian 16:  ES64L-G16RevA.03 25-Dec-2016

 ----------------------------------------------------------------------
 #p opt=(calcfc,ts,noeigentest,maxstep=5) freq=noraman b3lyp scrf=(solv
 ent=water,pcm) pop=none empiricaldispersion=gd3bj jul-cc-pvdz
 ----------------------------------------------------------------------

 -----
 title
 -----
 Symbolic Z-matrix:
 Charge =  0 Multiplicity = 6

 SCF Done:  E(UB3LYP) =  -3684.01997728     A.U. after   24 cycles
 Optimization completed.
    -- Stationary point found.
 Normal termination of Gaussian 16 at Tue Jul 13 17:20:51 2021.

 ----------------------------------------------------------------------
 #P Geom=AllCheck Guess=TCheck SCRF=Check GenChk UB3LYP/Jul-CC-pVDZ Fre
 q
 ----------------------------------------------------------------------

 Structure from the checkpoint file:  "/scratch/kwaneu.3017188.bmbhpcps002/Gau-22452.chk"
 -----
 title
 -----
 Charge =  0 Multiplicity = 6

                         Standard orientation:
 ---------------------------------------------------------------------
 Center     Atomic      Atomic             Coordinates (Angstroms)
 Number     Number       Type             X           Y           Z
 ---------------------------------------------------------------------
      1          6           0        2.254060    1.870600   -0.050370
      2          6           0        1.138573    1.080815   -0.370829
      3          6           0        0.504613    1.262885   -1.604012
      4          6           0        0.986742    2.212365   -2.511213
      5          6           0        2.101701    2.990720   -2.192288
      6          6           0        2.734738    2.816694   -0.955175
      7          6           0        0.635272    0.059279    0.625370
      8          6           0        1.648774   -1.094193    0.977227
      9          6           0        1.965971   -0.914169    2.471480
     10          6           0        0.660344   -0.361601    3.055912
     11          6           0        0.224061    0.673716    2.009997
     12          6           0       -1.250677    0.787300    1.778388
     13          8           0       -0.638335   -0.451685    0.208507
     14         26           0       -1.636614   -1.844222   -0.488943
     15         17           0       -0.439706   -3.679405   -0.960105
     16         17           0       -2.743914   -1.056327   -2.282902
     17         17           0       -3.151495   -2.288040    1.128733
     18          1           0       -0.370217    0.667711   -1.852448
     19          1           0        0.482193    2.345394   -3.468826
     20          1           0        2.474658    3.733157   -2.898609
     21          1           0        3.602500    3.422405   -0.692686
     22          1           0        2.755431    1.749813    0.909136
     23          1           0        1.092619   -2.025161    0.823380
     24          6           0        2.816889   -1.154334    0.014942
     25          1           0        2.281483   -1.854166    2.939037
     26          1           0        2.777890   -0.188181    2.600614
     27          1           0       -0.090599   -1.160561    3.130047
     28          1           0        0.784870    0.080245    4.050790
     29          1           0        0.701715    1.641531    2.187595
     30          8           0        3.951952   -0.671650    0.535716
     31          8           0        2.723590   -1.575859   -1.124127
     32          6           0        5.090259   -0.565822   -0.364490
     33          6           0        6.196707    0.138258    0.389855
     34          1           0        5.376677   -1.577808   -0.678456
     35          1           0        4.768721   -0.003148   -1.250092
     36          1           0        7.075713    0.233110   -0.262496
     37          1           0        5.880372    1.144835    0.695805
     38          1           0        6.487544   -0.430000    1.283884
     39          6           0       -1.915289    1.892381    1.195874
     40          6           0       -3.321033    1.802976    1.005402
     41          6           0       -1.223038    3.052421    0.755874
     42          6           0       -4.008968    2.833871    0.384945
     43          1           0       -3.842085    0.903864    1.334954
     44          6           0       -1.920479    4.080168    0.139368
     45          1           0       -0.150053    3.139389    0.903243
     46          6           0       -3.307017    3.969749   -0.048355
     47          1           0       -5.085048    2.764490    0.232140
     48          1           0       -1.394313    4.971802   -0.198545
     49          1           0       -3.848002    4.781805   -0.535545
     50          1           0       -1.884025    0.002443    2.194065
 ---------------------------------------------------------------------

 SCF Done:  E(UB3LYP) =  -3684.01997728     A.U. after    2 cycles

 Isotropic polarizability for W=    0.000000      506.41 Bohr**3.
 End of Minotr F.D. properties file   721 does not exist.

 ******    1 imaginary frequencies (negative Signs) ******

                      1                      2                      3
                      A                      A                      A
 Frequencies --   -209.5522                18.5972                27.7237
 Red. masses --     11.2434                 3.9945                 5.2863
 Frc consts  --      0.2909                 0.0008                 0.0024
 IR Inten    --    923.0253                 0.7177                 1.0403

                      4                      5                      6
                      A                      A                      A
 Frequencies --     34.4807                37.7723                50.8717
 Red. masses --      9.4685                 5.8360                 7.3593
 Frc consts  --      0.0066                 0.0049                 0.0112
 IR Inten    --      4.3286                 0.1119                 0.6133

                      7                      8                      9
                      A                      A                      A
 Frequencies --     53.5609                61.8718                68.1797
 Red. masses --      5.0300                 3.8639                 4.3540
 Frc consts  --      0.0085                 0.0087                 0.0119
 IR Inten    --      0.7027                 0.5246                 0.5893

                     10                     11                     12
                      A                      A                      A
 Frequencies --     71.8894                82.4393                86.0329
 Red. masses --      4.5591                12.7681                 3.3558
 Frc consts  --      0.0139                 0.0511                 0.0146
 IR Inten    --      0.6001                 9.5412                 2.6444

                     13                     14                     15
                      A                      A                      A
 Frequencies --    100.3546               101.7880               109.4363
 Red. masses --      7.9179                19.2621                14.2450
 Frc consts  --      0.0470                 0.1176                 0.1005
 IR Inten    --      4.8478                 6.9609                 4.4375

                     16                     17                     18
                      A                      A                      A
 Frequencies --    116.2374               118.7124               130.8595
 Red. masses --      5.5428                 5.0827                22.8809
 Frc consts  --      0.0441                 0.0422                 0.2309
 IR Inten    --      7.9399                11.3284                 3.4859

                     19                     20                     21
                      A                      A                      A
 Frequencies --    138.2803               167.1441               194.5636
 Red. masses --      3.9865                 4.0970                 3.7366
 Frc consts  --      0.0449                 0.0674                 0.0833
 IR Inten    --      5.4617                 9.0425                31.5953

                     22                     23                     24
                      A                      A                      A
 Frequencies --    197.1132               228.2088               246.3000
 Red. masses --      2.9730                 3.0741                 4.2582
 Frc consts  --      0.0681                 0.0943                 0.1522
 IR Inten    --      4.5892                 3.9163                68.1421

                     25                     26                     27
                      A                      A                      A
 Frequencies --    258.0482               267.9962               287.0410
 Red. masses --      3.9389                 1.7926                 4.7497
 Frc consts  --      0.1545                 0.0759                 0.2306
 IR Inten    --     11.9637                 9.9235                31.6588

                     28                     29                     30
                      A                      A                      A
 Frequencies --    303.1357               325.0409               340.7952
 Red. masses --      6.2937                 7.8962                 8.2845
 Frc consts  --      0.3407                 0.4915                 0.5669
 IR Inten    --     71.8578                26.1778                42.2600

                     31                     32                     33
                      A                      A                      A
 Frequencies --    350.6256               356.4884               365.9577
 Red. masses --     34.8504                25.5561                 4.8691
 Frc consts  --      2.5243                 1.9135                 0.3842
 IR Inten    --    188.6506               231.6698                13.8078

                     34                     35                     36
                      A                      A                      A
 Frequencies --    387.7702               400.1583               413.1859
 Red. masses --      3.6395                 2.9094                 2.9871
 Frc consts  --      0.3224                 0.2745                 0.3005
 IR Inten    --     16.0079                 3.3140                 4.1513

                     37                     38                     39
                      A                      A                      A
 Frequencies --    420.8591               435.2394               488.4614
 Red. masses --      3.6845                 4.3059                 3.7256
 Frc consts  --      0.3845                 0.4806                 0.5237
 IR Inten    --     25.2075                 6.1458                23.5215

                     40                     41                     42
                      A                      A                      A
 Frequencies --    498.1370               545.2347               566.9063
 Red. masses --      4.1647                 3.3460                 2.8709
 Frc consts  --      0.6089                 0.5861                 0.5436
 IR Inten    --     49.0016                29.8636                25.6237

                     43                     44                     45
                      A                      A                      A
 Frequencies --    601.8094               617.3518               629.0625
 Red. masses --      5.5006                 5.8797                 6.3500
 Frc consts  --      1.1738                 1.3203                 1.4805
 IR Inten    --     15.0385                13.6795                 0.4491

                     46                     47                     48
                      A                      A                      A
 Frequencies --    631.6533               651.8332               672.9556
 Red. masses --      3.8765                 3.9736                 1.5965
 Frc consts  --      0.9113                 0.9947                 0.4260
 IR Inten    --     14.8794                 0.5481                86.9585

                     49                     50                     51
                      A                      A                      A
 Frequencies --    707.6898               711.4525               757.0500
 Red. masses --      2.2213                 2.4636                 2.6237
 Frc consts  --      0.6555                 0.7347                 0.8860
 IR Inten    --     37.2154                97.7872                15.7215

                     52                     53                     54
                      A                      A                      A
 Frequencies --    767.8688               779.6395               789.8375
 Red. masses --      3.1033                 1.9125                 3.6635
 Frc consts  --      1.0781                 0.6849                 1.3465
 IR Inten    --     35.0573                29.9135                54.0502

                     55                     56                     57
                      A                      A                      A
 Frequencies --    809.6112               837.1544               851.2225
 Red. masses --      1.1546                 1.2693                 1.2716
 Frc consts  --      0.4459                 0.5241                 0.5428
 IR Inten    --      1.1650                 1.5043                 1.2402

                     58                     59                     60
                      A                      A                      A
 Frequencies --    852.5728               867.9885               885.2002
 Red. masses --      3.5662                 2.8520                 2.1289
 Frc consts  --      1.5273                 1.2660                 0.9828
 IR Inten    --     19.7428                14.8604                34.0948

                     61                     62                     63
                      A                      A                      A
 Frequencies --    922.5891               927.6632               958.4311
 Red. masses --      1.9890                 1.5442                 1.5544
 Frc consts  --      0.9975                 0.7830                 0.8413
 IR Inten    --      5.5366                10.6530                36.0180

                     64                     65                     66
                      A                      A                      A
 Frequencies --    963.9892               970.3591               984.9199
 Red. masses --      1.9421                 3.5839                 1.6842
 Frc consts  --      1.0633                 1.9882                 0.9626
 IR Inten    --      0.6828                23.9853                68.9883

                     67                     68                     69
                      A                      A                      A
 Frequencies --    987.7134               997.3294              1000.6026
 Red. masses --      1.3896                 1.7607                 3.9686
 Frc consts  --      0.7988                 1.0318                 2.3410
 IR Inten    --      1.7820                12.9590                26.1510

                     70                     71                     72
                      A                      A                      A
 Frequencies --   1002.5188              1004.2087              1011.5020
 Red. masses --      1.8620                 1.4661                 4.7419
 Frc consts  --      1.1026                 0.8711                 2.8585
 IR Inten    --     81.0438                39.3682                11.8957

                     73                     74                     75
                      A                      A                      A
 Frequencies --   1017.0933              1024.2131              1041.0017
 Red. masses --      2.1691                 1.3718                 2.4634
 Frc consts  --      1.3220                 0.8478                 1.5728
 IR Inten    --     15.9387                 1.6132                92.5147

                     76                     77                     78
                      A                      A                      A
 Frequencies --   1042.6240              1049.2778              1062.4660
 Red. masses --      3.0126                 2.3286                 3.3245
 Frc consts  --      1.9295                 1.5105                 2.2111
 IR Inten    --    301.3569                39.5849                60.5041

                     79                     80                     81
                      A                      A                      A
 Frequencies --   1074.3784              1098.6043              1108.0206
 Red. masses --      4.1356                 2.0205                 1.7202
 Frc consts  --      2.8125                 1.4368                 1.2443
 IR Inten    --     40.6204                20.3432                 5.2586

                     82                     83                     84
                      A                      A                      A
 Frequencies --   1121.2877              1129.8764              1134.9296
 Red. masses --      2.3903                 2.0035                 2.1554
 Frc consts  --      1.7706                 1.5069                 1.6358
 IR Inten    --     21.4573                 3.8434                15.9885

                     85                     86                     87
                      A                      A                      A
 Frequencies --   1167.0998              1168.3756              1170.8570
 Red. masses --      1.5469                 1.0785                 1.5472
 Frc consts  --      1.2415                 0.8675                 1.2497
 IR Inten    --      6.7884                 0.1003                 4.3853

                     88                     89                     90
                      A                      A                      A
 Frequencies --   1179.5555              1183.8704              1197.8366
 Red. masses --      1.0875                 1.3828                 1.1390
 Frc consts  --      0.8915                 1.1419                 0.9629
 IR Inten    --      4.9059                24.8644                 8.3307

                     91                     92                     93
                      A                      A                      A
 Frequencies --   1198.4602              1218.1078              1248.3211
 Red. masses --      1.1701                 1.8468                 1.7151
 Frc consts  --      0.9902                 1.6145                 1.5747
 IR Inten    --     71.7410                47.1904                58.5678

                     94                     95                     96
                      A                      A                      A
 Frequencies --   1265.0510              1274.8417              1284.3227
 Red. masses --      1.5291                 2.2624                 1.2661
 Frc consts  --      1.4418                 2.1664                 1.2305
 IR Inten    --     51.7829               495.9589               142.0884

                     97                     98                     99
                      A                      A                      A
 Frequencies --   1297.1429              1302.3421              1308.5742
 Red. masses --      1.3532                 1.6492                 1.5266
 Frc consts  --      1.3415                 1.6481                 1.5402
 IR Inten    --     12.4834                79.0419                65.5891

                    100                    101                    102
                      A                      A                      A
 Frequencies --   1336.5284              1350.5029              1354.9557
 Red. masses --      1.7447                 1.5316                 1.5232
 Frc consts  --      1.8362                 1.6458                 1.6476
 IR Inten    --      3.4666               113.7151                 4.8687

                    103                    104                    105
                      A                      A                      A
 Frequencies --   1358.8475              1360.0788              1378.7483
 Red. masses --      1.3708                 3.1523                 1.3503
 Frc consts  --      1.4913                 3.4356                 1.5123
 IR Inten    --      8.1245                 2.4190                27.1606

                    106                    107                    108
                      A                      A                      A
 Frequencies --   1391.4679              1408.4128              1453.7953
 Red. masses --      5.8102                 1.4744                 2.1438
 Frc consts  --      6.6281                 1.7231                 2.6695
 IR Inten    --     66.0657                 5.9582               147.3351

                    109                    110                    111
                      A                      A                      A
 Frequencies --   1466.2903              1470.0859              1473.8500
 Red. masses --      1.0403                 2.2903                 1.0552
 Frc consts  --      1.3178                 2.9162                 1.3505
 IR Inten    --      8.0104                15.0441                 1.9660

                    112                    113                    114
                      A                      A                      A
 Frequencies --   1478.6148              1489.6603              1490.9171
 Red. masses --      1.0980                 1.9375                 1.1593
 Frc consts  --      1.4143                 2.5332                 1.5183
 IR Inten    --     25.2713                73.4287                 7.9808

                    115                    116                    117
                      A                      A                      A
 Frequencies --   1498.8734              1521.5270              1536.5486
 Red. masses --      1.0877                 2.2510                 3.0368
 Frc consts  --      1.4397                 3.0703                 4.2244
 IR Inten    --     11.9088                10.0839               227.5428

                    118                    119                    120
                      A                      A                      A
 Frequencies --   1601.3366              1625.5612              1637.7297
 Red. masses --      4.7211                 5.9295                 5.6399
 Frc consts  --      7.1328                 9.2315                 8.9126
 IR Inten    --      4.4447                 0.2556               408.7637

                    121                    122                    123
                      A                      A                      A
 Frequencies --   1646.6828              1735.8326              3039.5927
 Red. masses --      5.8235                11.7277                 1.0350
 Frc consts  --      9.3036                20.8199                 5.6342
 IR Inten    --      4.0150               425.5458                24.0441

                    124                    125                    126
                      A                      A                      A
 Frequencies --   3053.1351              3064.2544              3072.2627
 Red. masses --      1.0651                 1.0576                 1.0609
 Frc consts  --      5.8495                 5.8511                 5.8998
 IR Inten    --     39.7620                25.8395                34.5441

                    127                    128                    129
                      A                      A                      A
 Frequencies --   3096.1890              3107.3048              3110.7308
 Red. masses --      1.0849                 1.1058                 1.0914
 Frc consts  --      6.1277                 6.2906                 6.2224
 IR Inten    --      4.5518                 0.0538                17.4405

                    130                    131                    132
                      A                      A                      A
 Frequencies --   3120.2282              3121.7283              3128.3855
 Red. masses --      1.1015                 1.0970                 1.1037
 Frc consts  --      6.3184                 6.2989                 6.3643
 IR Inten    --     34.7744                22.1921                42.3412

                    133                    134                    135
                      A                      A                      A
 Frequencies --   3128.8746              3173.2857              3178.0012
 Red. masses --      1.1076                 1.0854                 1.0914
 Frc consts  --      6.3886                 6.4399                 6.4943
 IR Inten    --     68.6119                 0.4798                 0.1158

                    136                    137                    138
                      A                      A                      A
 Frequencies --   3181.6623              3188.5820              3191.4330
 Red. masses --      1.0891                 1.0874                 1.0933
 Frc consts  --      6.4960                 6.5138                 6.5608
 IR Inten    --     12.3171                 1.0022                29.0816

                    139                    140                    141
                      A                      A                      A
 Frequencies --   3195.0030              3199.8566              3206.1389
 Red. masses --      1.0909                 1.0980                 1.0930
 Frc consts  --      6.5611                 6.6237                 6.6196
 IR Inten    --      1.1076                20.5429                 7.6177

                    142                    143                    144
                      A                      A                      A
 Frequencies --   3212.9936              3221.6746              3231.6419
 Red. masses --      1.0981                 1.0924                 1.0940
 Frc consts  --      6.6792                 6.6801                 6.7314
 IR Inten    --     12.8958                 6.2787                 4.0310

 - Thermochemistry -
 -------------------
 Temperature   298.150 Kelvin.  Pressure   1.00000 Atm.
 Atom     1 has atomic number  6 and mass  12.00000

 Molecular mass:   482.99839 amu.
 Principal axes and moments of inertia in atomic units:
                           1         2         3
     Eigenvalues --  ******************************
           X            0.99914  -0.04139   0.00003
           Y            0.04138   0.99882  -0.02529
           Z            0.00102   0.02527   0.99968
 This molecule is an asymmetric top.
 Rotational symmetry number  1.
 Warning -- assumption of classical behavior for rotation
           may cause significant error
 Rotational temperatures (Kelvin)      0.00805     0.00594     0.00456
 Rotational constants (GHZ):           0.16782     0.12374     0.09500
    1 imaginary frequencies ignored.
 Zero-point vibrational energy    1012433.2 (Joules/Mol)
                                  241.97735 (Kcal/Mol)
 Warning -- explicit consideration of  43 degrees of freedom as
           vibrations may cause significant error
 Vibrational temperatures:     26.76    39.89    49.61    54.35    73.19
          (Kelvin)             77.06    89.02    98.10   103.43   118.61
                              123.78   144.39   146.45   157.45   167.24
                              170.80   188.28   198.95   240.48   279.93
                              283.60   328.34   354.37   371.27   385.59
                              412.99   436.14   467.66   490.33   504.47
                              512.91   526.53   557.91   575.74   594.48
                              605.52   626.21   702.79   716.71   784.47
                              815.65   865.87   888.23   905.08   908.81
                              937.84   968.23  1018.21  1023.62  1089.23
                             1104.79  1121.73  1136.40  1164.85  1204.48
                             1224.72  1226.66  1248.84  1273.61  1327.40
                             1334.70  1378.97  1386.97  1396.13  1417.08
                             1421.10  1434.93  1439.64  1442.40  1444.83
                             1455.33  1463.37  1473.61  1497.77  1500.10
                             1509.68  1528.65  1545.79  1580.65  1594.19
                             1613.28  1625.64  1632.91  1679.20  1681.03
                             1684.60  1697.12  1703.33  1723.42  1724.32
                             1752.59  1796.06  1820.13  1834.21  1847.85
                             1866.30  1873.78  1882.75  1922.97  1943.07
                             1949.48  1955.08  1956.85  1983.71  2002.01
                             2026.39  2091.69  2109.66  2115.13  2120.54
                             2127.40  2143.29  2145.10  2156.54  2189.14
                             2210.75  2303.97  2338.82  2356.33  2369.21
                             2497.48  4373.30  4392.78  4408.78  4420.30
                             4454.73  4470.72  4475.65  4489.31  4491.47
                             4501.05  4501.75  4565.65  4572.43  4577.70
                             4587.66  4591.76  4596.90  4603.88  4612.92
                             4622.78  4635.27  4649.61

 Zero-point correction=                           0.385615 (Hartree/Particle)
 Thermal correction to Energy=                    0.414157
 Thermal correction to Enthalpy=                  0.415101
 Thermal correction to Gibbs Free Energy=         0.321326
 Sum of electronic and zero-point Energies=          -3683.634362
 Sum of electronic and thermal Energies=             -3683.605821
 Sum of electronic and thermal Enthalpies=           -3683.604876
 Sum of electronic and thermal Free Energies=        -3683.698651

                     E (Thermal)             CV                S
                      KCal/Mol        Cal/Mol-Kelvin    Cal/Mol-Kelvin
 Total                  259.887            103.976            197.365
 Electronic               0.000              0.000              3.561
 Translational            0.889              2.981             44.412
 Rotational               0.889              2.981             36.342
 Vibrational            258.110             98.014            113.051
 Vibration     1          0.593              1.986              6.779
 Vibration     2          0.593              1.984              5.986
 Vibration     3          0.594              1.983              5.553
 Vibration     4          0.594              1.982              5.373
 Vibration     5          0.595              1.977              4.783
 Vibration     6          0.596              1.976              4.681
 Vibration     7          0.597              1.973              4.397
 Vibration     8          0.598              1.969              4.205
 Vibration     9          0.598              1.967              4.101
 Vibration    10          0.600              1.961              3.832
 Vibration    11          0.601              1.959              3.748
 Vibration    12          0.604              1.949              3.447
 Vibration    13          0.604              1.948              3.420
 Vibration    14          0.606              1.942              3.279
 Vibration    15          0.608              1.936              3.162
 Vibration    16          0.609              1.934              3.121
 Vibration    17          0.612              1.922              2.933
 Vibration    18          0.614              1.915              2.828
 Vibration    19          0.624              1.883              2.467
 Vibration    20          0.635              1.847              2.184
 Vibration    21          0.636              1.844              2.160
 Vibration    22          0.651              1.798              1.893
 Vibration    23          0.661              1.769              1.757
 Vibration    24          0.667              1.749              1.675
 Vibration    25          0.673              1.732              1.609
 Vibration    26          0.684              1.698              1.491
 Vibration    27          0.695              1.668              1.400
 Vibration    28          0.709              1.625              1.285
 Vibration    29          0.720              1.594              1.208
 Vibration    30          0.728              1.574              1.163
 Vibration    31          0.732              1.562              1.137
 Vibration    32          0.739              1.542              1.097
 Vibration    33          0.756              1.496              1.009
 Vibration    34          0.766              1.470              0.962
 Vibration    35          0.777              1.442              0.915
 Vibration    36          0.783              1.425              0.889
 Vibration    37          0.796              1.393              0.842
 Vibration    38          0.844              1.276              0.688
 Vibration    39          0.854              1.254              0.663
 Vibration    40          0.900              1.150              0.554
 Vibration    41          0.923              1.103              0.510
 Vibration    42          0.960              1.028              0.447
 Vibration    43          0.977              0.995              0.421

 Optimization completed.
    -- Stationary point found.
 Normal termination of Gaussian 16 at Tue Jul 13 23:07:15 2021.
