 Gaussian 16, Revision A.03,
 Gaussian 16:  ES64L-G16RevA.03 25-Dec-2016

 ----------------------------------------------------------------------
 #p opt=(calcfc,ts,noeigentest,maxstep=5) freq=noraman b3lyp scrf=(solv
 ent=water,pcm) pop=none empiricaldispersion=gd3bj jul-cc-pvdz
 ----------------------------------------------------------------------

 -----
 title
 -----
 Symbolic Z-matrix:
 Charge =  0 Multiplicity = 6

 SCF Done:  E(UB3LYP) =  -3684.02307911     A.U. after   23 cycles
 Optimization completed.
    -- Stationary point found.
 Normal termination of Gaussian 16 at Tue Jul 13 17:23:23 2021.

 ----------------------------------------------------------------------
 #P Geom=AllCheck Guess=TCheck SCRF=Check GenChk UB3LYP/Jul-CC-pVDZ Fre
 q
 ----------------------------------------------------------------------

 Structure from the checkpoint file:  "/scratch/kwaneu.3017186.bmbhpcps002/Gau-13133.chk"
 -----
 title
 -----
 Charge =  0 Multiplicity = 6

                         Standard orientation:
 ---------------------------------------------------------------------
 Center     Atomic      Atomic             Coordinates (Angstroms)
 Number     Number       Type             X           Y           Z
 ---------------------------------------------------------------------
      1          6           0        1.842341    2.433937    0.483852
      2          6           0        0.989214    1.425878    0.008677
      3          6           0        0.532702    1.484701   -1.311817
      4          6           0        0.927790    2.533462   -2.148472
      5          6           0        1.776100    3.535102   -1.672173
      6          6           0        2.233690    3.481095   -0.349969
      7          6           0        0.542357    0.326342    0.946991
      8          6           0        1.689291   -0.537912    1.582153
      9          6           0        1.676457   -0.205218    3.079597
     10          6           0        0.192302    0.037193    3.381103
     11          6           0       -0.276773    0.865528    2.176630
     12          6           0       -1.655929    0.577967    1.672571
     13          8           0       -0.464881   -0.483075    0.323302
     14         26           0       -0.891894   -2.083045   -0.506649
     15         17           0        0.676449   -3.678706   -0.404383
     16         17           0       -1.390380   -1.627308   -2.653235
     17         17           0       -2.734959   -2.784155    0.598194
     18          1           0       -0.134179    0.712961   -1.685583
     19          1           0        0.563583    2.567165   -3.175791
     20          1           0        2.079367    4.355368   -2.323523
     21          1           0        2.895587    4.258071    0.033273
     22          1           0        2.203458    2.408472    1.511655
     23          1           0        1.384535   -1.580563    1.430867
     24          6           0        3.034180   -0.380894    0.907045
     25          1           0        2.110876   -1.010166    3.683507
     26          1           0        2.265067    0.703223    3.265384
     27          1           0       -0.347359   -0.919790    3.414823
     28          1           0        0.021603    0.555389    4.331250
     29          1           0       -0.102405    1.932218    2.341475
     30          8           0        2.994267   -0.861381   -0.343315
     31          8           0        4.025138    0.099268    1.426298
     32          6           0        4.198021   -0.736099   -1.153332
     33          6           0        4.265392    0.623218   -1.823557
     34          1           0        5.068429   -0.923146   -0.514231
     35          1           0        4.104894   -1.545804   -1.885639
     36          1           0        5.144995    0.655003   -2.482305
     37          1           0        3.367508    0.804608   -2.427499
     38          1           0        4.354008    1.426443   -1.082414
     39          6           0       -2.454789    1.460145    0.906807
     40          6           0       -3.731953    1.007146    0.478171
     41          6           0       -2.003803    2.749769    0.516718
     42          6           0       -4.526326    1.812670   -0.322467
     43          1           0       -4.064001    0.011113    0.771141
     44          6           0       -2.806743    3.549222   -0.282760
     45          1           0       -1.034103    3.114119    0.845291
     46          6           0       -4.061385    3.081374   -0.703210
     47          1           0       -5.503015    1.465061   -0.656394
     48          1           0       -2.465314    4.538532   -0.584032
     49          1           0       -4.686542    3.715740   -1.332667
     50          1           0       -2.135632   -0.338228    2.018861
 ---------------------------------------------------------------------

 SCF Done:  E(UB3LYP) =  -3684.02307911     A.U. after    2 cycles

 Isotropic polarizability for W=    0.000000      505.19 Bohr**3.
 End of Minotr F.D. properties file   721 does not exist.

 ******    1 imaginary frequencies (negative Signs) ******

                      1                      2                      3
                      A                      A                      A
 Frequencies --   -213.9226                25.3523                33.9157
 Red. masses --     11.2600                 5.3998                 8.1183
 Frc consts  --      0.3036                 0.0020                 0.0055
 IR Inten    --    962.9677                 2.5224                 4.0973

                      4                      5                      6
                      A                      A                      A
 Frequencies --     35.6855                36.1936                52.6985
 Red. masses --      4.3171                 4.2248                10.4195
 Frc consts  --      0.0032                 0.0033                 0.0170
 IR Inten    --      0.4024                 0.9718                 0.2506

                      7                      8                      9
                      A                      A                      A
 Frequencies --     54.7178                71.5010                72.6289
 Red. masses --      6.0902                 4.0763                 8.1482
 Frc consts  --      0.0107                 0.0123                 0.0253
 IR Inten    --      0.2214                 0.1937                 1.8176

                     10                     11                     12
                      A                      A                      A
 Frequencies --     75.7026                82.1752                92.7332
 Red. masses --      5.1808                 4.3106                 5.6265
 Frc consts  --      0.0175                 0.0172                 0.0285
 IR Inten    --      1.9644                 1.0509                 7.4097

                     13                     14                     15
                      A                      A                      A
 Frequencies --    102.7949               107.6192               110.0877
 Red. masses --     10.1779                11.8772                 4.7561
 Frc consts  --      0.0634                 0.0810                 0.0340
 IR Inten    --      6.1654                 0.8122                 1.3831

                     16                     17                     18
                      A                      A                      A
 Frequencies --    119.8803               125.8129               132.6473
 Red. masses --      6.5046                13.8548                27.4974
 Frc consts  --      0.0551                 0.1292                 0.2851
 IR Inten    --      8.9004                 9.6693                 6.6247

                     19                     20                     21
                      A                      A                      A
 Frequencies --    153.0964               160.5104               196.4678
 Red. masses --      4.0734                 4.0846                 3.6185
 Frc consts  --      0.0563                 0.0620                 0.0823
 IR Inten    --      0.6432                18.6301                 0.6405

                     22                     23                     24
                      A                      A                      A
 Frequencies --    209.1808               225.9954               237.9805
 Red. masses --      1.8170                 3.2365                 3.7074
 Frc consts  --      0.0468                 0.0974                 0.1237
 IR Inten    --     29.5429                 3.8187                78.5284

                     25                     26                     27
                      A                      A                      A
 Frequencies --    255.4350               269.0591               299.4633
 Red. masses --      3.2705                 3.6093                 5.7389
 Frc consts  --      0.1257                 0.1539                 0.3032
 IR Inten    --      6.5430                33.7627                72.9695

                     28                     29                     30
                      A                      A                      A
 Frequencies --    322.9807               338.6517               343.4535
 Red. masses --      6.1485                 4.7823                 4.3572
 Frc consts  --      0.3779                 0.3231                 0.3028
 IR Inten    --     17.5943                29.5055                10.0454

                     31                     32                     33
                      A                      A                      A
 Frequencies --    347.0865               354.1035               358.7139
 Red. masses --     34.8046                11.9806                 8.9161
 Frc consts  --      2.4704                 0.8851                 0.6760
 IR Inten    --    204.2750               176.7306                66.9591

                     34                     35                     36
                      A                      A                      A
 Frequencies --    388.0120               398.7576               409.6742
 Red. masses --      4.1731                 3.0773                 2.9274
 Frc consts  --      0.3702                 0.2883                 0.2895
 IR Inten    --     10.1759                 3.4980                 1.0798

                     37                     38                     39
                      A                      A                      A
 Frequencies --    416.6256               457.9600               489.2238
 Red. masses --      3.6078                 3.7181                 3.5359
 Frc consts  --      0.3690                 0.4594                 0.4986
 IR Inten    --     10.5087                 5.0773                10.9950

                     40                     41                     42
                      A                      A                      A
 Frequencies --    493.8256               543.1609               570.0832
 Red. masses --      3.6559                 3.3322                 2.8247
 Frc consts  --      0.5253                 0.5792                 0.5409
 IR Inten    --     70.5238                32.9503                12.5415

                     43                     44                     45
                      A                      A                      A
 Frequencies --    600.1409               616.4095               628.8415
 Red. masses --      5.5144                 5.6769                 6.0975
 Frc consts  --      1.1702                 1.2709                 1.4206
 IR Inten    --     17.7041                18.8598                 1.3417

                     46                     47                     48
                      A                      A                      A
 Frequencies --    629.8587               653.3733               671.6830
 Red. masses --      4.3035                 3.7476                 1.6038
 Frc consts  --      1.0059                 0.9426                 0.4263
 IR Inten    --     14.3941                 1.3884                86.8631

                     49                     50                     51
                      A                      A                      A
 Frequencies --    705.7000               716.1521               756.0562
 Red. masses --      1.6433                 3.4635                 2.5518
 Frc consts  --      0.4822                 1.0466                 0.8594
 IR Inten    --     76.9050                56.4261                51.5190

                     52                     53                     54
                      A                      A                      A
 Frequencies --    758.0672               778.6054               782.9266
 Red. masses --      2.3874                 1.9090                 2.8246
 Frc consts  --      0.8083                 0.6819                 1.0201
 IR Inten    --     21.0399                40.6146                28.3998

                     55                     56                     57
                      A                      A                      A
 Frequencies --    814.4150               834.5747               849.9637
 Red. masses --      1.6477                 1.2729                 1.2594
 Frc consts  --      0.6439                 0.5224                 0.5360
 IR Inten    --      6.3919                 1.8849                 0.4210

                     58                     59                     60
                      A                      A                      A
 Frequencies --    852.0823               861.1505               884.9612
 Red. masses --      3.5512                 2.9376                 2.1028
 Frc consts  --      1.5191                 1.2835                 0.9703
 IR Inten    --     13.7040                19.0582                39.0335

                     61                     62                     63
                      A                      A                      A
 Frequencies --    915.8384               926.1599               955.0034
 Red. masses --      2.0111                 1.6379                 1.6826
 Frc consts  --      0.9939                 0.8278                 0.9042
 IR Inten    --      5.7402                 6.7664                20.6392

                     64                     65                     66
                      A                      A                      A
 Frequencies --    959.7792               970.1782               981.6567
 Red. masses --      1.8891                 2.8260                 1.6939
 Frc consts  --      1.0253                 1.5672                 0.9618
 IR Inten    --      9.8799                11.3087                73.5527

                     67                     68                     69
                      A                      A                      A
 Frequencies --    987.1344               993.7338               998.2824
 Red. masses --      1.3762                 1.8920                 2.2253
 Frc consts  --      0.7901                 1.1008                 1.3066
 IR Inten    --      0.4126                35.4635                63.7274

                     70                     71                     72
                      A                      A                      A
 Frequencies --   1001.6003              1003.6841              1012.1718
 Red. masses --      3.0995                 1.3479                 4.6324
 Frc consts  --      1.8320                 0.8000                 2.7962
 IR Inten    --     16.0421                10.7977                 6.4432

                     73                     74                     75
                      A                      A                      A
 Frequencies --   1017.3547              1023.3802              1037.0195
 Red. masses --      2.5630                 1.3719                 2.8354
 Frc consts  --      1.5629                 0.8465                 1.7965
 IR Inten    --     34.4707                 1.1834               168.6571

                     76                     77                     78
                      A                      A                      A
 Frequencies --   1041.5816              1050.1925              1063.8553
 Red. masses --      2.1805                 2.2546                 3.1426
 Frc consts  --      1.3938                 1.4651                 2.0956
 IR Inten    --      1.9741                21.0797               177.6074

                     79                     80                     81
                      A                      A                      A
 Frequencies --   1078.7183              1100.1286              1108.7296
 Red. masses --      4.0772                 1.9267                 1.7775
 Frc consts  --      2.7953                 1.3739                 1.2874
 IR Inten    --     25.7058                11.9247                 8.4390

                     82                     83                     84
                      A                      A                      A
 Frequencies --   1111.1799              1124.4785              1132.7989
 Red. masses --      1.9158                 2.6271                 2.0710
 Frc consts  --      1.3937                 1.9572                 1.5658
 IR Inten    --     37.0764                38.8566                 4.8411

                     85                     86                     87
                      A                      A                      A
 Frequencies --   1167.1551              1168.3070              1178.0520
 Red. masses --      1.4470                 1.2231                 1.0833
 Frc consts  --      1.1614                 0.9836                 0.8858
 IR Inten    --     53.0135                31.8215                 9.5143

                     88                     89                     90
                      A                      A                      A
 Frequencies --   1181.0807              1183.1257              1196.5332
 Red. masses --      1.4649                 1.5376                 1.1283
 Frc consts  --      1.2040                 1.2681                 0.9518
 IR Inten    --      6.1873                16.1886                21.2330

                     91                     92                     93
                      A                      A                      A
 Frequencies --   1196.9386              1211.9839              1229.9281
 Red. masses --      1.1667                 2.0869                 1.8963
 Frc consts  --      0.9848                 1.8062                 1.6901
 IR Inten    --     60.4495               173.3078               161.5381

                     94                     95                     96
                      A                      A                      A
 Frequencies --   1251.1237              1263.0938              1302.6326
 Red. masses --      1.8721                 1.4997                 1.3547
 Frc consts  --      1.7266                 1.4097                 1.3543
 IR Inten    --     28.1088                56.3251                37.8928

                     97                     98                     99
                      A                      A                      A
 Frequencies --   1305.4853              1311.8879              1317.8737
 Red. masses --      1.5656                 1.1787                 1.4666
 Frc consts  --      1.5721                 1.1952                 1.5008
 IR Inten    --     67.9435                27.7395               116.0755

                    100                    101                    102
                      A                      A                      A
 Frequencies --   1336.3720              1350.2358              1356.8173
 Red. masses --      1.6719                 1.4987                 1.3927
 Frc consts  --      1.7592                 1.6098                 1.5106
 IR Inten    --      4.7779               107.3682                19.1999

                    103                    104                    105
                      A                      A                      A
 Frequencies --   1360.0640              1366.0454              1387.5526
 Red. masses --      3.3866                 1.4665                 1.4689
 Frc consts  --      3.6909                 1.6124                 1.6663
 IR Inten    --      6.4744                27.9280                71.0349

                    106                    107                    108
                      A                      A                      A
 Frequencies --   1391.0723              1406.7497              1452.3454
 Red. masses --      5.7942                 1.4953                 2.1463
 Frc consts  --      6.6061                 1.7435                 2.6674
 IR Inten    --     62.0583                31.3437               148.0644

                    109                    110                    111
                      A                      A                      A
 Frequencies --   1467.2962              1468.9133              1470.8381
 Red. masses --      1.0869                 1.0761                 2.0991
 Frc consts  --      1.3788                 1.3680                 2.6756
 IR Inten    --      6.6880                 0.6137                25.5926

                    112                    113                    114
                      A                      A                      A
 Frequencies --   1479.6830              1485.9968              1488.1945
 Red. masses --      1.1054                 1.0989                 2.0162
 Frc consts  --      1.4259                 1.4297                 2.6310
 IR Inten    --     34.3947                54.1682                60.4834

                    115                    116                    117
                      A                      A                      A
 Frequencies --   1492.1475              1521.7841              1535.9969
 Red. masses --      1.1196                 2.2552                 3.0330
 Frc consts  --      1.4687                 3.0771                 4.2160
 IR Inten    --      3.3776                11.4220               223.4157

                    118                    119                    120
                      A                      A                      A
 Frequencies --   1601.0096              1625.7006              1637.3226
 Red. masses --      4.7448                 5.9505                 5.6563
 Frc consts  --      7.1657                 9.2658                 8.9342
 IR Inten    --      4.6110                 0.5012               412.5736

                    121                    122                    123
                      A                      A                      A
 Frequencies --   1646.9480              1740.7317              3045.7893
 Red. masses --      5.8420                11.4716                 1.0365
 Frc consts  --      9.3362                20.4803                 5.6655
 IR Inten    --      3.7130               520.2110                20.7762

                    124                    125                    126
                      A                      A                      A
 Frequencies --   3052.6620              3062.1851              3082.8170
 Red. masses --      1.0657                 1.0631                 1.0600
 Frc consts  --      5.8513                 5.8731                 5.9352
 IR Inten    --     36.9615                32.7427                39.3841

                    127                    128                    129
                      A                      A                      A
 Frequencies --   3084.7140              3112.4445              3120.0677
 Red. masses --      1.0813                 1.0936                 1.0998
 Frc consts  --      6.0624                 6.2419                 6.3078
 IR Inten    --      9.4383                23.5354                23.0571

                    130                    131                    132
                      A                      A                      A
 Frequencies --   3122.0887              3126.7461              3129.3216
 Red. masses --      1.0995                 1.0973                 1.1045
 Frc consts  --      6.3147                 6.3206                 6.3726
 IR Inten    --     39.7296                45.4077                 4.9964

                    133                    134                    135
                      A                      A                      A
 Frequencies --   3150.0925              3172.9075              3179.7626
 Red. masses --      1.1079                 1.0855                 1.0914
 Frc consts  --      6.4773                 6.4385                 6.5015
 IR Inten    --     37.0071                 0.8908                 0.6962

                    136                    137                    138
                      A                      A                      A
 Frequencies --   3180.6187              3188.4447              3189.8247
 Red. masses --      1.0889                 1.0874                 1.0934
 Frc consts  --      6.4904                 6.5131                 6.5547
 IR Inten    --      9.4452                 1.2841                32.6399

                    139                    140                    141
                      A                      A                      A
 Frequencies --   3196.5234              3199.1295              3206.1123
 Red. masses --      1.0905                 1.0984                 1.0928
 Frc consts  --      6.5650                 6.6230                 6.6185
 IR Inten    --      1.4284                24.7195                 6.3299

                    142                    143                    144
                      A                      A                      A
 Frequencies --   3212.6798              3226.3130              3228.8867
 Red. masses --      1.0981                 1.0921                 1.0944
 Frc consts  --      6.6776                 6.6979                 6.7228
 IR Inten    --     12.7790                 9.2400                 3.7217

 - Thermochemistry -
 -------------------
 Temperature   298.150 Kelvin.  Pressure   1.00000 Atm.
 Atom     1 has atomic number  6 and mass  12.00000

 Molecular mass:   482.99839 amu.
 Principal axes and moments of inertia in atomic units:
                           1         2         3
     Eigenvalues --  ******************************
           X            0.99849  -0.05316  -0.01370
           Y            0.05279   0.99825  -0.02657
           Z            0.01509   0.02581   0.99955
 This molecule is an asymmetric top.
 Rotational symmetry number  1.
 Warning -- assumption of classical behavior for rotation
           may cause significant error
 Rotational temperatures (Kelvin)      0.00765     0.00664     0.00505
 Rotational constants (GHZ):           0.15943     0.13842     0.10517
    1 imaginary frequencies ignored.
 Zero-point vibrational energy    1013036.0 (Joules/Mol)
                                  242.12142 (Kcal/Mol)
 Warning -- explicit consideration of  43 degrees of freedom as
           vibrations may cause significant error
 Vibrational temperatures:     36.48    48.80    51.34    52.07    75.82
          (Kelvin)             78.73   102.87   104.50   108.92   118.23
                              133.42   147.90   154.84   158.39   172.48
                              181.02   190.85   220.27   230.94   282.67
                              300.96   325.16   342.40   367.51   387.12
                              430.86   464.70   487.24   494.15   499.38
                              509.48   516.11   558.26   573.72   589.43
                              599.43   658.90   703.88   710.50   781.49
                              820.22   863.47   886.88   904.76   906.23
                              940.06   966.40  1015.34  1030.38  1087.80
                             1090.69  1120.24  1126.46  1171.76  1200.77
                             1222.91  1225.96  1239.00  1273.26  1317.69
                             1332.54  1374.04  1380.91  1395.87  1412.39
                             1420.27  1429.76  1436.31  1441.08  1444.08
                             1456.29  1463.75  1472.42  1492.04  1498.60
                             1510.99  1530.65  1552.04  1582.84  1595.21
                             1598.74  1617.87  1629.84  1679.28  1680.93
                             1694.95  1699.31  1702.25  1721.54  1722.13
                             1743.77  1769.59  1800.09  1817.31  1874.20
                             1878.30  1887.51  1896.13  1922.74  1942.69
                             1952.16  1956.83  1965.43  1996.38  2001.44
                             2024.00  2089.60  2111.11  2113.44  2116.21
                             2128.93  2138.02  2141.18  2146.87  2189.51
                             2209.96  2303.50  2339.02  2355.74  2369.59
                             2504.52  4382.21  4392.10  4405.80  4435.49
                             4438.22  4478.11  4489.08  4491.99  4498.69
                             4502.40  4532.28  4565.11  4574.97  4576.20
                             4587.46  4589.45  4599.08  4602.83  4612.88
                             4622.33  4641.94  4645.65

 Zero-point correction=                           0.385845 (Hartree/Particle)
 Thermal correction to Energy=                    0.414206
 Thermal correction to Enthalpy=                  0.415150
 Thermal correction to Gibbs Free Energy=         0.322626
 Sum of electronic and zero-point Energies=          -3683.637234
 Sum of electronic and thermal Energies=             -3683.608873
 Sum of electronic and thermal Enthalpies=           -3683.607929
 Sum of electronic and thermal Free Energies=        -3683.700454

                     E (Thermal)             CV                S
                      KCal/Mol        Cal/Mol-Kelvin    Cal/Mol-Kelvin
 Total                  259.918            103.930            194.734
 Electronic               0.000              0.000              3.561
 Translational            0.889              2.981             44.412
 Rotational               0.889              2.981             36.181
 Vibrational            258.141             97.968            110.581
 Vibration     1          0.593              1.985              6.163
 Vibration     2          0.594              1.983              5.586
 Vibration     3          0.594              1.982              5.485
 Vibration     4          0.594              1.982              5.457
 Vibration     5          0.596              1.977              4.713
 Vibration     6          0.596              1.976              4.639
 Vibration     7          0.598              1.968              4.112
 Vibration     8          0.599              1.967              4.081
 Vibration     9          0.599              1.965              3.999
 Vibration    10          0.600              1.961              3.838
 Vibration    11          0.602              1.954              3.602
 Vibration    12          0.605              1.947              3.401
 Vibration    13          0.606              1.943              3.311
 Vibration    14          0.606              1.941              3.267
 Vibration    15          0.609              1.933              3.102
 Vibration    16          0.611              1.927              3.009
 Vibration    17          0.613              1.921              2.907
 Vibration    18          0.619              1.899              2.633
 Vibration    19          0.622              1.891              2.544
 Vibration    20          0.636              1.845              2.166
 Vibration    21          0.642              1.827              2.051
 Vibration    22          0.650              1.801              1.911
 Vibration    23          0.656              1.782              1.818
 Vibration    24          0.666              1.754              1.693
 Vibration    25          0.673              1.730              1.602
 Vibration    26          0.692              1.675              1.420
 Vibration    27          0.708              1.629              1.295
 Vibration    28          0.719              1.598              1.218
 Vibration    29          0.722              1.589              1.196
 Vibration    30          0.725              1.581              1.179
 Vibration    31          0.730              1.567              1.148
 Vibration    32          0.734              1.557              1.128
 Vibration    33          0.756              1.496              1.008
 Vibration    34          0.765              1.473              0.967
 Vibration    35          0.774              1.449              0.928
 Vibration    36          0.780              1.434              0.904
 Vibration    37          0.816              1.343              0.772
 Vibration    38          0.845              1.274              0.686
 Vibration    39          0.849              1.264              0.674
 Vibration    40          0.898              1.155              0.559
 Vibration    41          0.926              1.096              0.504
 Vibration    42          0.958              1.031              0.449
 Vibration    43          0.976              0.997              0.422

 Optimization completed.
    -- Stationary point found.
 Normal termination of Gaussian 16 at Wed Jul 14 01:16:58 2021.
