 Gaussian 16, Revision A.03,
 Gaussian 16:  ES64L-G16RevA.03 25-Dec-2016

 ----------------------------------------------------------------------
 #p freq=noraman b3lyp scrf=(solvent=water,pcm) pop=none empiricaldispe
 rsion=gd3bj jul-cc-pvdz
 ----------------------------------------------------------------------

 -----
 title
 -----
 Symbolic Z-matrix:
 Charge =  0 Multiplicity = 6

                         Standard orientation:
 ---------------------------------------------------------------------
 Center     Atomic      Atomic             Coordinates (Angstroms)
 Number     Number       Type             X           Y           Z
 ---------------------------------------------------------------------
      1          6           0        3.352885   -2.400101   -1.217206
      2          6           0        2.619233   -1.200025   -1.350192
      3          6           0        3.062758   -0.210555   -2.257932
      4          6           0        4.212318   -0.419189   -3.008660
      5          6           0        4.941533   -1.607289   -2.856903
      6          6           0        4.513132   -2.593428   -1.960099
      7          6           0        1.426354   -0.959387   -0.554895
      8          6           0        0.805046   -2.047919    0.300866
      9          6           0       -0.699330   -1.824662    0.539513
     10          6           0       -1.526155   -1.977254   -0.747596
     11          6           0       -2.991319   -1.810092   -0.473933
     12          6           0       -3.731047   -0.789136   -0.938165
     13          8           0        0.877275    0.168511   -0.534670
     14          1           0        2.492135    0.706938   -2.384813
     15          1           0        4.545086    0.340197   -3.715503
     16          1           0        5.845627   -1.766655   -3.445477
     17          1           0        5.083593   -3.514242   -1.844507
     18          1           0        3.035121   -3.171836   -0.519741
     19          1           0        0.972416   -3.021492   -0.166934
     20          6           0        1.569834   -2.079777    1.634578
     21          1           0       -1.032790   -2.562410    1.282594
     22          1           0       -0.856550   -0.831038    0.972840
     23          1           0       -1.202529   -1.236368   -1.492027
     24          1           0       -1.337267   -2.976149   -1.174099
     25          1           0       -3.444778   -2.568492    0.171255
     26          8           0        1.368728   -0.961021    2.324926
     27          8           0        2.255007   -3.015474    1.995466
     28          6           0        2.045653   -0.837924    3.613848
     29          6           0        1.544200    0.431243    4.264489
     30          1           0        1.816181   -1.732431    4.205123
     31          1           0        3.125240   -0.810345    3.418199
     32          1           0        2.045107    0.556722    5.234278
     33          1           0        1.765001    1.304017    3.637470
     34          1           0        0.460542    0.380225    4.435955
     35          6           0       -5.159483   -0.537820   -0.689280
     36          6           0       -5.762756    0.594230   -1.268365
     37          6           0       -5.961879   -1.378105    0.109340
     38          6           0       -7.114787    0.881829   -1.062137
     39          1           0       -5.157732    1.257639   -1.889761
     40          6           0       -7.310930   -1.093574    0.316657
     41          1           0       -5.528686   -2.263521    0.574994
     42          6           0       -7.896454    0.038201   -0.267693
     43          1           0       -7.556760    1.766333   -1.523065
     44          1           0       -7.912528   -1.757945    0.938873
     45          1           0       -8.952124    0.257524   -0.102912
     46          1           0       -3.237171   -0.046478   -1.574125
     47         26           0        1.080082    2.025924    0.041809
     48         17           0        1.078921    3.290933   -1.789133
     49         17           0        3.065957    1.997322    1.040927
     50         17           0       -0.656064    2.382572    1.385335
 ---------------------------------------------------------------------

 SCF Done:  E(UB3LYP) =  -3684.04037451     A.U. after   26 cycles

 Isotropic polarizability for W=    0.000000      514.45 Bohr**3.
 End of Minotr F.D. properties file   721 does not exist.

 ******    2 imaginary frequencies (negative Signs) ******

                      1                      2                      3
                      A                      A                      A
 Frequencies --    -38.7232               -16.4102                10.6894
 Red. masses --      9.1919                10.7739                 6.5768
 Frc consts  --      0.0081                 0.0017                 0.0004
 IR Inten    --      0.6675                 1.1816                 0.4196

                      4                      5                      6
                      A                      A                      A
 Frequencies --     15.0114                18.8515                30.9795
 Red. masses --      6.6914                 4.0988                 8.5454
 Frc consts  --      0.0009                 0.0009                 0.0048
 IR Inten    --      1.5467                 0.4318                 0.3730

                      7                      8                      9
                      A                      A                      A
 Frequencies --     39.2521                52.8454                60.4812
 Red. masses --      5.2164                 6.7805                 5.6822
 Frc consts  --      0.0047                 0.0112                 0.0122
 IR Inten    --      0.9287                 1.4515                 3.2070

                     10                     11                     12
                      A                      A                      A
 Frequencies --     68.0804                70.0283                76.4457
 Red. masses --      4.2982                 7.4381                 5.4482
 Frc consts  --      0.0117                 0.0215                 0.0188
 IR Inten    --      0.6240                 0.7728                 4.0660

                     13                     14                     15
                      A                      A                      A
 Frequencies --     81.4624                86.7503                98.2890
 Red. masses --      2.6546                 5.2821                 6.5637
 Frc consts  --      0.0104                 0.0234                 0.0374
 IR Inten    --      0.6317                 2.2976                 2.4665

                     16                     17                     18
                      A                      A                      A
 Frequencies --    102.9463               108.3561               129.3412
 Red. masses --      4.9824                 7.4762                21.4646
 Frc consts  --      0.0311                 0.0517                 0.2116
 IR Inten    --      0.1741                 4.7819                 5.2669

                     19                     20                     21
                      A                      A                      A
 Frequencies --    141.0970               143.9098               157.0074
 Red. masses --      5.7335                 5.3784                 2.4551
 Frc consts  --      0.0673                 0.0656                 0.0357
 IR Inten    --      9.0830                 8.2723                 2.5587

                     22                     23                     24
                      A                      A                      A
 Frequencies --    183.4230               191.5796               207.8881
 Red. masses --      4.8655                 4.7710                 2.5751
 Frc consts  --      0.0964                 0.1032                 0.0656
 IR Inten    --     11.2848                 1.8208                 4.0414

                     25                     26                     27
                      A                      A                      A
 Frequencies --    237.6675               251.0968               259.0910
 Red. masses --      3.2220                 3.4789                 1.5872
 Frc consts  --      0.1072                 0.1292                 0.0628
 IR Inten    --     14.2775                 1.4811                10.2560

                     28                     29                     30
                      A                      A                      A
 Frequencies --    276.2130               319.5771               325.3680
 Red. masses --      5.1575                 5.2736                14.9003
 Frc consts  --      0.2318                 0.3173                 0.9294
 IR Inten    --     40.8620                 9.4905                49.6164

                     31                     32                     33
                      A                      A                      A
 Frequencies --    331.4508               372.2086               378.9197
 Red. masses --      4.6280                 6.8503                 3.6001
 Frc consts  --      0.2996                 0.5592                 0.3046
 IR Inten    --      4.2262                55.1087                19.8072

                     34                     35                     36
                      A                      A                      A
 Frequencies --    386.2314               394.9388               398.6147
 Red. masses --     22.6916                 6.5522                 7.1534
 Frc consts  --      1.9944                 0.6021                 0.6697
 IR Inten    --    217.9458               123.7322               107.9377

                     37                     38                     39
                      A                      A                      A
 Frequencies --    412.4338               418.2931               424.8735
 Red. masses --      2.8480                 3.1744                 4.6779
 Frc consts  --      0.2854                 0.3272                 0.4975
 IR Inten    --      0.0183                12.6546                 1.6786

                     40                     41                     42
                      A                      A                      A
 Frequencies --    437.9879               488.8707               529.7087
 Red. masses --      4.1261                 3.3866                 5.4255
 Frc consts  --      0.4664                 0.4769                 0.8969
 IR Inten    --     10.0424                19.0182                36.0424

                     43                     44                     45
                      A                      A                      A
 Frequencies --    535.9326               614.1389               623.7958
 Red. masses --      3.5109                 5.6127                 6.3563
 Frc consts  --      0.5941                 1.2473                 1.4573
 IR Inten    --     18.6833                16.6309                 1.5540

                     46                     47                     48
                      A                      A                      A
 Frequencies --    628.5318               636.1234               663.8475
 Red. masses --      6.3759                 5.1594                 3.6837
 Frc consts  --      1.4840                 1.2301                 0.9565
 IR Inten    --      0.0511                15.6116                23.8597

                     49                     50                     51
                      A                      A                      A
 Frequencies --    698.8139               699.2732               720.0619
 Red. masses --      1.8854                 1.5930                 3.6912
 Frc consts  --      0.5425                 0.4589                 1.1276
 IR Inten    --     23.6494               122.2965                16.2250

                     52                     53                     54
                      A                      A                      A
 Frequencies --    747.6641               755.9175               768.2931
 Red. masses --      1.5613                 2.2247                 2.1780
 Frc consts  --      0.5142                 0.7490                 0.7575
 IR Inten    --     13.4238               115.3829                 3.6283

                     55                     56                     57
                      A                      A                      A
 Frequencies --    808.4516               816.3737               838.4303
 Red. masses --      1.1283                 3.0198                 2.7449
 Frc consts  --      0.4345                 1.1858                 1.1369
 IR Inten    --      4.4265                22.4739                 0.2188

                     58                     59                     60
                      A                      A                      A
 Frequencies --    839.3569               857.3194               857.7389
 Red. masses --      1.4703                 2.8481                 2.0954
 Frc consts  --      0.6103                 1.2333                 0.9083
 IR Inten    --      0.1889                30.7565                 0.5158

                     61                     62                     63
                      A                      A                      A
 Frequencies --    860.1219               882.8588               925.0905
 Red. masses --      1.2902                 2.9038                 1.5843
 Frc consts  --      0.5624                 1.3335                 0.7988
 IR Inten    --      2.8210                 9.3845                 3.3376

                     64                     65                     66
                      A                      A                      A
 Frequencies --    952.1744               974.4234               977.4572
 Red. masses --      3.8140                 1.4919                 3.3017
 Frc consts  --      2.0373                 0.8346                 1.8586
 IR Inten    --     23.3222                14.9663                60.3863

                     67                     68                     69
                      A                      A                      A
 Frequencies --    980.4631               985.1774               998.1274
 Red. masses --      1.3749                 1.1315                 4.4534
 Frc consts  --      0.7788                 0.6470                 2.6140
 IR Inten    --      0.1289                51.9401                 1.1297

                     70                     71                     72
                      A                      A                      A
 Frequencies --    998.7227              1002.8825              1014.7220
 Red. masses --      1.3604                 5.1331                 1.3673
 Frc consts  --      0.7995                 3.0418                 0.8295
 IR Inten    --      5.1616                15.5203                 1.0161

                     73                     74                     75
                      A                      A                      A
 Frequencies --   1023.4845              1034.4687              1047.1806
 Red. masses --      2.6232                 3.0254                 2.4567
 Frc consts  --      1.6190                 1.9075                 1.5873
 IR Inten    --     27.3012                75.8114                52.9881

                     76                     77                     78
                      A                      A                      A
 Frequencies --   1050.0882              1053.6978              1060.7712
 Red. masses --      2.8132                 1.8207                 1.4259
 Frc consts  --      1.8277                 1.1910                 0.9454
 IR Inten    --     43.6005                 8.3295                13.6606

                     79                     80                     81
                      A                      A                      A
 Frequencies --   1082.0400              1094.4594              1116.1119
 Red. masses --      2.4834                 1.7279                 2.2938
 Frc consts  --      1.7131                 1.2194                 1.6835
 IR Inten    --     21.5723                16.9291                 8.5616

                     82                     83                     84
                      A                      A                      A
 Frequencies --   1131.8963              1139.3601              1165.6123
 Red. masses --      2.1405                 1.6292                 1.0790
 Frc consts  --      1.6158                 1.2461                 0.8637
 IR Inten    --     13.9555                41.0562                 0.2018

                     85                     86                     87
                      A                      A                      A
 Frequencies --   1166.3535              1180.7951              1187.6115
 Red. masses --      1.5544                 1.0985                 1.2739
 Frc consts  --      1.2458                 0.9024                 1.0586
 IR Inten    --     27.6472                 5.6173                47.3073

                     88                     89                     90
                      A                      A                      A
 Frequencies --   1192.8247              1202.1501              1232.1633
 Red. masses --      1.1430                 2.1305                 2.1134
 Frc consts  --      0.9582                 1.8141                 1.8905
 IR Inten    --     14.5043               399.2109                 0.8653

                     91                     92                     93
                      A                      A                      A
 Frequencies --   1238.7572              1262.6193              1271.3640
 Red. masses --      1.2414                 2.0532                 1.6219
 Frc consts  --      1.1224                 1.9285                 1.5445
 IR Inten    --     52.7704               409.3544               100.1210

                     94                     95                     96
                      A                      A                      A
 Frequencies --   1284.9065              1307.0689              1314.1543
 Red. masses --      1.1173                 1.2675                 1.9191
 Frc consts  --      1.0868                 1.2758                 1.9528
 IR Inten    --      8.5197                 6.7481               118.1160

                     97                     98                     99
                      A                      A                      A
 Frequencies --   1325.8272              1328.9581              1353.6425
 Red. masses --      1.6966                 1.3654                 1.5449
 Frc consts  --      1.7571                 1.4208                 1.6679
 IR Inten    --     66.3952                13.2515                 7.0198

                    100                    101                    102
                      A                      A                      A
 Frequencies --   1356.6232              1363.2120              1376.5516
 Red. masses --      2.1082                 2.1218                 1.3821
 Frc consts  --      2.2860                 2.3232                 1.5430
 IR Inten    --     38.1800                12.9589                14.4444

                    103                    104                    105
                      A                      A                      A
 Frequencies --   1382.7187              1386.0555              1402.2506
 Red. masses --      2.8619                 1.5432                 1.4558
 Frc consts  --      3.2239                 1.7467                 1.6866
 IR Inten    --     39.3990                 8.4933               113.6142

                    106                    107                    108
                      A                      A                      A
 Frequencies --   1409.4739              1464.6745              1465.7120
 Red. masses --      1.4601                 1.1770                 1.0401
 Frc consts  --      1.7090                 1.4877                 1.3166
 IR Inten    --     37.2457                30.1402                 5.4456

                    109                    110                    111
                      A                      A                      A
 Frequencies --   1470.2076              1471.5352              1475.1359
 Red. masses --      2.4525                 1.9746                 1.0559
 Frc consts  --      3.1233                 2.5192                 1.3538
 IR Inten    --    136.9024                10.5566                 2.2575

                    112                    113                    114
                      A                      A                      A
 Frequencies --   1483.6755              1498.8589              1519.5450
 Red. masses --      1.1114                 1.0876                 2.3262
 Frc consts  --      1.4415                 1.4396                 3.1646
 IR Inten    --     33.9141                21.7381                19.0472

                    115                    116                    117
                      A                      A                      A
 Frequencies --   1536.6460              1561.8405              1616.2277
 Red. masses --      2.0362                 6.5204                 5.5892
 Frc consts  --      2.8328                 9.3712                 8.6021
 IR Inten    --     15.6693              1746.7941                 1.4856

                    118                    119                    120
                      A                      A                      A
 Frequencies --   1617.3917              1642.7766              1646.6524
 Red. masses --      4.9763                 5.8975                 5.1141
 Frc consts  --      7.6698                 9.3773                 8.1701
 IR Inten    --     71.6213                15.7015                93.6118

                    121                    122                    123
                      A                      A                      A
 Frequencies --   1713.2855              1744.4467              3014.9912
 Red. masses --      5.9372                11.4216                 1.0642
 Frc consts  --     10.2681                20.4782                 5.6994
 IR Inten    --      1.5643               564.8923                51.2384

                    124                    125                    126
                      A                      A                      A
 Frequencies --   3044.2389              3057.1580              3069.9499
 Red. masses --      1.0352                 1.0676                 1.0583
 Frc consts  --      5.6525                 5.8788                 5.8764
 IR Inten    --     21.6330                25.1474                26.3241

                    127                    128                    129
                      A                      A                      A
 Frequencies --   3078.2109              3116.7249              3122.7202
 Red. masses --      1.0941                 1.1040                 1.0954
 Frc consts  --      6.1083                 6.3184                 6.2933
 IR Inten    --     34.9335                12.0535                 6.2637

                    130                    131                    132
                      A                      A                      A
 Frequencies --   3124.1151              3125.6022              3136.2650
 Red. masses --      1.1041                 1.0897                 1.0895
 Frc consts  --      6.3491                 6.2724                 6.3140
 IR Inten    --     24.7244                20.3630                14.0480

                    133                    134                    135
                      A                      A                      A
 Frequencies --   3140.8523              3141.2693              3163.1095
 Red. masses --      1.1062                 1.0878                 1.0861
 Frc consts  --      6.4297                 6.3240                 6.4022
 IR Inten    --     42.7961                41.8580                12.4829

                    136                    137                    138
                      A                      A                      A
 Frequencies --   3170.2645              3179.8773              3188.0947
 Red. masses --      1.0867                 1.0912                 1.0871
 Frc consts  --      6.4353                 6.5011                 6.5100
 IR Inten    --      0.5002                19.8803                 0.8897

                    139                    140                    141
                      A                      A                      A
 Frequencies --   3188.1659              3196.5177              3200.7461
 Red. masses --      1.0940                 1.0988                 1.0911
 Frc consts  --      6.5514                 6.6151                 6.5858
 IR Inten    --     47.7041                23.2148                 9.0717

                    142                    143                    144
                      A                      A                      A
 Frequencies --   3207.7227              3222.4231              3250.2920
 Red. masses --      1.0958                 1.0946                 1.0897
 Frc consts  --      6.6431                 6.6970                 6.7828
 IR Inten    --     13.0742                 5.5135                 6.3237

 - Thermochemistry -
 -------------------
 Temperature   298.150 Kelvin.  Pressure   1.00000 Atm.
 Atom     1 has atomic number  6 and mass  12.00000

 Molecular mass:   482.99839 amu.
 Principal axes and moments of inertia in atomic units:
                           1         2         3
     Eigenvalues --  ******************************
           X            0.99997  -0.00811  -0.00008
           Y            0.00811   0.99991   0.01037
           Z           -0.00001  -0.01037   0.99995
 This molecule is an asymmetric top.
 Rotational symmetry number  1.
 Warning -- assumption of classical behavior for rotation
           may cause significant error
 Rotational temperatures (Kelvin)      0.00798     0.00347     0.00330
 Rotational constants (GHZ):           0.16634     0.07229     0.06882
    2 imaginary frequencies ignored.
 Zero-point vibrational energy    1010687.3 (Joules/Mol)
                                  241.56006 (Kcal/Mol)
 Warning -- explicit consideration of  42 degrees of freedom as
           vibrations may cause significant error
 Vibrational temperatures:     15.38    21.60    27.12    44.57    56.47
          (Kelvin)             76.03    87.02    97.95   100.76   109.99
                              117.21   124.81   141.42   148.12   155.90
                              186.09   203.01   207.05   225.90   263.90
                              275.64   299.10   341.95   361.27   372.77
                              397.41   459.80   468.13   476.88   535.53
                              545.18   555.70   568.23   573.52   593.40
                              601.83   611.30   630.17   703.38   762.13
                              771.09   883.61   897.50   904.32   915.24
                              955.13  1005.44  1006.10  1036.01  1075.72
                             1087.60  1105.40  1163.18  1174.58  1206.31
                             1207.65  1233.49  1234.09  1237.52  1270.24
                             1331.00  1369.97  1401.98  1406.34  1410.67
                             1417.45  1436.08  1436.94  1442.92  1459.96
                             1472.57  1488.37  1506.66  1510.84  1516.04
                             1526.21  1556.81  1574.68  1605.84  1628.55
                             1639.29  1677.06  1678.12  1698.90  1708.71
                             1716.21  1729.63  1772.81  1782.30  1816.63
                             1829.21  1848.69  1880.58  1890.77  1907.57
                             1912.07  1947.59  1951.88  1961.36  1980.55
                             1989.42  1994.22  2017.53  2027.92  2107.34
                             2108.83  2115.30  2117.21  2122.39  2134.68
                             2156.52  2186.29  2210.89  2247.14  2325.39
                             2327.07  2363.59  2369.17  2465.04  2509.87
                             4337.90  4379.98  4398.57  4416.97  4428.86
                             4484.27  4492.90  4494.90  4497.04  4512.39
                             4518.99  4519.59  4551.01  4561.30  4575.13
                             4586.96  4587.06  4599.08  4605.16  4615.20
                             4636.35  4676.45

 Zero-point correction=                           0.384950 (Hartree/Particle)
 Thermal correction to Energy=                    0.413696
 Thermal correction to Enthalpy=                  0.414641
 Thermal correction to Gibbs Free Energy=         0.317861
 Sum of electronic and zero-point Energies=          -3683.655424
 Sum of electronic and thermal Energies=             -3683.626678
 Sum of electronic and thermal Enthalpies=           -3683.625734
 Sum of electronic and thermal Free Energies=        -3683.722513

                     E (Thermal)             CV                S
                      KCal/Mol        Cal/Mol-Kelvin    Cal/Mol-Kelvin
 Total                  259.598            103.415            203.690
 Electronic               0.000              0.000              3.561
 Translational            0.889              2.981             44.412
 Rotational               0.889              2.981             37.205
 Vibrational            257.821             97.453            118.512
 Vibration     1          0.593              1.987              7.879
 Vibration     2          0.593              1.986              7.204
 Vibration     3          0.593              1.986              6.752
 Vibration     4          0.594              1.984              5.766
 Vibration     5          0.594              1.981              5.296
 Vibration     6          0.596              1.976              4.708
 Vibration     7          0.597              1.973              4.441
 Vibration     8          0.598              1.969              4.208
 Vibration     9          0.598              1.968              4.153
 Vibration    10          0.599              1.965              3.980
 Vibration    11          0.600              1.962              3.855
 Vibration    12          0.601              1.958              3.732
 Vibration    13          0.604              1.950              3.488
 Vibration    14          0.605              1.947              3.398
 Vibration    15          0.606              1.943              3.298
 Vibration    16          0.612              1.924              2.956
 Vibration    17          0.615              1.912              2.789
 Vibration    18          0.616              1.909              2.751
 Vibration    19          0.621              1.895              2.586
 Vibration    20          0.631              1.862              2.293
 Vibration    21          0.634              1.852              2.212
 Vibration    22          0.641              1.829              2.062
 Vibration    23          0.656              1.783              1.820
 Vibration    24          0.663              1.761              1.723
 Vibration    25          0.668              1.747              1.668
 Vibration    26          0.678              1.717              1.557
 Vibration    27          0.706              1.636              1.312
 Vibration    28          0.709              1.625              1.283
 Vibration    29          0.714              1.613              1.253
 Vibration    30          0.744              1.529              1.071
 Vibration    31          0.749              1.515              1.043
 Vibration    32          0.755              1.500              1.015
 Vibration    33          0.762              1.481              0.981
 Vibration    34          0.765              1.473              0.968
 Vibration    35          0.776              1.443              0.918
 Vibration    36          0.781              1.430              0.898
 Vibration    37          0.787              1.416              0.876
 Vibration    38          0.798              1.387              0.833
 Vibration    39          0.845              1.275              0.687
 Vibration    40          0.885              1.184              0.588
 Vibration    41          0.891              1.171              0.574
 Vibration    42          0.974              1.002              0.426

 Normal termination of Gaussian 16 at Sun Jul 11 09:00:46 2021.
